<event>
 7    0  0.4725730E-002  0.4538334E+03  0.7546771E-02  0.1026585E+00
         21   -1    0    0  502  501  0.00000000000E+00  0.00000000000E+00  0.12923609554E+04  0.12923609554E+04  0.00000000000E+00 0.  1.
         21   -1    0    0  501  502 -0.00000000000E+00 -0.00000000000E+00 -0.39842733775E+02  0.39842733775E+02  0.00000000000E+00 0.  1.
      99926    2    1    2    0    0  0.14210854715E-13  0.14210854715E-13  0.12525182216E+04  0.13322036892E+04  0.45383342092E+03 0.  0.
      99925    2    3    3    0    0  0.49895099263E+02  0.10027316959E+03  0.79720009590E+03  0.84691374163E+03  0.26304118193E+03 0.  0.
         25    1    4    4    0    0 -0.14153848927E+02  0.46795673702E+02  0.41538109011E+03  0.43655369044E+03  0.12509000000E+03 0.  0.
         25    1    3    3    0    0 -0.49895099263E+02 -0.10027316959E+03  0.45531812571E+03  0.48528994753E+03  0.12509000000E+03 0.  0.
         25    1    4    4    0    0  0.64048948190E+02  0.53477495892E+02  0.38181900579E+03  0.41036005119E+03  0.12509000000E+03 0.  0.
<mgrwt>
<rscale>  2 0.45383342E+03</rscale>
<asrwt>0</asrwt>
<pdfrwt beam="1">  1       21 0.19005305E+00 0.45383342E+03</pdfrwt>
<pdfrwt beam="2">  1       21 0.58592264E-02 0.45383342E+03</pdfrwt>
<totfact> 0.28450834E+04</totfact>
</mgrwt>
</event>
<event>
 6    0  0.4725730E-002  0.4588494E+03  0.7546771E-02  0.1025115E+00
         21   -1    0    0  502  501  0.00000000000E+00  0.00000000000E+00  0.28117267770E+03  0.28117267770E+03  0.00000000000E+00 0. -1.
         21   -1    0    0  501  502 -0.00000000000E+00 -0.00000000000E+00 -0.18720057389E+03  0.18720057389E+03  0.00000000000E+00 0. -1.
      99926    2    1    2    0    0  0.17763568394E-14 -0.35527136788E-14  0.93972103807E+02  0.46837325159E+03  0.45884937236E+03 0.  0.
         25    1    3    3    0    0  0.46622945563E+02  0.15840144436E+01  0.11568002569E+02  0.13400572726E+03  0.12509000000E+03 0.  0.
         25    1    3    3    0    0 -0.52292959331E+02  0.18626589590E+02 -0.54889591885E+02  0.14745127613E+03  0.12509000000E+03 0.  0.
         25    1    3    3    0    0  0.56700137681E+01 -0.20210604034E+02  0.13729369312E+03  0.18691624820E+03  0.12509000000E+03 0.  0.
<mgrwt>
<rscale>  2 0.45884937E+03</rscale>
<asrwt>0</asrwt>
<pdfrwt beam="1">  1       21 0.41348923E-01 0.45884937E+03</pdfrwt>
<pdfrwt beam="2">  1       21 0.27529496E-01 0.45884937E+03</pdfrwt>
<totfact> 0.65532289E+04</totfact>
</mgrwt>
</event>
<event>
 7    0  0.4725730E-002  0.4543881E+03  0.7546771E-02  0.1026421E+00
         21   -1    0    0  502  501  0.00000000000E+00  0.00000000000E+00  0.58453912411E+03  0.58453912411E+03  0.00000000000E+00 0. -1.
         21   -1    0    0  501  502 -0.00000000000E+00 -0.00000000000E+00 -0.88304007537E+02  0.88304007537E+02  0.00000000000E+00 0. -1.
      99926    2    1    2    0    0 -0.35527136788E-14  0.00000000000E+00  0.49623511657E+03  0.67284313164E+03  0.45438814782E+03 0.  0.
      99925    2    3    3    0    0 -0.14495296079E+02  0.72630887139E+02  0.18690574589E+03  0.33105734048E+03  0.26302061795E+03 0.  0.
         25    1    3    3    0    0  0.14495296079E+02 -0.72630887139E+02  0.30932937068E+03  0.34178579116E+03  0.12509000000E+03 0.  0.
         25    1    4    4    0    0  0.26838938958E+02  0.16816411610E+02  0.10371670243E+03  0.16555296073E+03  0.12509000000E+03 0.  0.
         25    1    4    4    0    0 -0.41334235037E+02  0.55814475529E+02  0.83189043456E+02  0.16550437975E+03  0.12509000000E+03 0.  0.
<mgrwt>
<rscale>  2 0.45438815E+03</rscale>
<asrwt>0</asrwt>
<pdfrwt beam="1">  1       21 0.85961634E-01 0.45438815E+03</pdfrwt>
<pdfrwt beam="2">  1       21 0.12985884E-01 0.45438815E+03</pdfrwt>
<totfact> 0.54665764E+04</totfact>
</mgrwt>
</event>
<event>
 7    0  0.4725730E-002  0.4636498E+03  0.7546771E-02  0.1023728E+00
         21   -1    0    0  502  501  0.00000000000E+00  0.00000000000E+00  0.84575568033E+02  0.84575568033E+02  0.00000000000E+00 0.  1.
         21   -1    0    0  501  502 -0.00000000000E+00 -0.00000000000E+00 -0.63544092500E+03  0.63544092500E+03  0.00000000000E+00 0.  1.
      99926    2    1    2    0    0  0.88817841970E-15  0.00000000000E+00 -0.55086535697E+03  0.72001649303E+03  0.46364976947E+03 0.  0.
      99925    2    3    3    0    0  0.66471120538E+01  0.82683005155E+02 -0.48102007015E+03  0.55446729904E+03  0.26300763179E+03 0.  0.
         25    1    4    4    0    0  0.25819798474E+02  0.66900152627E+02 -0.20750976176E+03  0.25268577669E+03  0.12509000000E+03 0.  0.
         25    1    3    3    0    0 -0.66471120538E+01 -0.82683005155E+02 -0.69845286814E+02  0.16554919399E+03  0.12509000000E+03 0.  0.
         25    1    4    4    0    0 -0.19172686420E+02  0.15782852528E+02 -0.27351030839E+03  0.30178152235E+03  0.12509000000E+03 0.  0.
<mgrwt>
<rscale>  2 0.46364977E+03</rscale>
<asrwt>0</asrwt>
<pdfrwt beam="1">  1       21 0.12437584E-01 0.46364977E+03</pdfrwt>
<pdfrwt beam="2">  1       21 0.93447195E-01 0.46364977E+03</pdfrwt>
<totfact> 0.48448284E+04</totfact>
</mgrwt>
</event>
<event>
 7    0  0.4725730E-002  0.4521988E+03  0.7546771E-02  0.1027068E+00
         21   -1    0    0  502  501  0.00000000000E+00  0.00000000000E+00  0.12161096715E+03  0.12161096715E+03  0.00000000000E+00 0. -1.
         21   -1    0    0  501  502 -0.00000000000E+00 -0.00000000000E+00 -0.42036450706E+03  0.42036450706E+03  0.00000000000E+00 0. -1.
      99926    2    1    2    0    0  0.00000000000E+00 -0.71054273576E-14 -0.29875353990E+03  0.54197547421E+03  0.45219878045E+03 0.  0.
      99925    2    3    3    0    0 -0.24241362025E+02 -0.48608943968E+02 -0.72975453682E+02  0.27820715658E+03  0.26291316449E+03 0.  0.
         25    1    3    3    0    0  0.24241362025E+02  0.48608943968E+02 -0.22577808622E+03  0.26376831763E+03  0.12509000000E+03 0.  0.
         25    1    4    4    0    0  0.78182092739E+01 -0.59428210535E+02 -0.32770730904E+02  0.14252812181E+03  0.12509000000E+03 0.  0.
         25    1    4    4    0    0 -0.32059571299E+02  0.10819266566E+02 -0.40204722778E+02  0.13567903476E+03  0.12509000000E+03 0.  0.
<mgrwt>
<rscale>  2 0.45219878E+03</rscale>
<asrwt>0</asrwt>
<pdfrwt beam="1">  1       21 0.17883966E-01 0.45219878E+03</pdfrwt>
<pdfrwt beam="2">  1       21 0.61818309E-01 0.45219878E+03</pdfrwt>
<totfact> 0.63802531E+04</totfact>
</mgrwt>
</event>
<event>
 7    0  0.4725730E-002  0.4622023E+03  0.7546771E-02  0.1024144E+00
         21   -1    0    0  502  501  0.00000000000E+00  0.00000000000E+00  0.61755071004E+02  0.61755071004E+02  0.00000000000E+00 0. -1.
         21   -1    0    0  501  502 -0.00000000000E+00 -0.00000000000E+00 -0.86483185179E+03  0.86483185179E+03  0.00000000000E+00 0. -1.
      99926    2    1    2    0    0  0.00000000000E+00  0.00000000000E+00 -0.80307678079E+03  0.92658692280E+03  0.46220234709E+03 0.  0.
      99925    2    3    3    0    0  0.23498751984E+02 -0.10754595149E+03 -0.40781388569E+03  0.49763635761E+03  0.26308070251E+03 0.  0.
         25    1    3    3    0    0 -0.23498751984E+02  0.10754595149E+03 -0.39526289510E+03  0.42895056518E+03  0.12509000000E+03 0.  0.
         25    1    4    4    0    0  0.15794182017E+02 -0.10497308660E+02 -0.17290293702E+03  0.21424888192E+03  0.12509000000E+03 0.  0.
         25    1    4    4    0    0  0.77045699666E+01 -0.97048642835E+02 -0.23491094867E+03  0.28338747569E+03  0.12509000000E+03 0.  0.
<mgrwt>
<rscale>  2 0.46220235E+03</rscale>
<asrwt>0</asrwt>
<pdfrwt beam="1">  1       21 0.90816286E-02 0.46220235E+03</pdfrwt>
<pdfrwt beam="2">  1       21 0.12718115E+00 0.46220235E+03</pdfrwt>
<totfact> 0.39812188E+04</totfact>
</mgrwt>
</event>
<event>
 7    0  0.4725730E-002  0.4567063E+03  0.7546771E-02  0.1025741E+00
         21   -1    0    0  502  501  0.00000000000E+00  0.00000000000E+00  0.21716287944E+03  0.21716287944E+03  0.00000000000E+00 0. -1.
         21   -1    0    0  501  502 -0.00000000000E+00 -0.00000000000E+00 -0.24012002816E+03  0.24012002816E+03  0.00000000000E+00 0. -1.
      99926    2    1    2    0    0 -0.71054273576E-14  0.00000000000E+00 -0.22957148727E+02  0.45728290760E+03  0.45670628078E+03 0.  0.
      99925    2    3    3    0    0  0.60088344610E+02  0.96090078494E+02 -0.31758160175E+02  0.28825960079E+03  0.26313704484E+03 0.  0.
         25    1    4    4    0    0  0.62348662428E+02  0.47698140673E+02 -0.42531647583E+02  0.15368447376E+03  0.12509000000E+03 0.  0.
         25    1    4    4    0    0 -0.22603178180E+01  0.48391937821E+02  0.10773487408E+02  0.13457512702E+03  0.12509000000E+03 0.  0.
         25    1    3    3    0    0 -0.60088344610E+02 -0.96090078494E+02  0.88010114482E+01  0.16902330681E+03  0.12509000000E+03 0.  0.
<mgrwt>
<rscale>  2 0.45670628E+03</rscale>
<asrwt>0</asrwt>
<pdfrwt beam="1">  1       21 0.31935717E-01 0.45670628E+03</pdfrwt>
<pdfrwt beam="2">  1       21 0.35311769E-01 0.45670628E+03</pdfrwt>
<totfact> 0.67455855E+04</totfact>
</mgrwt>
</event>
<event>
 7    0  0.4725730E-002  0.4553178E+03  0.7546771E-02  0.1026148E+00
         21   -1    0    0  502  501  0.00000000000E+00  0.00000000000E+00  0.30912493753E+03  0.30912493753E+03  0.00000000000E+00 0. -1.
         21   -1    0    0  501  502 -0.00000000000E+00 -0.00000000000E+00 -0.16766222358E+03  0.16766222358E+03  0.00000000000E+00 0. -1.
      99926    2    1    2    0    0  0.00000000000E+00  0.00000000000E+00  0.14146271395E+03  0.47678716110E+03  0.45531779842E+03 0.  0.
      99925    2    3    3    0    0  0.41170162568E+02 -0.60864921668E+02 -0.15443825756E+01  0.27307643794E+03  0.26299968605E+03 0.  0.
         25    1    4    4    0    0  0.35351327882E+02 -0.23544387423E+02  0.36368679771E+02  0.13701913564E+03  0.12509000000E+03 0.  0.
         25    1    3    3    0    0 -0.41170162568E+02  0.60864921668E+02  0.14300709653E+03  0.20371072317E+03  0.12509000000E+03 0.  0.
         25    1    4    4    0    0  0.58188346856E+01 -0.37320534245E+02 -0.37913062346E+02  0.13605730230E+03  0.12509000000E+03 0.  0.
<mgrwt>
<rscale>  2 0.45531780E+03</rscale>
<asrwt>0</asrwt>
<pdfrwt beam="1">  1       21 0.45459550E-01 0.45531780E+03</pdfrwt>
<pdfrwt beam="2">  1       21 0.24656209E-01 0.45531780E+03</pdfrwt>
<totfact> 0.66766165E+04</totfact>
</mgrwt>
</event>
<event>
 7    0  0.4725730E-002  0.4556789E+03  0.7546771E-02  0.1026042E+00
         21   -1    0    0  502  501  0.00000000000E+00  0.00000000000E+00  0.10883887675E+04  0.10883887675E+04  0.00000000000E+00 0.  1.
         21   -1    0    0  501  502 -0.00000000000E+00 -0.00000000000E+00 -0.47695101618E+02  0.47695101618E+02  0.00000000000E+00 0.  1.
      99926    2    1    2    0    0  0.00000000000E+00  0.00000000000E+00  0.10406936659E+04  0.11360838691E+04  0.45567889073E+03 0.  0.
      99925    2    3    3    0    0 -0.32055295906E+02 -0.10542981889E+03  0.58344085943E+03  0.64939030452E+03  0.26298582176E+03 0.  0.
         25    1    3    3    0    0  0.32055295906E+02  0.10542981889E+03  0.45725280643E+03  0.48669356458E+03  0.12509000000E+03 0.  0.
         25    1    4    4    0    0 -0.39968885242E+02 -0.88948933826E+02  0.31563310590E+03  0.35324381135E+03  0.12509000000E+03 0.  0.
         25    1    4    4    0    0  0.79135893354E+01 -0.16480885067E+02  0.26780775353E+03  0.29614649317E+03  0.12509000000E+03 0.  0.
<mgrwt>
<rscale>  2 0.45567889E+03</rscale>
<asrwt>0</asrwt>
<pdfrwt beam="1">  1       21 0.16005716E+00 0.45567889E+03</pdfrwt>
<pdfrwt beam="2">  1       21 0.70139862E-02 0.45567889E+03</pdfrwt>
<totfact> 0.34069766E+04</totfact>
</mgrwt>
</event>
<event>
 7    0  0.4725730E-002  0.4621519E+03  0.7546771E-02  0.1024159E+00
         21   -1    0    0  502  501  0.00000000000E+00  0.00000000000E+00  0.17536991746E+03  0.17536991746E+03  0.00000000000E+00 0. -1.
         21   -1    0    0  501  502 -0.00000000000E+00 -0.00000000000E+00 -0.30447687229E+03  0.30447687229E+03  0.00000000000E+00 0. -1.
      99926    2    1    2    0    0  0.88817841970E-15  0.14210854715E-13 -0.12910695483E+03  0.47984678975E+03  0.46215185366E+03 0.  0.
      99925    2    3    3    0    0  0.55371705558E+01  0.11895936358E+03 -0.93930757095E+02  0.30358884403E+03  0.26298518713E+03 0.  0.
         25    1    4    4    0    0  0.16414843722E+02  0.96158484036E+02 -0.71575649833E+02  0.17403012066E+03  0.12509000000E+03 0.  0.
         25    1    4    4    0    0 -0.10877673167E+02  0.22800879545E+02 -0.22355107262E+02  0.12955872337E+03  0.12509000000E+03 0.  0.
         25    1    3    3    0    0 -0.55371705558E+01 -0.11895936358E+03 -0.35176197734E+02  0.17625794572E+03  0.12509000000E+03 0.  0.
<mgrwt>
<rscale>  2 0.46215185E+03</rscale>
<asrwt>0</asrwt>
<pdfrwt beam="1">  1       21 0.25789694E-01 0.46215185E+03</pdfrwt>
<pdfrwt beam="2">  1       21 0.44776010E-01 0.46215185E+03</pdfrwt>
<totfact> 0.63055669E+04</totfact>
</mgrwt>
</event>
<event>
 7    0  0.4725730E-002  0.4561732E+03  0.7546771E-02  0.1025897E+00
         21   -1    0    0  502  501  0.00000000000E+00  0.00000000000E+00  0.20050288510E+03  0.20050288510E+03  0.00000000000E+00 0. -1.
         21   -1    0    0  501  502 -0.00000000000E+00 -0.00000000000E+00 -0.25946508193E+03  0.25946508193E+03  0.00000000000E+00 0. -1.
      99926    2    1    2    0    0  0.00000000000E+00 -0.71054273576E-14 -0.58962196834E+02  0.45996796702E+03  0.45617320179E+03 0.  0.
      99925    2    3    3    0    0 -0.94770489476E+02  0.57498660521E+02 -0.71730761555E+01  0.28499036058E+03  0.26245096868E+03 0.  0.
         25    1    4    4    0    0 -0.67775654161E+02  0.62907238943E+02 -0.17244321473E+02  0.15651113293E+03  0.12509000000E+03 0.  0.
         25    1    4    4    0    0 -0.26994835314E+02 -0.54085784227E+01  0.10071245318E+02  0.12847922765E+03  0.12509000000E+03 0.  0.
         25    1    3    3    0    0  0.94770489476E+02 -0.57498660521E+02 -0.51789120678E+02  0.17497760645E+03  0.12509000000E+03 0.  0.
<mgrwt>
<rscale>  2 0.45617320E+03</rscale>
<asrwt>0</asrwt>
<pdfrwt beam="1">  1       21 0.29485719E-01 0.45617320E+03</pdfrwt>
<pdfrwt beam="2">  1       21 0.38156629E-01 0.45617320E+03</pdfrwt>
<totfact> 0.67548678E+04</totfact>
</mgrwt>
</event>
<event>
 7    0  0.4725730E-002  0.4289493E+03  0.7546771E-02  0.1034192E+00
         21   -1    0    0  502  501  0.00000000000E+00  0.00000000000E+00  0.11523825454E+03  0.11523825454E+03  0.00000000000E+00 0. -1.
         21   -1    0    0  501  502 -0.00000000000E+00 -0.00000000000E+00 -0.39916759926E+03  0.39916759926E+03  0.00000000000E+00 0. -1.
      99926    2    1    2    0    0  0.88817841970E-15  0.00000000000E+00 -0.28392934472E+03  0.51440585380E+03  0.42894930893E+03 0.  0.
      99925    2    3    3    0    0  0.40503611693E+01  0.53161947381E+02 -0.26502438422E+03  0.37711964289E+03  0.26294239435E+03 0.  0.
         25    1    4    4    0    0 -0.95938334245E+01 -0.20029795301E+01 -0.16444050933E+03  0.20684352244E+03  0.12509000000E+03 0.  0.
         25    1    3    3    0    0 -0.40503611693E+01 -0.53161947381E+02 -0.18904960502E+02  0.13728621091E+03  0.12509000000E+03 0.  0.
         25    1    4    4    0    0  0.13644194594E+02  0.55164926911E+02 -0.10058387488E+03  0.17027612044E+03  0.12509000000E+03 0.  0.
<mgrwt>
<rscale>  2 0.42894931E+03</rscale>
<asrwt>0</asrwt>
<pdfrwt beam="1">  1       21 0.16946802E-01 0.42894931E+03</pdfrwt>
<pdfrwt beam="2">  1       21 0.58701117E-01 0.42894931E+03</pdfrwt>
<totfact> 0.79445780E+04</totfact>
</mgrwt>
</event>
<event>
 7    0  0.4725730E-002  0.4551393E+03  0.7546771E-02  0.1026200E+00
         21   -1    0    0  502  501  0.00000000000E+00  0.00000000000E+00  0.40969420006E+02  0.40969420006E+02  0.00000000000E+00 0. -1.
         21   -1    0    0  501  502 -0.00000000000E+00 -0.00000000000E+00 -0.12640633474E+04  0.12640633474E+04  0.00000000000E+00 0. -1.
      99926    2    1    2    0    0  0.35527136788E-14 -0.71054273576E-14 -0.12230939274E+04  0.13050327674E+04  0.45513928503E+03 0.  0.
      99925    2    3    3    0    0  0.25002004164E+02 -0.58498311335E+02 -0.10384052551E+04  0.10730746539E+04  0.26297639901E+03 0.  0.
         25    1    3    3    0    0 -0.25002004164E+02  0.58498311335E+02 -0.18468867236E+03  0.23195811354E+03  0.12509000000E+03 0.  0.
         25    1    4    4    0    0  0.11676466848E+02 -0.30955410326E+02 -0.68084929135E+03  0.69303523931E+03  0.12509000000E+03 0.  0.
         25    1    4    4    0    0  0.13325537316E+02 -0.27542901009E+02 -0.35755596372E+03  0.38003941458E+03  0.12509000000E+03 0.  0.
<mgrwt>
<rscale>  2 0.45513929E+03</rscale>
<asrwt>0</asrwt>
<pdfrwt beam="1">  1       21 0.60249147E-02 0.45513929E+03</pdfrwt>
<pdfrwt beam="2">  1       21 0.18589167E+00 0.45513929E+03</pdfrwt>
<totfact> 0.28937510E+04</totfact>
</mgrwt>
</event>
<event>
 7    0  0.4725730E-002  0.4553872E+03  0.7546771E-02  0.1026128E+00
         21   -1    0    0  502  501  0.00000000000E+00  0.00000000000E+00  0.44742907169E+03  0.44742907169E+03  0.00000000000E+00 0. -1.
         21   -1    0    0  501  502 -0.00000000000E+00 -0.00000000000E+00 -0.11587171741E+03  0.11587171741E+03  0.00000000000E+00 0. -1.
      99926    2    1    2    0    0  0.00000000000E+00 -0.14210854715E-13  0.33155735428E+03  0.56330078910E+03  0.45538719769E+03 0.  0.
      99925    2    3    3    0    0  0.30465005327E+02  0.97735544373E+02  0.26884160159E+03  0.38991933992E+03  0.26321271192E+03 0.  0.
         25    1    3    3    0    0 -0.30465005327E+02 -0.97735544373E+02  0.62715752692E+02  0.17338144918E+03  0.12509000000E+03 0.  0.
         25    1    4    4    0    0 -0.22160827862E+02  0.51567320463E+02  0.10850105846E+03  0.17484358329E+03  0.12509000000E+03 0.  0.
         25    1    4    4    0    0  0.52625833189E+02  0.46168223910E+02  0.16034054313E+03  0.21507575663E+03  0.12509000000E+03 0.  0.
<mgrwt>
<rscale>  2 0.45538720E+03</rscale>
<asrwt>0</asrwt>
<pdfrwt beam="1">  1       21 0.65798392E-01 0.45538720E+03</pdfrwt>
<pdfrwt beam="2">  1       21 0.17039959E-01 0.45538720E+03</pdfrwt>
<totfact> 0.60809609E+04</totfact>
</mgrwt>
</event>
<event>
 7    0  0.4725730E-002  0.4687623E+03  0.7546771E-02  0.1022270E+00
         21   -1    0    0  502  501  0.00000000000E+00  0.00000000000E+00  0.37079719202E+03  0.37079719202E+03  0.00000000000E+00 0. -1.
         21   -1    0    0  501  502 -0.00000000000E+00 -0.00000000000E+00 -0.14815247447E+03  0.14815247447E+03  0.00000000000E+00 0. -1.
      99926    2    1    2    0    0  0.00000000000E+00  0.00000000000E+00  0.22264471755E+03  0.51894966650E+03  0.46876229168E+03 0.  0.
      99925    2    3    3    0    0  0.24622050786E+02 -0.69543472987E+02  0.25144677412E+03  0.37089695094E+03  0.26248148122E+03 0.  0.
         25    1    4    4    0    0 -0.45206967720E+00 -0.26916841699E+01  0.14666021019E+03  0.19278012056E+03  0.12509000000E+03 0.  0.
         25    1    4    4    0    0  0.25074120463E+02 -0.66851788817E+02  0.10478656394E+03  0.17811683039E+03  0.12509000000E+03 0.  0.
         25    1    3    3    0    0 -0.24622050786E+02  0.69543472987E+02 -0.28802056573E+02  0.14805271555E+03  0.12509000000E+03 0.  0.
<mgrwt>
<rscale>  2 0.46876229E+03</rscale>
<asrwt>0</asrwt>
<pdfrwt beam="1">  1       21 0.54528999E-01 0.46876229E+03</pdfrwt>
<pdfrwt beam="2">  1       21 0.21787128E-01 0.46876229E+03</pdfrwt>
<totfact> 0.57425962E+04</totfact>
</mgrwt>
</event>
<event>
 7    0  0.4725730E-002  0.4563048E+03  0.7546771E-02  0.1025858E+00
         21   -1    0    0  502  501  0.00000000000E+00  0.00000000000E+00  0.21340821687E+03  0.21340821687E+03  0.00000000000E+00 0.  1.
         21   -1    0    0  501  502 -0.00000000000E+00 -0.00000000000E+00 -0.24391521695E+03  0.24391521695E+03  0.00000000000E+00 0.  1.
      99926    2    1    2    0    0  0.00000000000E+00  0.00000000000E+00 -0.30507000076E+02  0.45732343382E+03  0.45630477322E+03 0.  0.
      99925    2    3    3    0    0 -0.19843340828E+02 -0.51649360258E+02 -0.11951222336E+03  0.29413381264E+03  0.26300211713E+03 0.  0.
         25    1    4    4    0    0 -0.14697703581E+02 -0.25692751537E+02 -0.15821088546E+02  0.12951430390E+03  0.12509000000E+03 0.  0.
         25    1    3    3    0    0  0.19843340828E+02  0.51649360258E+02  0.89005223280E+02  0.16318962118E+03  0.12509000000E+03 0.  0.
         25    1    4    4    0    0 -0.51456372468E+01 -0.25956608720E+02 -0.10369113481E+03  0.16461950874E+03  0.12509000000E+03 0.  0.
<mgrwt>
<rscale>  2 0.45630477E+03</rscale>
<asrwt>0</asrwt>
<pdfrwt beam="1">  1       21 0.31383561E-01 0.45630477E+03</pdfrwt>
<pdfrwt beam="2">  1       21 0.35869885E-01 0.45630477E+03</pdfrwt>
<totfact> 0.67668736E+04</totfact>
</mgrwt>
</event>
<event>
 7    0  0.4725730E-002  0.4244007E+03  0.7546771E-02  0.1035643E+00
         21   -1    0    0  502  501  0.00000000000E+00  0.00000000000E+00  0.32221679269E+03  0.32221679269E+03  0.00000000000E+00 0. -1.
         21   -1    0    0  501  502 -0.00000000000E+00 -0.00000000000E+00 -0.13974750841E+03  0.13974750841E+03  0.00000000000E+00 0. -1.
      99926    2    1    2    0    0  0.00000000000E+00 -0.17763568394E-14  0.18246928427E+03  0.46196430110E+03  0.42440072548E+03 0.  0.
      99925    2    3    3    0    0 -0.68128743610E+02 -0.63376418232E+01  0.67686143257E+02  0.27892231419E+03  0.26179104636E+03 0.  0.
         25    1    4    4    0    0 -0.15721865564E+02  0.28810678506E+02  0.19633753458E+02  0.13080605730E+03  0.12509000000E+03 0.  0.
         25    1    3    3    0    0  0.68128743610E+02  0.63376418232E+01  0.11478314102E+03  0.18304198691E+03  0.12509000000E+03 0.  0.
         25    1    4    4    0    0 -0.52406878046E+02 -0.35148320329E+02  0.48052389799E+02  0.14811625689E+03  0.12509000000E+03 0.  0.
<mgrwt>
<rscale>  2 0.42440073E+03</rscale>
<asrwt>0</asrwt>
<pdfrwt beam="1">  1       21 0.47384822E-01 0.42440073E+03</pdfrwt>
<pdfrwt beam="2">  1       21 0.20551104E-01 0.42440073E+03</pdfrwt>
<totfact> 0.87415563E+04</totfact>
</mgrwt>
</event>
<event>
 7    0  0.4725730E-002  0.4618360E+03  0.7546771E-02  0.1024250E+00
         21   -1    0    0  502  501  0.00000000000E+00  0.00000000000E+00  0.91862892824E+02  0.91862892824E+02  0.00000000000E+00 0.  1.
         21   -1    0    0  501  502 -0.00000000000E+00 -0.00000000000E+00 -0.58046418101E+03  0.58046418101E+03  0.00000000000E+00 0.  1.
      99926    2    1    2    0    0  0.00000000000E+00  0.00000000000E+00 -0.48860128818E+03  0.67232707383E+03  0.46183598321E+03 0.  0.
      99925    2    3    3    0    0 -0.61933209557E+02  0.10163835731E+03 -0.29086263909E+03  0.40981200842E+03  0.26301849613E+03 0.  0.
         25    1    4    4    0    0 -0.31398762458E+02  0.27506812261E+02 -0.18579811173E+03  0.22783975383E+03  0.12509000000E+03 0.  0.
         25    1    4    4    0    0 -0.30534447099E+02  0.74131545046E+02 -0.10506452737E+03  0.18197225459E+03  0.12509000000E+03 0.  0.
         25    1    3    3    0    0  0.61933209557E+02 -0.10163835731E+03 -0.19773864909E+03  0.26251506541E+03  0.12509000000E+03 0.  0.
<mgrwt>
<rscale>  2 0.46183598E+03</rscale>
<asrwt>0</asrwt>
<pdfrwt beam="1">  1       21 0.13509250E-01 0.46183598E+03</pdfrwt>
<pdfrwt beam="2">  1       21 0.85362375E-01 0.46183598E+03</pdfrwt>
<totfact> 0.51594525E+04</totfact>
</mgrwt>
</event>
<event>
 7    0  0.4725730E-002  0.4496979E+03  0.7546771E-02  0.1027812E+00
         21   -1    0    0  502  501  0.00000000000E+00  0.00000000000E+00  0.92101233472E+03  0.92101233472E+03  0.00000000000E+00 0.  1.
         21   -1    0    0  501  502 -0.00000000000E+00 -0.00000000000E+00 -0.54892924162E+02  0.54892924162E+02  0.00000000000E+00 0.  1.
      99926    2    1    2    0    0  0.00000000000E+00  0.88817841970E-15  0.86611941056E+03  0.97590525888E+03  0.44969794414E+03 0.  0.
      99925    2    3    3    0    0 -0.66536169927E+02  0.57556293360E+01  0.36185587546E+03  0.45208333293E+03  0.26263944131E+03 0.  0.
         25    1    4    4    0    0 -0.73385588739E+02  0.10708947545E+02  0.18564309698E+03  0.23581983324E+03  0.12509000000E+03 0.  0.
         25    1    3    3    0    0  0.66536169927E+02 -0.57556293360E+01  0.50426353510E+03  0.52382192595E+03  0.12509000000E+03 0.  0.
         25    1    4    4    0    0  0.68494188122E+01 -0.49533182086E+01  0.17621277848E+03  0.21626349969E+03  0.12509000000E+03 0.  0.
<mgrwt>
<rscale>  2 0.44969794E+03</rscale>
<asrwt>0</asrwt>
<pdfrwt beam="1">  1       21 0.13544298E+00 0.44969794E+03</pdfrwt>
<pdfrwt beam="2">  1       21 0.80724894E-02 0.44969794E+03</pdfrwt>
<totfact> 0.41815645E+04</totfact>
</mgrwt>
</event>
<event>
 7    0  0.4725730E-002  0.4625048E+03  0.7546771E-02  0.1024057E+00
         21   -1    0    0  502  501  0.00000000000E+00  0.00000000000E+00  0.14848390412E+03  0.14848390412E+03  0.00000000000E+00 0. -1.
         21   -1    0    0  501  502 -0.00000000000E+00 -0.00000000000E+00 -0.36015808359E+03  0.36015808359E+03  0.00000000000E+00 0. -1.
      99926    2    1    2    0    0  0.00000000000E+00  0.00000000000E+00 -0.21167417947E+03  0.50864198772E+03  0.46250482529E+03 0.  0.
      99925    2    3    3    0    0 -0.14251181859E+02 -0.10366847472E+03 -0.66916192976E+02  0.29057632882E+03  0.26269102983E+03 0.  0.
         25    1    3    3    0    0  0.14251181859E+02  0.10366847472E+03 -0.14475798649E+03  0.21806565889E+03  0.12509000000E+03 0.  0.
         25    1    4    4    0    0  0.24620503376E+01 -0.10320519526E+02 -0.35857048787E+02  0.13055960655E+03  0.12509000000E+03 0.  0.
         25    1    4    4    0    0 -0.16713232197E+02 -0.93347955193E+02 -0.31059144188E+02  0.16001672227E+03  0.12509000000E+03 0.  0.
<mgrwt>
<rscale>  2 0.46250483E+03</rscale>
<asrwt>0</asrwt>
<pdfrwt beam="1">  1       21 0.21835869E-01 0.46250483E+03</pdfrwt>
<pdfrwt beam="2">  1       21 0.52964423E-01 0.46250483E+03</pdfrwt>
<totfact> 0.60954963E+04</totfact>
</mgrwt>
</event>
<event>
 7    0  0.4725730E-002  0.4567265E+03  0.7546771E-02  0.1025735E+00
         21   -1    0    0  502  501  0.00000000000E+00  0.00000000000E+00  0.17821006775E+03  0.17821006775E+03  0.00000000000E+00 0. -1.
         21   -1    0    0  501  502 -0.00000000000E+00 -0.00000000000E+00 -0.29263094676E+03  0.29263094676E+03  0.00000000000E+00 0. -1.
      99926    2    1    2    0    0  0.00000000000E+00 -0.88817841970E-15 -0.11442087900E+03  0.47084101451E+03  0.45672653020E+03 0.  0.
      99925    2    3    3    0    0 -0.50839690338E+02  0.49712848999E+01 -0.17793391271E+03  0.32153997185E+03  0.26290319211E+03 0.  0.
         25    1    3    3    0    0  0.50839690338E+02 -0.49712848999E+01  0.63513033704E+02  0.14930104265E+03  0.12509000000E+03 0.  0.
         25    1    4    4    0    0 -0.33082902757E+02  0.30845372786E+02 -0.56904734150E+02  0.14467747698E+03  0.12509000000E+03 0.  0.
         25    1    4    4    0    0 -0.17756787581E+02 -0.25874087886E+02 -0.12102917856E+03  0.17686249487E+03  0.12509000000E+03 0.  0.
<mgrwt>
<rscale>  2 0.45672653E+03</rscale>
<asrwt>0</asrwt>
<pdfrwt beam="1">  1       21 0.26207363E-01 0.45672653E+03</pdfrwt>
<pdfrwt beam="2">  1       21 0.43033962E-01 0.45672653E+03</pdfrwt>
<totfact> 0.66458322E+04</totfact>
</mgrwt>
</event>
<event>
 7    0  0.4725730E-002  0.4544715E+03  0.7546771E-02  0.1026397E+00
         21   -1    0    0  502  501  0.00000000000E+00  0.00000000000E+00  0.11372792865E+04  0.11372792865E+04  0.00000000000E+00 0. -1.
         21   -1    0    0  501  502 -0.00000000000E+00 -0.00000000000E+00 -0.45403172471E+02  0.45403172471E+02  0.00000000000E+00 0. -1.
      99926    2    1    2    0    0  0.00000000000E+00  0.00000000000E+00  0.10918761140E+04  0.11826824590E+04  0.45447150667E+03 0.  0.
      99925    2    3    3    0    0 -0.25779953400E+02 -0.92162132166E+02  0.53274332275E+03  0.60179051464E+03  0.26301694047E+03 0.  0.
         25    1    4    4    0    0 -0.10905083424E+02 -0.82959941234E+02  0.33351828752E+03  0.36590057243E+03  0.12509000000E+03 0.  0.
         25    1    3    3    0    0  0.25779953400E+02  0.92162132166E+02  0.55913279130E+03  0.58089194435E+03  0.12509000000E+03 0.  0.
         25    1    4    4    0    0 -0.14874869976E+02 -0.92021909316E+01  0.19922503523E+03  0.23588994221E+03  0.12509000000E+03 0.  0.
<mgrwt>
<rscale>  2 0.45447151E+03</rscale>
<asrwt>0</asrwt>
<pdfrwt beam="1">  1       21 0.16724694E+00 0.45447151E+03</pdfrwt>
<pdfrwt beam="2">  1       21 0.66769378E-02 0.45447151E+03</pdfrwt>
<totfact> 0.32844731E+04</totfact>
</mgrwt>
</event>
<event>
 7    0  0.4725730E-002  0.4492387E+03  0.7546771E-02  0.1027949E+00
         21   -1    0    0  502  501  0.00000000000E+00  0.00000000000E+00  0.46889889049E+02  0.46889889049E+02  0.00000000000E+00 0. -1.
         21   -1    0    0  501  502 -0.00000000000E+00 -0.00000000000E+00 -0.10760072209E+04  0.10760072209E+04  0.00000000000E+00 0. -1.
      99926    2    1    2    0    0  0.00000000000E+00  0.71054273576E-14 -0.10291173318E+04  0.11228971099E+04  0.44923873031E+03 0.  0.
      99925    2    3    3    0    0 -0.94139151087E+01 -0.33596238990E+02 -0.90580926880E+03  0.94381691677E+03  0.26283571269E+03 0.  0.
         25    1    4    4    0    0  0.17871187151E+02  0.88906078341E+01 -0.36188051282E+03  0.38341027098E+03  0.12509000000E+03 0.  0.
         25    1    4    4    0    0 -0.27285102260E+02 -0.42486846824E+02 -0.54392875598E+03  0.56040664579E+03  0.12509000000E+03 0.  0.
         25    1    3    3    0    0  0.94139151087E+01  0.33596238990E+02 -0.12330806302E+03  0.17908019314E+03  0.12509000000E+03 0.  0.
<mgrwt>
<rscale>  2 0.44923873E+03</rscale>
<asrwt>0</asrwt>
<pdfrwt beam="1">  1       21 0.68955719E-02 0.44923873E+03</pdfrwt>
<pdfrwt beam="2">  1       21 0.15823636E+00 0.44923873E+03</pdfrwt>
<totfact> 0.36303606E+04</totfact>
</mgrwt>
</event>
<event>
 7    0  0.4725730E-002  0.4456545E+03  0.7546771E-02  0.1029026E+00
         21   -1    0    0  502  501  0.00000000000E+00  0.00000000000E+00  0.13502303845E+03  0.13502303845E+03  0.00000000000E+00 0. -1.
         21   -1    0    0  501  502 -0.00000000000E+00 -0.00000000000E+00 -0.36772965487E+03  0.36772965487E+03  0.00000000000E+00 0. -1.
      99926    2    1    2    0    0 -0.71054273576E-14  0.00000000000E+00 -0.23270661641E+03  0.50275269332E+03  0.44565446404E+03 0.  0.
      99925    2    3    3    0    0 -0.63200852362E+02 -0.30289367551E+02 -0.62449491625E+02  0.28016161047E+03  0.26396741361E+03 0.  0.
         25    1    4    4    0    0 -0.29267510815E+02 -0.31565845665E+02  0.81949416066E+01  0.13254303063E+03  0.12509000000E+03 0.  0.
         25    1    4    4    0    0 -0.33933341547E+02  0.12764781140E+01 -0.70644433232E+02  0.14761857983E+03  0.12509000000E+03 0.  0.
         25    1    3    3    0    0  0.63200852362E+02  0.30289367551E+02 -0.17025712479E+03  0.22259108286E+03  0.12509000000E+03 0.  0.
<mgrwt>
<rscale>  2 0.44565446E+03</rscale>
<asrwt>0</asrwt>
<pdfrwt beam="1">  1       21 0.19856329E-01 0.44565446E+03</pdfrwt>
<pdfrwt beam="2">  1       21 0.54077890E-01 0.44565446E+03</pdfrwt>
<totfact> 0.70137361E+04</totfact>
</mgrwt>
</event>
<event>
 7    0  0.4725730E-002  0.4543105E+03  0.7546771E-02  0.1026444E+00
         21   -1    0    0  502  501  0.00000000000E+00  0.00000000000E+00  0.15051089289E+04  0.15051089289E+04  0.00000000000E+00 0.  1.
         21   -1    0    0  501  502 -0.00000000000E+00 -0.00000000000E+00 -0.34282898574E+02  0.34282898574E+02  0.00000000000E+00 0.  1.
      99926    2    1    2    0    0  0.00000000000E+00  0.00000000000E+00  0.14708260303E+04  0.15393918274E+04  0.45431045223E+03 0.  0.
      99925    2    3    3    0    0  0.56066098017E+02 -0.96068998711E+02  0.98004524191E+03  0.10208496882E+04  0.26319716901E+03 0.  0.
         25    1    4    4    0    0  0.30869203780E+02 -0.88028456088E+01  0.50680547407E+03  0.52300066394E+03  0.12509000000E+03 0.  0.
         25    1    4    4    0    0  0.25196894238E+02 -0.87266153102E+02  0.47323976784E+03  0.49784902422E+03  0.12509000000E+03 0.  0.
         25    1    3    3    0    0 -0.56066098017E+02  0.96068998711E+02  0.49078078839E+03  0.51854213929E+03  0.12509000000E+03 0.  0.
<mgrwt>
<rscale>  2 0.45431045E+03</rscale>
<asrwt>0</asrwt>
<pdfrwt beam="1">  1       21 0.22133950E+00 0.45431045E+03</pdfrwt>
<pdfrwt beam="2">  1       21 0.50416037E-02 0.45431045E+03</pdfrwt>
<totfact> 0.22952691E+04</totfact>
</mgrwt>
</event>
<event>
 7    0  0.4725730E-002  0.4550207E+03  0.7546771E-02  0.1026235E+00
         21   -1    0    0  502  501  0.00000000000E+00  0.00000000000E+00  0.13981200196E+04  0.13981200196E+04  0.00000000000E+00 0.  1.
         21   -1    0    0  501  502 -0.00000000000E+00 -0.00000000000E+00 -0.37021831492E+02  0.37021831492E+02  0.00000000000E+00 0.  1.
      99926    2    1    2    0    0 -0.71054273576E-14  0.71054273576E-14  0.13610981881E+04  0.14351418511E+04  0.45502071941E+03 0.  0.
      99925    2    3    3    0    0  0.53294371077E+02 -0.59715930753E+02  0.59876993038E+03  0.65848352016E+03  0.26204738965E+03 0.  0.
         25    1    4    4    0    0  0.24588628545E+02 -0.24514129193E+02  0.20321865345E+03  0.24114491990E+03  0.12509000000E+03 0.  0.
         25    1    3    3    0    0 -0.53294371077E+02  0.59715930753E+02  0.76232825776E+03  0.77665833097E+03  0.12509000000E+03 0.  0.
         25    1    4    4    0    0  0.28705742532E+02 -0.35201801560E+02  0.39555127693E+03  0.41733860026E+03  0.12509000000E+03 0.  0.
<mgrwt>
<rscale>  2 0.45502072E+03</rscale>
<asrwt>0</asrwt>
<pdfrwt beam="1">  1       21 0.20560585E+00 0.45502072E+03</pdfrwt>
<pdfrwt beam="2">  1       21 0.54443879E-02 0.45502072E+03</pdfrwt>
<totfact> 0.25406334E+04</totfact>
</mgrwt>
</event>
<event>
 7    0  0.4725730E-002  0.4546816E+03  0.7546771E-02  0.1026335E+00
         21   -1    0    0  502  501  0.00000000000E+00  0.00000000000E+00  0.35013818716E+03  0.35013818716E+03  0.00000000000E+00 0. -1.
         21   -1    0    0  501  502 -0.00000000000E+00 -0.00000000000E+00 -0.14760984293E+03  0.14760984293E+03  0.00000000000E+00 0. -1.
      99926    2    1    2    0    0  0.00000000000E+00  0.00000000000E+00  0.20252834422E+03  0.49774803009E+03  0.45468161525E+03 0.  0.
      99925    2    3    3    0    0  0.92820090379E+02  0.60292102768E+02  0.15311866202E+03  0.32356556361E+03  0.26267592668E+03 0.  0.
         25    1    3    3    0    0 -0.92820090379E+02 -0.60292102768E+02  0.49409682205E+02  0.17418246648E+03  0.12509000000E+03 0.  0.
         25    1    4    4    0    0  0.23060605993E+02  0.46787638247E+02  0.42325532553E+02  0.14198532828E+03  0.12509000000E+03 0.  0.
         25    1    4    4    0    0  0.69759484386E+02  0.13504464521E+02  0.11079312947E+03  0.18158023532E+03  0.12509000000E+03 0.  0.
<mgrwt>
<rscale>  2 0.45468162E+03</rscale>
<asrwt>0</asrwt>
<pdfrwt beam="1">  1       21 0.51490910E-01 0.45468162E+03</pdfrwt>
<pdfrwt beam="2">  1       21 0.21707330E-01 0.45468162E+03</pdfrwt>
<totfact> 0.65594787E+04</totfact>
</mgrwt>
</event>
<event>
 7    0  0.4725730E-002  0.4652990E+03  0.7546771E-02  0.1023255E+00
         21   -1    0    0  502  501  0.00000000000E+00  0.00000000000E+00  0.14709564102E+03  0.14709564102E+03  0.00000000000E+00 0. -1.
         21   -1    0    0  501  502 -0.00000000000E+00 -0.00000000000E+00 -0.36796326360E+03  0.36796326360E+03  0.00000000000E+00 0. -1.
      99926    2    1    2    0    0  0.00000000000E+00  0.71054273576E-14 -0.22086762257E+03  0.51505890462E+03  0.46529900980E+03 0.  0.
      99925    2    3    3    0    0  0.10710540707E+03 -0.59190427267E+02 -0.14596469486E+03  0.32470914343E+03  0.26297387851E+03 0.  0.
         25    1    4    4    0    0  0.29809459823E+02 -0.62372178390E+02 -0.68858725767E+02  0.15864401894E+03  0.12509000000E+03 0.  0.
         25    1    4    4    0    0  0.77295947248E+02  0.31817511229E+01 -0.77105969089E+02  0.16606512449E+03  0.12509000000E+03 0.  0.
         25    1    3    3    0    0 -0.10710540707E+03  0.59190427267E+02 -0.74902927718E+02  0.19034976119E+03  0.12509000000E+03 0.  0.
<mgrwt>
<rscale>  2 0.46529901E+03</rscale>
<asrwt>0</asrwt>
<pdfrwt beam="1">  1       21 0.21631712E-01 0.46529901E+03</pdfrwt>
<pdfrwt beam="2">  1       21 0.54112244E-01 0.46529901E+03</pdfrwt>
<totfact> 0.59233467E+04</totfact>
</mgrwt>
</event>
<event>
 7    0  0.4725730E-002  0.4532262E+03  0.7546771E-02  0.1026764E+00
         21   -1    0    0  502  501  0.00000000000E+00  0.00000000000E+00  0.50897803917E+03  0.50897803917E+03  0.00000000000E+00 0.  1.
         21   -1    0    0  501  502 -0.00000000000E+00 -0.00000000000E+00 -0.10089531772E+03  0.10089531772E+03  0.00000000000E+00 0.  1.
      99926    2    1    2    0    0  0.00000000000E+00  0.00000000000E+00  0.40808272145E+03  0.60987335689E+03  0.45322621713E+03 0.  0.
      99925    2    3    3    0    0  0.10874162916E+03 -0.16764647028E+02  0.23327901435E+03  0.36839946716E+03  0.26304614342E+03 0.  0.
         25    1    4    4    0    0  0.95668933907E+02 -0.23123100890E+02  0.13285180773E+03  0.20732663511E+03  0.12509000000E+03 0.  0.
         25    1    4    4    0    0  0.13072695250E+02  0.63584538620E+01  0.10042720662E+03  0.16107283205E+03  0.12509000000E+03 0.  0.
         25    1    3    3    0    0 -0.10874162916E+03  0.16764647028E+02  0.17480370711E+03  0.24147388973E+03  0.12509000000E+03 0.  0.
<mgrwt>
<rscale>  2 0.45322622E+03</rscale>
<asrwt>0</asrwt>
<pdfrwt beam="1">  1       21 0.74849711E-01 0.45322622E+03</pdfrwt>
<pdfrwt beam="2">  1       21 0.14837547E-01 0.45322622E+03</pdfrwt>
<totfact> 0.58895469E+04</totfact>
</mgrwt>
</event>
<event>
 7    0  0.4725730E-002  0.4536584E+03  0.7546771E-02  0.1026637E+00
         21   -1    0    0  502  501  0.00000000000E+00  0.00000000000E+00  0.36075646124E+03  0.36075646124E+03  0.00000000000E+00 0. -1.
         21   -1    0    0  501  502 -0.00000000000E+00 -0.00000000000E+00 -0.14262109889E+03  0.14262109889E+03  0.00000000000E+00 0. -1.
      99926    2    1    2    0    0  0.00000000000E+00  0.14210854715E-13  0.21813536235E+03  0.50337756013E+03  0.45365838660E+03 0.  0.
      99925    2    3    3    0    0 -0.70909205349E+02  0.82901003307E+02  0.11018991909E+03  0.30538660435E+03  0.26309402899E+03 0.  0.
         25    1    4    4    0    0 -0.49565337831E+02  0.44432738584E+02  0.97876075009E+02  0.17221563556E+03  0.12509000000E+03 0.  0.
         25    1    3    3    0    0  0.70909205349E+02 -0.82901003307E+02  0.10794544326E+03  0.19799095578E+03  0.12509000000E+03 0.  0.
         25    1    4    4    0    0 -0.21343867519E+02  0.38468264723E+02  0.12313844086E+02  0.13317096879E+03  0.12509000000E+03 0.  0.
<mgrwt>
<rscale>  2 0.45365839E+03</rscale>
<asrwt>0</asrwt>
<pdfrwt beam="1">  1       21 0.53052421E-01 0.45365839E+03</pdfrwt>
<pdfrwt beam="2">  1       21 0.20973691E-01 0.45365839E+03</pdfrwt>
<totfact> 0.65731210E+04</totfact>
</mgrwt>
</event>
<event>
 7    0  0.4725730E-002  0.4543729E+03  0.7546771E-02  0.1026426E+00
         21   -1    0    0  502  501  0.00000000000E+00  0.00000000000E+00  0.15208465170E+02  0.15208465170E+02  0.00000000000E+00 0.  1.
         21   -1    0    0  501  502 -0.00000000000E+00 -0.00000000000E+00 -0.33937476313E+04  0.33937476313E+04  0.00000000000E+00 0.  1.
      99926    2    1    2    0    0 -0.17763568394E-14  0.00000000000E+00 -0.33785391661E+04  0.34089560965E+04  0.45437294218E+03 0.  0.
      99925    2    3    3    0    0 -0.77899784614E+01 -0.63922171705E+02 -0.14355238408E+04  0.14608537403E+04  0.26309356711E+03 0.  0.
         25    1    4    4    0    0 -0.28116486766E+02 -0.65801769724E+02 -0.76784725138E+03  0.78125368433E+03  0.12509000000E+03 0.  0.
         25    1    4    4    0    0  0.20326508304E+02  0.18795980188E+01 -0.66767658946E+03  0.67960005595E+03  0.12509000000E+03 0.  0.
         25    1    3    3    0    0  0.77899784614E+01  0.63922171705E+02 -0.19430153253E+04  0.19481023562E+04  0.12509000000E+03 0.  0.
<mgrwt>
<rscale>  2 0.45437294E+03</rscale>
<asrwt>0</asrwt>
<pdfrwt beam="1">  1       21 0.22365363E-02 0.45437294E+03</pdfrwt>
<pdfrwt beam="2">  1       21 0.49908114E+00 0.45437294E+03</pdfrwt>
<totfact> 0.15469497E+03</totfact>
</mgrwt>
</event>
<event>
 7    0  0.4725730E-002  0.4504608E+03  0.7546771E-02  0.1027585E+00
         21   -1    0    0  502  501  0.00000000000E+00  0.00000000000E+00  0.23239237295E+03  0.23239237295E+03  0.00000000000E+00 0.  1.
         21   -1    0    0  501  502 -0.00000000000E+00 -0.00000000000E+00 -0.21828916442E+03  0.21828916442E+03  0.00000000000E+00 0.  1.
      99926    2    1    2    0    0  0.00000000000E+00  0.00000000000E+00  0.14103208536E+02  0.45068153737E+03  0.45046081698E+03 0.  0.
      99925    2    3    3    0    0 -0.22495072615E+02 -0.96537268818E+02  0.54592162235E+02  0.28602329726E+03  0.26268526764E+03 0.  0.
         25    1    4    4    0    0 -0.20210580454E+02 -0.19328411164E+02 -0.27813817233E+01  0.12820803105E+03  0.12509000000E+03 0.  0.
         25    1    3    3    0    0  0.22495072615E+02  0.96537268818E+02 -0.40488953699E+02  0.16465824010E+03  0.12509000000E+03 0.  0.
         25    1    4    4    0    0 -0.22844921602E+01 -0.77208857654E+02  0.57373543958E+02  0.15781526622E+03  0.12509000000E+03 0.  0.
<mgrwt>
<rscale>  2 0.45046082E+03</rscale>
<asrwt>0</asrwt>
<pdfrwt beam="1">  1       21 0.34175349E-01 0.45046082E+03</pdfrwt>
<pdfrwt beam="2">  1       21 0.32101348E-01 0.45046082E+03</pdfrwt>
<totfact> 0.71414992E+04</totfact>
</mgrwt>
</event>
<event>
 7    0  0.4725730E-002  0.4574703E+03  0.7546771E-02  0.1025517E+00
         21   -1    0    0  502  501  0.00000000000E+00  0.00000000000E+00  0.19164504213E+04  0.19164504213E+04  0.00000000000E+00 0.  1.
         21   -1    0    0  501  502 -0.00000000000E+00 -0.00000000000E+00 -0.27300356472E+02  0.27300356472E+02  0.00000000000E+00 0.  1.
      99926    2    1    2    0    0  0.00000000000E+00 -0.71054273576E-14  0.18891500648E+04  0.19437507778E+04  0.45747034729E+03 0.  0.
      99925    2    3    3    0    0  0.10048374841E+03  0.53072749422E+02  0.11084363513E+04  0.11449547393E+04  0.26339420993E+03 0.  0.
         25    1    4    4    0    0  0.42123464876E+02  0.38713770293E+02  0.70562729989E+03  0.71890926880E+03  0.12509000000E+03 0.  0.
         25    1    3    3    0    0 -0.10048374841E+03 -0.53072749422E+02  0.78071371356E+03  0.79879603846E+03  0.12509000000E+03 0.  0.
         25    1    4    4    0    0  0.58360283538E+02  0.14358979129E+02  0.40280905139E+03  0.42604547052E+03  0.12509000000E+03 0.  0.
<mgrwt>
<rscale>  2 0.45747035E+03</rscale>
<asrwt>0</asrwt>
<pdfrwt beam="1">  1       21 0.28183085E+00 0.45747035E+03</pdfrwt>
<pdfrwt beam="2">  1       21 0.40147596E-02 0.45747035E+03</pdfrwt>
<totfact> 0.14372578E+04</totfact>
</mgrwt>
</event>
<event>
 7    0  0.4725730E-002  0.4539253E+03  0.7546771E-02  0.1026558E+00
         21   -1    0    0  502  501  0.00000000000E+00  0.00000000000E+00  0.71818600820E+02  0.71818600820E+02  0.00000000000E+00 0.  1.
         21   -1    0    0  501  502 -0.00000000000E+00 -0.00000000000E+00 -0.71725223959E+03  0.71725223959E+03  0.00000000000E+00 0.  1.
      99926    2    1    2    0    0  0.00000000000E+00  0.00000000000E+00 -0.64543363877E+03  0.78907084041E+03  0.45392533431E+03 0.  0.
      99925    2    3    3    0    0  0.73873479220E+02  0.65703259571E+02 -0.31444344625E+03  0.42167973424E+03  0.26299222066E+03 0.  0.
         25    1    4    4    0    0  0.75417321158E+02  0.51643809059E+02 -0.18024656515E+03  0.23767874893E+03  0.12509000000E+03 0.  0.
         25    1    4    4    0    0 -0.15438419379E+01  0.14059450512E+02 -0.13419688110E+03  0.18400098531E+03  0.12509000000E+03 0.  0.
         25    1    3    3    0    0 -0.73873479220E+02 -0.65703259571E+02 -0.33099019252E+03  0.36739110617E+03  0.12509000000E+03 0.  0.
<mgrwt>
<rscale>  2 0.45392533E+03</rscale>
<asrwt>0</asrwt>
<pdfrwt beam="1">  1       21 0.10561559E-01 0.45392533E+03</pdfrwt>
<pdfrwt beam="2">  1       21 0.10547827E+00 0.45392533E+03</pdfrwt>
<totfact> 0.48707532E+04</totfact>
</mgrwt>
</event>
<event>
 7    0  0.4725730E-002  0.4580795E+03  0.7546771E-02  0.1025340E+00
         21   -1    0    0  502  501  0.00000000000E+00  0.00000000000E+00  0.84708955665E+03  0.84708955665E+03  0.00000000000E+00 0. -1.
         21   -1    0    0  501  502 -0.00000000000E+00 -0.00000000000E+00 -0.61928757258E+02  0.61928757258E+02  0.00000000000E+00 0. -1.
      99926    2    1    2    0    0  0.00000000000E+00  0.00000000000E+00  0.78516079940E+03  0.90901831391E+03  0.45807948450E+03 0.  0.
      99925    2    3    3    0    0 -0.83616038291E+02 -0.44388666817E+02  0.35969023456E+03  0.45554868401E+03  0.26303144881E+03 0.  0.
         25    1    3    3    0    0  0.83616038291E+02  0.44388666817E+02  0.42547056484E+03  0.45346962990E+03  0.12509000000E+03 0.  0.
         25    1    4    4    0    0 -0.63066423920E+02  0.92413604215E+01  0.20525405270E+03  0.24867551310E+03  0.12509000000E+03 0.  0.
         25    1    4    4    0    0 -0.20549614372E+02 -0.53630027239E+02  0.15443618186E+03  0.20687317090E+03  0.12509000000E+03 0.  0.
<mgrwt>
<rscale>  2 0.45807948E+03</rscale>
<asrwt>0</asrwt>
<pdfrwt beam="1">  1       21 0.12457199E+00 0.45807948E+03</pdfrwt>
<pdfrwt beam="2">  1       21 0.91071707E-02 0.45807948E+03</pdfrwt>
<totfact> 0.41828560E+04</totfact>
</mgrwt>
</event>
<event>
 7    0  0.4725730E-002  0.4526548E+03  0.7546771E-02  0.1026933E+00
         21   -1    0    0  502  501  0.00000000000E+00  0.00000000000E+00  0.16063524852E+03  0.16063524852E+03  0.00000000000E+00 0.  1.
         21   -1    0    0  501  502 -0.00000000000E+00 -0.00000000000E+00 -0.31888456063E+03  0.31888456063E+03  0.00000000000E+00 0.  1.
      99926    2    1    2    0    0 -0.71054273576E-14  0.35527136788E-14 -0.15824931211E+03  0.47951980915E+03  0.45265483825E+03 0.  0.
      99925    2    3    3    0    0 -0.54841830445E+02  0.24649162339E+02 -0.19855233194E+03  0.33499628484E+03  0.26302903788E+03 0.  0.
         25    1    4    4    0    0 -0.19144314244E+02 -0.22076535709E+02 -0.70283547409E+02  0.14642801417E+03  0.12509000000E+03 0.  0.
         25    1    3    3    0    0  0.54841830445E+02 -0.24649162339E+02  0.40303019833E+02  0.14452352431E+03  0.12509000000E+03 0.  0.
         25    1    4    4    0    0 -0.35697516201E+02  0.46725698048E+02 -0.12826878453E+03  0.18856827068E+03  0.12509000000E+03 0.  0.
<mgrwt>
<rscale>  2 0.45265484E+03</rscale>
<asrwt>0</asrwt>
<pdfrwt beam="1">  1       21 0.23622831E-01 0.45265484E+03</pdfrwt>
<pdfrwt beam="2">  1       21 0.46894788E-01 0.45265484E+03</pdfrwt>
<totfact> 0.67991956E+04</totfact>
</mgrwt>
</event>
<event>
 7    0  0.4725730E-002  0.4453503E+03  0.7546771E-02  0.1029118E+00
         21   -1    0    0  502  501  0.00000000000E+00  0.00000000000E+00  0.71197244135E+02  0.71197244135E+02  0.00000000000E+00 0. -1.
         21   -1    0    0  501  502 -0.00000000000E+00 -0.00000000000E+00 -0.69643444012E+03  0.69643444012E+03  0.00000000000E+00 0. -1.
      99926    2    1    2    0    0 -0.35527136788E-14  0.00000000000E+00 -0.62523719599E+03  0.76763168426E+03  0.44535025702E+03 0.  0.
      99925    2    3    3    0    0 -0.25719300026E+02  0.66449392527E+02 -0.52731018766E+03  0.59352191652E+03  0.26293578535E+03 0.  0.
         25    1    4    4    0    0  0.20750549857E+02  0.44278518645E+02 -0.30546434145E+03  0.33368719563E+03  0.12509000000E+03 0.  0.
         25    1    3    3    0    0  0.25719300026E+02 -0.66449392527E+02 -0.97927008322E+02  0.17410976773E+03  0.12509000000E+03 0.  0.
         25    1    4    4    0    0 -0.46469849883E+02  0.22170873882E+02 -0.22184584621E+03  0.25983472089E+03  0.12509000000E+03 0.  0.
<mgrwt>
<rscale>  2 0.44535026E+03</rscale>
<asrwt>0</asrwt>
<pdfrwt beam="1">  1       21 0.10470183E-01 0.44535026E+03</pdfrwt>
<pdfrwt beam="2">  1       21 0.10241683E+00 0.44535026E+03</pdfrwt>
<totfact> 0.53294258E+04</totfact>
</mgrwt>
</event>
<event>
 7    0  0.4725730E-002  0.4014821E+03  0.7546771E-02  0.1043268E+00
         21   -1    0    0  502  501  0.00000000000E+00  0.00000000000E+00  0.87165373810E+03  0.87165373810E+03  0.00000000000E+00 0. -1.
         21   -1    0    0  501  502 -0.00000000000E+00 -0.00000000000E+00 -0.46230473162E+02  0.46230473162E+02  0.00000000000E+00 0. -1.
      99926    2    1    2    0    0 -0.35527136788E-14  0.17763568394E-14  0.82542326494E+03  0.91788421126E+03  0.40148207804E+03 0.  0.
      99925    2    3    3    0    0  0.21605226914E+01 -0.15676805060E+02  0.44641264714E+03  0.51845087943E+03  0.26316654951E+03 0.  0.
         25    1    4    4    0    0  0.32734723102E+02 -0.11251719759E+02  0.17372964096E+03  0.21685861648E+03  0.12509000000E+03 0.  0.
         25    1    3    3    0    0 -0.21605226914E+01  0.15676805060E+02  0.37901061780E+03  0.39943333184E+03  0.12509000000E+03 0.  0.
         25    1    4    4    0    0 -0.30574200410E+02 -0.44250853010E+01  0.27268300618E+03  0.30159226295E+03  0.12509000000E+03 0.  0.
<mgrwt>
<rscale>  2 0.40148208E+03</rscale>
<asrwt>0</asrwt>
<pdfrwt beam="1">  1       21 0.12818436E+00 0.40148208E+03</pdfrwt>
<pdfrwt beam="2">  1       21 0.67985996E-02 0.40148208E+03</pdfrwt>
<totfact> 0.66103961E+04</totfact>
</mgrwt>
</event>
<event>
 7    0  0.4725730E-002  0.4087469E+03  0.7546771E-02  0.1040792E+00
         21   -1    0    0  502  501  0.00000000000E+00  0.00000000000E+00  0.14190132449E+03  0.14190132449E+03  0.00000000000E+00 0. -1.
         21   -1    0    0  501  502 -0.00000000000E+00 -0.00000000000E+00 -0.29434901549E+03  0.29434901549E+03  0.00000000000E+00 0. -1.
      99926    2    1    2    0    0 -0.35527136788E-14  0.71054273576E-14 -0.15244769101E+03  0.43625033998E+03  0.40874693961E+03 0.  0.
      99925    2    3    3    0    0 -0.15149112508E+02  0.58416008471E+02 -0.93955978923E+02  0.28554959632E+03  0.26280966560E+03 0.  0.
         25    1    3    3    0    0  0.15149112508E+02 -0.58416008471E+02 -0.58491712083E+02  0.15070074365E+03  0.12509000000E+03 0.  0.
         25    1    4    4    0    0  0.52363943965E+01  0.28803933456E+02 -0.62878988628E+01  0.12862399535E+03  0.12509000000E+03 0.  0.
         25    1    4    4    0    0 -0.20385506905E+02  0.29612075015E+02 -0.87668080060E+02  0.15692560097E+03  0.12509000000E+03 0.  0.
<mgrwt>
<rscale>  2 0.40874694E+03</rscale>
<asrwt>0</asrwt>
<pdfrwt beam="1">  1       21 0.20867842E-01 0.40874694E+03</pdfrwt>
<pdfrwt beam="2">  1       21 0.43286619E-01 0.40874694E+03</pdfrwt>
<totfact> 0.10292649E+05</totfact>
</mgrwt>
</event>
<event>
 7    0  0.4725730E-002  0.4317639E+03  0.7546771E-02  0.1033304E+00
         21   -1    0    0  502  501  0.00000000000E+00  0.00000000000E+00  0.58080780091E+03  0.58080780091E+03  0.00000000000E+00 0. -1.
         21   -1    0    0  501  502 -0.00000000000E+00 -0.00000000000E+00 -0.80241714284E+02  0.80241714284E+02  0.00000000000E+00 0. -1.
      99926    2    1    2    0    0  0.00000000000E+00  0.00000000000E+00  0.50056608663E+03  0.66104951519E+03  0.43176388739E+03 0.  0.
      99925    2    3    3    0    0  0.41943365447E+02  0.78979972588E+02  0.33146545689E+03  0.43248964765E+03  0.26302255462E+03 0.  0.
         25    1    3    3    0    0 -0.41943365447E+02 -0.78979972588E+02  0.16910062974E+03  0.22855986755E+03  0.12509000000E+03 0.  0.
         25    1    4    4    0    0  0.40394668663E+02  0.17114741978E+02  0.11811963202E+03  0.17755111720E+03  0.12509000000E+03 0.  0.
         25    1    4    4    0    0  0.15486967843E+01  0.61865230610E+02  0.21334582486E+03  0.25493853045E+03  0.12509000000E+03 0.  0.
<mgrwt>
<rscale>  2 0.43176389E+03</rscale>
<asrwt>0</asrwt>
<pdfrwt beam="1">  1       21 0.85412910E-01 0.43176389E+03</pdfrwt>
<pdfrwt beam="2">  1       21 0.11800252E-01 0.43176389E+03</pdfrwt>
<totfact> 0.66419830E+04</totfact>
</mgrwt>
</event>
<event>
 7    0  0.4725730E-002  0.4599733E+03  0.7546771E-02  0.1024789E+00
         21   -1    0    0  502  501  0.00000000000E+00  0.00000000000E+00  0.13466905468E+03  0.13466905468E+03  0.00000000000E+00 0. -1.
         21   -1    0    0  501  502 -0.00000000000E+00 -0.00000000000E+00 -0.39276924070E+03  0.39276924070E+03  0.00000000000E+00 0. -1.
      99926    2    1    2    0    0  0.00000000000E+00  0.00000000000E+00 -0.25810018602E+03  0.52743829538E+03  0.45997331380E+03 0.  0.
      99925    2    3    3    0    0  0.10935067100E+03  0.38526078653E+02 -0.18486427625E+03  0.34182354768E+03  0.26310969030E+03 0.  0.
         25    1    4    4    0    0  0.49130423151E+02  0.63103927039E+01 -0.44294497218E+02  0.14164437906E+03  0.12509000000E+03 0.  0.
         25    1    4    4    0    0  0.60220247851E+02  0.32215685949E+02 -0.14056977903E+03  0.20017916862E+03  0.12509000000E+03 0.  0.
         25    1    3    3    0    0 -0.10935067100E+03 -0.38526078653E+02 -0.73235909774E+02  0.18561474770E+03  0.12509000000E+03 0.  0.
<mgrwt>
<rscale>  2 0.45997331E+03</rscale>
<asrwt>0</asrwt>
<pdfrwt beam="1">  1       21 0.19804272E-01 0.45997331E+03</pdfrwt>
<pdfrwt beam="2">  1       21 0.57760183E-01 0.45997331E+03</pdfrwt>
<totfact> 0.60941935E+04</totfact>
</mgrwt>
</event>
<event>
 7    0  0.4725730E-002  0.4284113E+03  0.7546771E-02  0.1034363E+00
         21   -1    0    0  502  501  0.00000000000E+00  0.00000000000E+00  0.22698648098E+03  0.22698648098E+03  0.00000000000E+00 0. -1.
         21   -1    0    0  501  502 -0.00000000000E+00 -0.00000000000E+00 -0.20214442006E+03  0.20214442006E+03  0.00000000000E+00 0. -1.
      99926    2    1    2    0    0  0.00000000000E+00  0.00000000000E+00  0.24842060921E+02  0.42913090105E+03  0.42841125363E+03 0.  0.
      99925    2    3    3    0    0  0.22109539101E+02  0.82521383907E+02  0.24925548563E+02  0.27765111496E+03  0.26300237289E+03 0.  0.
         25    1    4    4    0    0 -0.25562676457E+02  0.23852577346E+02  0.19958386532E+02  0.13140867995E+03  0.12509000000E+03 0.  0.
         25    1    3    3    0    0 -0.22109539101E+02 -0.82521383907E+02 -0.83487641356E-01  0.15147978608E+03  0.12509000000E+03 0.  0.
         25    1    4    4    0    0  0.47672215558E+02  0.58668806561E+02  0.49671620303E+01  0.14624243501E+03  0.12509000000E+03 0.  0.
<mgrwt>
<rscale>  2 0.42841125E+03</rscale>
<asrwt>0</asrwt>
<pdfrwt beam="1">  1       21 0.33380365E-01 0.42841125E+03</pdfrwt>
<pdfrwt beam="2">  1       21 0.29727120E-01 0.42841125E+03</pdfrwt>
<totfact> 0.87655492E+04</totfact>
</mgrwt>
</event>
<event>
 7    0  0.4725730E-002  0.4501194E+03  0.7546771E-02  0.1027686E+00
         21   -1    0    0  502  501  0.00000000000E+00  0.00000000000E+00  0.22298930370E+02  0.22298930370E+02  0.00000000000E+00 0. -1.
         21   -1    0    0  501  502 -0.00000000000E+00 -0.00000000000E+00 -0.22714933918E+04  0.22714933918E+04  0.00000000000E+00 0. -1.
      99926    2    1    2    0    0  0.00000000000E+00  0.00000000000E+00 -0.22491944614E+04  0.22937923222E+04  0.45011941962E+03 0.  0.
      99925    2    3    3    0    0 -0.53850293238E+02  0.94048203926E+02 -0.14845333436E+04  0.15114247282E+04  0.26233669637E+03 0.  0.
         25    1    4    4    0    0 -0.45959112644E+02  0.12286208555E+02 -0.66292313233E+03  0.67629710811E+03  0.12509000000E+03 0.  0.
         25    1    3    3    0    0  0.53850293238E+02 -0.94048203926E+02 -0.76466111786E+03  0.78236759392E+03  0.12509000000E+03 0.  0.
         25    1    4    4    0    0 -0.78911805940E+01  0.81761995371E+02 -0.82161021123E+03  0.83512762014E+03  0.12509000000E+03 0.  0.
<mgrwt>
<rscale>  2 0.45011942E+03</rscale>
<asrwt>0</asrwt>
<pdfrwt beam="1">  1       21 0.32792541E-02 0.45011942E+03</pdfrwt>
<pdfrwt beam="2">  1       21 0.33404319E+00 0.45011942E+03</pdfrwt>
<totfact> 0.98468701E+03</totfact>
</mgrwt>
</event>
<event>
 7    0  0.4725730E-002  0.4494017E+03  0.7546771E-02  0.1027901E+00
         21   -1    0    0  502  501  0.00000000000E+00  0.00000000000E+00  0.52124220423E+03  0.52124220423E+03  0.00000000000E+00 0.  1.
         21   -1    0    0  501  502 -0.00000000000E+00 -0.00000000000E+00 -0.96865664022E+02  0.96865664022E+02  0.00000000000E+00 0.  1.
      99926    2    1    2    0    0  0.35527136788E-14  0.00000000000E+00  0.42437654021E+03  0.61810786826E+03  0.44940170106E+03 0.  0.
      99925    2    3    3    0    0 -0.23301160604E+02  0.10409503926E+03  0.28887542939E+03  0.40506613427E+03  0.26315553983E+03 0.  0.
         25    1    4    4    0    0  0.23889423589E+02  0.70471023064E+02  0.13579072340E+03  0.19905652040E+03  0.12509000000E+03 0.  0.
         25    1    3    3    0    0  0.23301160604E+02 -0.10409503926E+03  0.13550111083E+03  0.21304173399E+03  0.12509000000E+03 0.  0.
         25    1    4    4    0    0 -0.47190584192E+02  0.33624016198E+02  0.15308470598E+03  0.20600961387E+03  0.12509000000E+03 0.  0.
<mgrwt>
<rscale>  2 0.44940170E+03</rscale>
<asrwt>0</asrwt>
<pdfrwt beam="1">  1       21 0.76653264E-01 0.44940170E+03</pdfrwt>
<pdfrwt beam="2">  1       21 0.14244951E-01 0.44940170E+03</pdfrwt>
<totfact> 0.60194580E+04</totfact>
</mgrwt>
</event>
<event>
 7    0  0.4725730E-002  0.4614514E+03  0.7546771E-02  0.1024361E+00
         21   -1    0    0  502  501  0.00000000000E+00  0.00000000000E+00  0.40340552108E+03  0.40340552108E+03  0.00000000000E+00 0. -1.
         21   -1    0    0  501  502 -0.00000000000E+00 -0.00000000000E+00 -0.13196234540E+03  0.13196234540E+03  0.00000000000E+00 0. -1.
      99926    2    1    2    0    0  0.00000000000E+00  0.00000000000E+00  0.27144317567E+03  0.53536786648E+03  0.46145135696E+03 0.  0.
      99925    2    3    3    0    0  0.28401154025E+02 -0.51112279592E+02  0.29031119409E+03  0.39600287484E+03  0.26290415895E+03 0.  0.
         25    1    3    3    0    0 -0.28401154025E+02  0.51112279592E+02 -0.18868018413E+02  0.13936499164E+03  0.12509000000E+03 0.  0.
         25    1    4    4    0    0  0.40096879635E+00  0.30179722835E+01  0.99611150507E+02  0.15993485654E+03  0.12509000000E+03 0.  0.
         25    1    4    4    0    0  0.28000185229E+02 -0.54130251876E+02  0.19070004358E+03  0.23606801830E+03  0.12509000000E+03 0.  0.
<mgrwt>
<rscale>  2 0.46145136E+03</rscale>
<asrwt>0</asrwt>
<pdfrwt beam="1">  1       21 0.59324341E-01 0.46145136E+03</pdfrwt>
<pdfrwt beam="2">  1       21 0.19406227E-01 0.46145136E+03</pdfrwt>
<totfact> 0.59731512E+04</totfact>
</mgrwt>
</event>
<event>
 7    0  0.4725730E-002  0.4561069E+03  0.7546771E-02  0.1025916E+00
         21   -1    0    0  502  501  0.00000000000E+00  0.00000000000E+00  0.40542454605E+02  0.40542454605E+02  0.00000000000E+00 0.  1.
         21   -1    0    0  501  502 -0.00000000000E+00 -0.00000000000E+00 -0.12828129230E+04  0.12828129230E+04  0.00000000000E+00 0.  1.
      99926    2    1    2    0    0  0.00000000000E+00  0.00000000000E+00 -0.12422704684E+04  0.13233553776E+04  0.45610693788E+03 0.  0.
      99925    2    3    3    0    0 -0.43416902949E+02  0.45057132652E+02 -0.50410896741E+03  0.57205977513E+03  0.26308052499E+03 0.  0.
         25    1    3    3    0    0  0.43416902949E+02 -0.45057132652E+02 -0.73816150094E+03  0.75129560243E+03  0.12509000000E+03 0.  0.
         25    1    4    4    0    0 -0.17818343655E+01  0.48067336830E+01 -0.30687925892E+03  0.33143425786E+03  0.12509000000E+03 0.  0.
         25    1    4    4    0    0 -0.41635068584E+02  0.40250398969E+02 -0.19722970849E+03  0.24062551728E+03  0.12509000000E+03 0.  0.
<mgrwt>
<rscale>  2 0.45610694E+03</rscale>
<asrwt>0</asrwt>
<pdfrwt beam="1">  1       21 0.59621259E-02 0.45610694E+03</pdfrwt>
<pdfrwt beam="2">  1       21 0.18864895E+00 0.45610694E+03</pdfrwt>
<totfact> 0.28200391E+04</totfact>
</mgrwt>
</event>
<event>
 7    0  0.4725730E-002  0.4583733E+03  0.7546771E-02  0.1025254E+00
         21   -1    0    0  502  501  0.00000000000E+00  0.00000000000E+00  0.48964440264E+02  0.48964440264E+02  0.00000000000E+00 0. -1.
         21   -1    0    0  501  502 -0.00000000000E+00 -0.00000000000E+00 -0.10727481425E+04  0.10727481425E+04  0.00000000000E+00 0. -1.
      99926    2    1    2    0    0  0.14210854715E-13  0.00000000000E+00 -0.10237837023E+04  0.11217125828E+04  0.45837326424E+03 0.  0.
      99925    2    3    3    0    0  0.10830012613E+03 -0.25161885185E+02 -0.72598672211E+03  0.78010961548E+03  0.26296816101E+03 0.  0.
         25    1    3    3    0    0 -0.10830012613E+03  0.25161885185E+02 -0.29779698016E+03  0.34160296731E+03  0.12509000000E+03 0.  0.
         25    1    4    4    0    0  0.89130225471E+02 -0.29106604596E+02 -0.34854484985E+03  0.38199792144E+03  0.12509000000E+03 0.  0.
         25    1    4    4    0    0  0.19169900660E+02  0.39447194119E+01 -0.37744187225E+03  0.39811169404E+03  0.12509000000E+03 0.  0.
<mgrwt>
<rscale>  2 0.45837326E+03</rscale>
<asrwt>0</asrwt>
<pdfrwt beam="1">  1       21 0.72006533E-02 0.45837326E+03</pdfrwt>
<pdfrwt beam="2">  1       21 0.15775707E+00 0.45837326E+03</pdfrwt>
<totfact> 0.33842187E+04</totfact>
</mgrwt>
</event>
<event>
 7    0  0.4725730E-002  0.4537152E+03  0.7546771E-02  0.1026620E+00
         21   -1    0    0  502  501  0.00000000000E+00  0.00000000000E+00  0.40221754284E+03  0.40221754284E+03  0.00000000000E+00 0. -1.
         21   -1    0    0  501  502 -0.00000000000E+00 -0.00000000000E+00 -0.12795155822E+03  0.12795155822E+03  0.00000000000E+00 0. -1.
      99926    2    1    2    0    0 -0.35527136788E-14  0.00000000000E+00  0.27426598463E+03  0.53016910106E+03  0.45371515888E+03 0.  0.
      99925    2    3    3    0    0 -0.31793182062E+02  0.97173382080E+02  0.11945980525E+03  0.30641491924E+03  0.26299426810E+03 0.  0.
         25    1    4    4    0    0 -0.10786022562E+02  0.55167444519E+01  0.53764720879E+02  0.13669281643E+03  0.12509000000E+03 0.  0.
         25    1    4    4    0    0 -0.21007159499E+02  0.91656637628E+02  0.65695084370E+02  0.16972210281E+03  0.12509000000E+03 0.  0.
         25    1    3    3    0    0  0.31793182062E+02 -0.97173382080E+02  0.15480617938E+03  0.22375418182E+03  0.12509000000E+03 0.  0.
<mgrwt>
<rscale>  2 0.45371516E+03</rscale>
<asrwt>0</asrwt>
<pdfrwt beam="1">  1       21 0.59149638E-01 0.45371516E+03</pdfrwt>
<pdfrwt beam="2">  1       21 0.18816406E-01 0.45371516E+03</pdfrwt>
<totfact> 0.63842731E+04</totfact>
</mgrwt>
</event>
<event>
 7    0  0.4725730E-002  0.4558069E+03  0.7546771E-02  0.1026004E+00
         21   -1    0    0  502  501  0.00000000000E+00  0.00000000000E+00  0.17229366297E+04  0.17229366297E+04  0.00000000000E+00 0.  1.
         21   -1    0    0  501  502 -0.00000000000E+00 -0.00000000000E+00 -0.30146190983E+02  0.30146190983E+02  0.00000000000E+00 0.  1.
      99926    2    1    2    0    0  0.00000000000E+00  0.00000000000E+00  0.16927904388E+04  0.17530828207E+04  0.45580687442E+03 0.  0.
      99925    2    3    3    0    0  0.64770253143E+02  0.74601453246E+02  0.12826336262E+04  0.13130411391E+04  0.26299705621E+03 0.  0.
         25    1    4    4    0    0  0.35240100142E+02  0.42541853964E+02  0.83837887740E+03  0.84945766473E+03  0.12509000000E+03 0.  0.
         25    1    3    3    0    0 -0.64770253143E+02 -0.74601453246E+02  0.41015681260E+03  0.44004168160E+03  0.12509000000E+03 0.  0.
         25    1    4    4    0    0  0.29530153001E+02  0.32059599283E+02  0.44425474876E+03  0.46358347440E+03  0.12509000000E+03 0.  0.
<mgrwt>
<rscale>  2 0.45580687E+03</rscale>
<asrwt>0</asrwt>
<pdfrwt beam="1">  1       21 0.25337297E+00 0.45580687E+03</pdfrwt>
<pdfrwt beam="2">  1       21 0.44332646E-02 0.45580687E+03</pdfrwt>
<totfact> 0.18065214E+04</totfact>
</mgrwt>
</event>
<event>
 7    0  0.4725730E-002  0.4486840E+03  0.7546771E-02  0.1028115E+00
         21   -1    0    0  502  501  0.00000000000E+00  0.00000000000E+00  0.39637825416E+03  0.39637825416E+03  0.00000000000E+00 0. -1.
         21   -1    0    0  501  502 -0.00000000000E+00 -0.00000000000E+00 -0.12697300856E+03  0.12697300856E+03  0.00000000000E+00 0. -1.
      99926    2    1    2    0    0  0.00000000000E+00 -0.88817841970E-15  0.26940524560E+03  0.52335126272E+03  0.44868402895E+03 0.  0.
      99925    2    3    3    0    0  0.81635021532E+02 -0.70294990784E+01  0.89564062701E+02  0.28946229384E+03  0.26277938965E+03 0.  0.
         25    1    4    4    0    0  0.37676348869E+02 -0.96926157207E+01  0.28846792288E+01  0.13103161274E+03  0.12509000000E+03 0.  0.
         25    1    3    3    0    0 -0.81635021532E+02  0.70294990784E+01  0.17984118290E+03  0.23388896888E+03  0.12509000000E+03 0.  0.
         25    1    4    4    0    0  0.43958672663E+02  0.26631166423E+01  0.86679383472E+02  0.15843068109E+03  0.12509000000E+03 0.  0.
<mgrwt>
<rscale>  2 0.44868403E+03</rscale>
<asrwt>0</asrwt>
<pdfrwt beam="1">  1       21 0.58290919E-01 0.44868403E+03</pdfrwt>
<pdfrwt beam="2">  1       21 0.18672501E-01 0.44868403E+03</pdfrwt>
<totfact> 0.66948008E+04</totfact>
</mgrwt>
</event>
<event>
 7    0  0.4725730E-002  0.4594359E+03  0.7546771E-02  0.1024945E+00
         21   -1    0    0  502  501  0.00000000000E+00  0.00000000000E+00  0.15517401876E+04  0.15517401876E+04  0.00000000000E+00 0. -1.
         21   -1    0    0  501  502 -0.00000000000E+00 -0.00000000000E+00 -0.34007198412E+02  0.34007198412E+02  0.00000000000E+00 0. -1.
      99926    2    1    2    0    0 -0.17763568394E-14  0.14210854715E-13  0.15177329892E+04  0.15857473860E+04  0.45943589953E+03 0.  0.
      99925    2    3    3    0    0  0.85230619247E+01 -0.11691374355E+03  0.98062443448E+03  0.10219437201E+04  0.26268463908E+03 0.  0.
         25    1    3    3    0    0 -0.85230619247E+01  0.11691374355E+03  0.53710855474E+03  0.56380366590E+03  0.12509000000E+03 0.  0.
         25    1    4    4    0    0  0.83903735932E+01 -0.14975371190E+02  0.42372343317E+03  0.44213540464E+03  0.12509000000E+03 0.  0.
         25    1    4    4    0    0  0.13268833151E+00 -0.10193837236E+03  0.55690100131E+03  0.57980831550E+03  0.12509000000E+03 0.  0.
<mgrwt>
<rscale>  2 0.45943590E+03</rscale>
<asrwt>0</asrwt>
<pdfrwt beam="1">  1       21 0.22819704E+00 0.45943590E+03</pdfrwt>
<pdfrwt beam="2">  1       21 0.50010596E-02 0.45943590E+03</pdfrwt>
<totfact> 0.21020106E+04</totfact>
</mgrwt>
</event>
<event>
 7    0  0.4725730E-002  0.4628336E+03  0.7546771E-02  0.1023963E+00
         21   -1    0    0  502  501  0.00000000000E+00  0.00000000000E+00  0.89793480696E+02  0.89793480696E+02  0.00000000000E+00 0. -1.
         21   -1    0    0  501  502 -0.00000000000E+00 -0.00000000000E+00 -0.59641007887E+03  0.59641007887E+03  0.00000000000E+00 0. -1.
      99926    2    1    2    0    0 -0.14210854715E-13  0.71054273576E-14 -0.50661659817E+03  0.68620355956E+03  0.46283360683E+03 0.  0.
      99925    2    3    3    0    0 -0.10735308944E+03  0.39984561027E+02 -0.37139353586E+03  0.46927906668E+03  0.26299473951E+03 0.  0.
         25    1    3    3    0    0  0.10735308944E+03 -0.39984561027E+02 -0.13522306231E+03  0.21692449288E+03  0.12509000000E+03 0.  0.
         25    1    4    4    0    0 -0.94122061810E+02  0.77933006834E+01 -0.19275658042E+03  0.24843974209E+03  0.12509000000E+03 0.  0.
         25    1    4    4    0    0 -0.13231027630E+02  0.32191260344E+02 -0.17863695544E+03  0.22083932459E+03  0.12509000000E+03 0.  0.
<mgrwt>
<rscale>  2 0.46283361E+03</rscale>
<asrwt>0</asrwt>
<pdfrwt beam="1">  1       21 0.13204924E-01 0.46283361E+03</pdfrwt>
<pdfrwt beam="2">  1       21 0.87707363E-01 0.46283361E+03</pdfrwt>
<totfact> 0.50471541E+04</totfact>
</mgrwt>
</event>
<event>
 7    0  0.4725730E-002  0.4273967E+03  0.7546771E-02  0.1034685E+00
         21   -1    0    0  502  501  0.00000000000E+00  0.00000000000E+00  0.61438462310E+03  0.61438462310E+03  0.00000000000E+00 0.  1.
         21   -1    0    0  501  502 -0.00000000000E+00 -0.00000000000E+00 -0.74329639522E+02  0.74329639522E+02  0.00000000000E+00 0.  1.
      99926    2    1    2    0    0 -0.35527136788E-14  0.00000000000E+00  0.54005498358E+03  0.68871426262E+03  0.42739671296E+03 0.  0.
      99925    2    3    3    0    0 -0.93535961579E+01  0.83739896095E+02  0.33392369090E+03  0.43329797912E+03  0.26294913463E+03 0.  0.
         25    1    4    4    0    0  0.26001516938E+02  0.64877437064E+02  0.15179535964E+03  0.20874505990E+03  0.12509000000E+03 0.  0.
         25    1    4    4    0    0 -0.35355113096E+02  0.18862459030E+02  0.18212833126E+03  0.22455291922E+03  0.12509000000E+03 0.  0.
         25    1    3    3    0    0  0.93535961579E+01 -0.83739896095E+02  0.20613129268E+03  0.25541628351E+03  0.12509000000E+03 0.  0.
<mgrwt>
<rscale>  2 0.42739671E+03</rscale>
<asrwt>0</asrwt>
<pdfrwt beam="1">  1       21 0.90350677E-01 0.42739671E+03</pdfrwt>
<pdfrwt beam="2">  1       21 0.10930830E-01 0.42739671E+03</pdfrwt>
<totfact> 0.66918127E+04</totfact>
</mgrwt>
</event>
<event>
 7    0  0.4725730E-002  0.4598171E+03  0.7546771E-02  0.1024834E+00
         21   -1    0    0  502  501  0.00000000000E+00  0.00000000000E+00  0.46143407641E+03  0.46143407641E+03  0.00000000000E+00 0.  1.
         21   -1    0    0  501  502 -0.00000000000E+00 -0.00000000000E+00 -0.11455143181E+03  0.11455143181E+03  0.00000000000E+00 0.  1.
      99926    2    1    2    0    0  0.00000000000E+00 -0.14210854715E-13  0.34688264460E+03  0.57598550822E+03  0.45981706857E+03 0.  0.
      99925    2    3    3    0    0  0.89734488561E+01  0.89896679691E+02  0.12294390004E+03  0.30403329694E+03  0.26298119189E+03 0.  0.
         25    1    4    4    0    0  0.21218329975E+02  0.98798961857E+01  0.73955115448E+02  0.14718932392E+03  0.12509000000E+03 0.  0.
         25    1    4    4    0    0 -0.12244881119E+02  0.80016783505E+02  0.48988784593E+02  0.15684397302E+03  0.12509000000E+03 0.  0.
         25    1    3    3    0    0 -0.89734488561E+01 -0.89896679691E+02  0.22393874456E+03  0.27195221128E+03  0.12509000000E+03 0.  0.
<mgrwt>
<rscale>  2 0.45981707E+03</rscale>
<asrwt>0</asrwt>
<pdfrwt beam="1">  1       21 0.67857952E-01 0.45981707E+03</pdfrwt>
<pdfrwt beam="2">  1       21 0.16845799E-01 0.45981707E+03</pdfrwt>
<totfact> 0.57942715E+04</totfact>
</mgrwt>
</event>
<event>
 7    0  0.4725730E-002  0.4553957E+03  0.7546771E-02  0.1026125E+00
         21   -1    0    0  502  501  0.00000000000E+00  0.00000000000E+00  0.42442659232E+03  0.42442659232E+03  0.00000000000E+00 0.  1.
         21   -1    0    0  501  502 -0.00000000000E+00 -0.00000000000E+00 -0.12215610752E+03  0.12215610752E+03  0.00000000000E+00 0.  1.
      99926    2    1    2    0    0  0.00000000000E+00  0.17763568394E-14  0.30227048480E+03  0.54658269984E+03  0.45539565411E+03 0.  0.
      99925    2    3    3    0    0 -0.17144024552E+02  0.10309639219E+02  0.32427352016E+03  0.41800646602E+03  0.26301308621E+03 0.  0.
         25    1    3    3    0    0  0.17144024552E+02 -0.10309639219E+02 -0.22003035360E+02  0.12857623382E+03  0.12509000000E+03 0.  0.
         25    1    4    4    0    0 -0.19469703892E+02  0.17622094328E+02  0.10487131812E+03  0.16533332708E+03  0.12509000000E+03 0.  0.
         25    1    4    4    0    0  0.23256793398E+01 -0.73124551087E+01  0.21940220204E+03  0.25267313894E+03  0.12509000000E+03 0.  0.
<mgrwt>
<rscale>  2 0.45539565E+03</rscale>
<asrwt>0</asrwt>
<pdfrwt beam="1">  1       21 0.62415675E-01 0.45539565E+03</pdfrwt>
<pdfrwt beam="2">  1       21 0.17964134E-01 0.45539565E+03</pdfrwt>
<totfact> 0.61898885E+04</totfact>
</mgrwt>
</event>
<event>
 7    0  0.4725730E-002  0.4418558E+03  0.7546771E-02  0.1030179E+00
         21   -1    0    0  502  501  0.00000000000E+00  0.00000000000E+00  0.15012893348E+03  0.15012893348E+03  0.00000000000E+00 0.  1.
         21   -1    0    0  501  502 -0.00000000000E+00 -0.00000000000E+00 -0.32511473880E+03  0.32511473880E+03  0.00000000000E+00 0.  1.
      99926    2    1    2    0    0  0.71054273576E-14  0.00000000000E+00 -0.17498580532E+03  0.47524367228E+03  0.44185576377E+03 0.  0.
      99925    2    3    3    0    0 -0.50875882914E+02 -0.81295530481E+02 -0.79918007124E+02  0.29117109667E+03  0.26305208787E+03 0.  0.
         25    1    4    4    0    0 -0.16612214821E+01 -0.14864280037E+02 -0.61217521969E+02  0.14006712524E+03  0.12509000000E+03 0.  0.
         25    1    4    4    0    0 -0.49214661431E+02 -0.66431250444E+02 -0.18700485155E+02  0.15110397142E+03  0.12509000000E+03 0.  0.
         25    1    3    3    0    0  0.50875882914E+02  0.81295530481E+02 -0.95067798200E+02  0.18407257561E+03  0.12509000000E+03 0.  0.
<mgrwt>
<rscale>  2 0.44185576E+03</rscale>
<asrwt>0</asrwt>
<pdfrwt beam="1">  1       21 0.22077784E-01 0.44185576E+03</pdfrwt>
<pdfrwt beam="2">  1       21 0.47810991E-01 0.44185576E+03</pdfrwt>
<totfact> 0.74525510E+04</totfact>
</mgrwt>
</event>
<event>
 7    0  0.4725730E-002  0.4319046E+03  0.7546771E-02  0.1033260E+00
         21   -1    0    0  502  501  0.00000000000E+00  0.00000000000E+00  0.54115119343E+02  0.54115119343E+02  0.00000000000E+00 0. -1.
         21   -1    0    0  501  502 -0.00000000000E+00 -0.00000000000E+00 -0.86178126068E+03  0.86178126068E+03  0.00000000000E+00 0. -1.
      99926    2    1    2    0    0  0.00000000000E+00  0.00000000000E+00 -0.80766614134E+03  0.91589638003E+03  0.43190459951E+03 0.  0.
      99925    2    3    3    0    0  0.87680156272E+02  0.18373486374E+02 -0.51817584821E+03  0.58805871788E+03  0.26321369873E+03 0.  0.
         25    1    4    4    0    0  0.25378785723E+02  0.26205653024E+02 -0.18132988360E+03  0.22329096220E+03  0.12509000000E+03 0.  0.
         25    1    4    4    0    0  0.62301370550E+02 -0.78321666503E+01 -0.33684596462E+03  0.36476775568E+03  0.12509000000E+03 0.  0.
         25    1    3    3    0    0 -0.87680156272E+02 -0.18373486374E+02 -0.28949029312E+03  0.32783766214E+03  0.12509000000E+03 0.  0.
<mgrwt>
<rscale>  2 0.43190460E+03</rscale>
<asrwt>0</asrwt>
<pdfrwt beam="1">  1       21 0.79581065E-02 0.43190460E+03</pdfrwt>
<pdfrwt beam="2">  1       21 0.12673253E+00 0.43190460E+03</pdfrwt>
<totfact> 0.51195857E+04</totfact>
</mgrwt>
</event>
<event>
 7    0  0.4725730E-002  0.4391888E+03  0.7546771E-02  0.1030996E+00
         21   -1    0    0  502  501  0.00000000000E+00  0.00000000000E+00  0.66993292265E+02  0.66993292265E+02  0.00000000000E+00 0. -1.
         21   -1    0    0  501  502 -0.00000000000E+00 -0.00000000000E+00 -0.71979882080E+03  0.71979882080E+03  0.00000000000E+00 0. -1.
      99926    2    1    2    0    0  0.00000000000E+00  0.00000000000E+00 -0.65280552854E+03  0.78679211307E+03  0.43918876476E+03 0.  0.
      99925    2    3    3    0    0  0.66997202798E+02  0.68231434609E+02 -0.45254911588E+03  0.53204853069E+03  0.26292733383E+03 0.  0.
         25    1    3    3    0    0 -0.66997202798E+02 -0.68231434609E+02 -0.20025641266E+03  0.25474358238E+03  0.12509000000E+03 0.  0.
         25    1    4    4    0    0  0.36552810257E+02 -0.49593088631E+01 -0.18678507622E+03  0.22780885734E+03  0.12509000000E+03 0.  0.
         25    1    4    4    0    0  0.30444392541E+02  0.73190743472E+02 -0.26576403965E+03  0.30423967335E+03  0.12509000000E+03 0.  0.
<mgrwt>
<rscale>  2 0.43918876E+03</rscale>
<asrwt>0</asrwt>
<pdfrwt beam="1">  1       21 0.98519540E-02 0.43918876E+03</pdfrwt>
<pdfrwt beam="2">  1       21 0.10585278E+00 0.43918876E+03</pdfrwt>
<totfact> 0.54914652E+04</totfact>
</mgrwt>
</event>
<event>
 7    0  0.4725730E-002  0.4558878E+03  0.7546771E-02  0.1025981E+00
         21   -1    0    0  502  501  0.00000000000E+00  0.00000000000E+00  0.70623593121E+03  0.70623593121E+03  0.00000000000E+00 0. -1.
         21   -1    0    0  501  502 -0.00000000000E+00 -0.00000000000E+00 -0.73570900464E+02  0.73570900464E+02  0.00000000000E+00 0. -1.
      99926    2    1    2    0    0 -0.14210854715E-13  0.00000000000E+00  0.63266503074E+03  0.77980683167E+03  0.45588776425E+03 0.  0.
      99925    2    3    3    0    0 -0.56775812710E+02  0.47419649444E+02  0.24964174298E+03  0.37014054903E+03  0.26307966500E+03 0.  0.
         25    1    4    4    0    0  0.10834981423E+02  0.32474874434E+02  0.10636117021E+03  0.16772662556E+03  0.12509000000E+03 0.  0.
         25    1    3    3    0    0  0.56775812710E+02 -0.47419649444E+02  0.38302328777E+03  0.40966628264E+03  0.12509000000E+03 0.  0.
         25    1    4    4    0    0 -0.67610794134E+02  0.14944775010E+02  0.14328057277E+03  0.20241392347E+03  0.12509000000E+03 0.  0.
<mgrwt>
<rscale>  2 0.45588776E+03</rscale>
<asrwt>0</asrwt>
<pdfrwt beam="1">  1       21 0.10385822E+00 0.45588776E+03</pdfrwt>
<pdfrwt beam="2">  1       21 0.10819250E-01 0.45588776E+03</pdfrwt>
<totfact> 0.48418801E+04</totfact>
</mgrwt>
</event>
<event>
 7    0  0.4725730E-002  0.4551929E+03  0.7546771E-02  0.1026185E+00
         21   -1    0    0  502  501  0.00000000000E+00  0.00000000000E+00  0.69090469763E+03  0.69090469763E+03  0.00000000000E+00 0.  1.
         21   -1    0    0  501  502 -0.00000000000E+00 -0.00000000000E+00 -0.74974377435E+02  0.74974377435E+02  0.00000000000E+00 0.  1.
      99926    2    1    2    0    0  0.14210854715E-13  0.00000000000E+00  0.61593032020E+03  0.76587907507E+03  0.45519292425E+03 0.  0.
      99925    2    3    3    0    0 -0.10518034150E+03 -0.33633889964E+02  0.34495182760E+03  0.44764803582E+03  0.26306436060E+03 0.  0.
         25    1    4    4    0    0 -0.76777893493E+02 -0.94151020497E+01  0.13068432392E+03  0.19674701953E+03  0.12509000000E+03 0.  0.
         25    1    3    3    0    0  0.10518034150E+03  0.33633889964E+02  0.27097849260E+03  0.31823103925E+03  0.12509000000E+03 0.  0.
         25    1    4    4    0    0 -0.28402448002E+02 -0.24218787914E+02  0.21426750369E+03  0.25090101629E+03  0.12509000000E+03 0.  0.
<mgrwt>
<rscale>  2 0.45519292E+03</rscale>
<asrwt>0</asrwt>
<pdfrwt beam="1">  1       21 0.10160363E+00 0.45519292E+03</pdfrwt>
<pdfrwt beam="2">  1       21 0.11025644E-01 0.45519292E+03</pdfrwt>
<totfact> 0.49384472E+04</totfact>
</mgrwt>
</event>
<event>
 7    0  0.4725730E-002  0.4520861E+03  0.7546771E-02  0.1027102E+00
         21   -1    0    0  502  501  0.00000000000E+00  0.00000000000E+00  0.16326971002E+03  0.16326971002E+03  0.00000000000E+00 0.  1.
         21   -1    0    0  501  502 -0.00000000000E+00 -0.00000000000E+00 -0.31295130288E+03  0.31295130288E+03  0.00000000000E+00 0.  1.
      99926    2    1    2    0    0 -0.14210854715E-13 -0.71054273576E-14 -0.14968159285E+03  0.47622101290E+03  0.45208613547E+03 0.  0.
      99925    2    3    3    0    0 -0.94358876365E+02 -0.56961804457E+02 -0.10409594408E+03  0.30338061198E+03  0.26278429450E+03 0.  0.
         25    1    3    3    0    0  0.94358876365E+02  0.56961804457E+02 -0.45585648775E+02  0.17284040092E+03  0.12509000000E+03 0.  0.
         25    1    4    4    0    0 -0.13073285241E+02 -0.66060607889E+01 -0.30531446549E+02  0.12959254668E+03  0.12509000000E+03 0.  0.
         25    1    4    4    0    0 -0.81285591124E+02 -0.50355743669E+02 -0.73564497528E+02  0.17378806530E+03  0.12509000000E+03 0.  0.
<mgrwt>
<rscale>  2 0.45208614E+03</rscale>
<asrwt>0</asrwt>
<pdfrwt beam="1">  1       21 0.24010252E-01 0.45208614E+03</pdfrwt>
<pdfrwt beam="2">  1       21 0.46022250E-01 0.45208614E+03</pdfrwt>
<totfact> 0.68547858E+04</totfact>
</mgrwt>
</event>
<event>
 7    0  0.4725730E-002  0.4541827E+03  0.7546771E-02  0.1026482E+00
         21   -1    0    0  502  501  0.00000000000E+00  0.00000000000E+00  0.53077393955E+02  0.53077393955E+02  0.00000000000E+00 0. -1.
         21   -1    0    0  501  502 -0.00000000000E+00 -0.00000000000E+00 -0.97160930307E+03  0.97160930307E+03  0.00000000000E+00 0. -1.
      99926    2    1    2    0    0  0.71054273576E-14  0.00000000000E+00 -0.91853190911E+03  0.10246866970E+04  0.45418273745E+03 0.  0.
      99925    2    3    3    0    0  0.52626251053E+02 -0.29026962332E+02 -0.79292937739E+03  0.83750873112E+03  0.26281512579E+03 0.  0.
         25    1    4    4    0    0  0.44250242519E+01 -0.34696424195E+02 -0.30587485440E+03  0.33231063382E+03  0.12509000000E+03 0.  0.
         25    1    3    3    0    0 -0.52626251053E+02  0.29026962332E+02 -0.12560253172E+03  0.18717796590E+03  0.12509000000E+03 0.  0.
         25    1    4    4    0    0  0.48201226801E+02  0.56694618634E+01 -0.48705452298E+03  0.50519809730E+03  0.12509000000E+03 0.  0.
<mgrwt>
<rscale>  2 0.45418274E+03</rscale>
<asrwt>0</asrwt>
<pdfrwt beam="1">  1       21 0.78054985E-02 0.45418274E+03</pdfrwt>
<pdfrwt beam="2">  1       21 0.14288373E+00 0.45418274E+03</pdfrwt>
<totfact> 0.38464982E+04</totfact>
</mgrwt>
</event>
<event>
 7    0  0.4725730E-002  0.4584472E+03  0.7546771E-02  0.1025233E+00
         21   -1    0    0  502  501  0.00000000000E+00  0.00000000000E+00  0.43396061390E+03  0.43396061390E+03  0.00000000000E+00 0. -1.
         21   -1    0    0  501  502 -0.00000000000E+00 -0.00000000000E+00 -0.12107885644E+03  0.12107885644E+03  0.00000000000E+00 0. -1.
      99926    2    1    2    0    0 -0.14210854715E-13  0.35527136788E-14  0.31288175747E+03  0.55503947034E+03  0.45844718287E+03 0.  0.
      99925    2    3    3    0    0 -0.90314235884E+02  0.31473320479E+02  0.11606070170E+03  0.30298140719E+03  0.26302170161E+03 0.  0.
         25    1    4    4    0    0 -0.54082236281E+01  0.17281282444E+02  0.36532208152E+02  0.13156748055E+03  0.12509000000E+03 0.  0.
         25    1    4    4    0    0 -0.84906012256E+02  0.14192038035E+02  0.79528493546E+02  0.17141392664E+03  0.12509000000E+03 0.  0.
         25    1    3    3    0    0  0.90314235884E+02 -0.31473320479E+02  0.19682105577E+03  0.25205806315E+03  0.12509000000E+03 0.  0.
<mgrwt>
<rscale>  2 0.45844718E+03</rscale>
<asrwt>0</asrwt>
<pdfrwt beam="1">  1       21 0.63817737E-01 0.45844718E+03</pdfrwt>
<pdfrwt beam="2">  1       21 0.17805714E-01 0.45844718E+03</pdfrwt>
<totfact> 0.59884848E+04</totfact>
</mgrwt>
</event>
<event>
 7    0  0.4725730E-002  0.4552874E+03  0.7546771E-02  0.1026157E+00
         21   -1    0    0  502  501  0.00000000000E+00  0.00000000000E+00  0.39275902799E+03  0.39275902799E+03  0.00000000000E+00 0.  1.
         21   -1    0    0  501  502 -0.00000000000E+00 -0.00000000000E+00 -0.13194264435E+03  0.13194264435E+03  0.00000000000E+00 0.  1.
      99926    2    1    2    0    0 -0.14210854715E-13 -0.35527136788E-14  0.26081638364E+03  0.52470167234E+03  0.45528744655E+03 0.  0.
      99925    2    3    3    0    0  0.10829317538E+03  0.29559925449E+02  0.18092370238E+03  0.33860613331E+03  0.26328601636E+03 0.  0.
         25    1    4    4    0    0  0.60781238714E+02  0.32621108270E+02  0.49923386514E+02  0.15132200205E+03  0.12509000000E+03 0.  0.
         25    1    3    3    0    0 -0.10829317538E+03 -0.29559925449E+02  0.79892681259E+02  0.18609553903E+03  0.12509000000E+03 0.  0.
         25    1    4    4    0    0  0.47511936669E+02 -0.30611828212E+01  0.13100031586E+03  0.18728413126E+03  0.12509000000E+03 0.  0.
<mgrwt>
<rscale>  2 0.45528745E+03</rscale>
<asrwt>0</asrwt>
<pdfrwt beam="1">  1       21 0.57758680E-01 0.45528745E+03</pdfrwt>
<pdfrwt beam="2">  1       21 0.19403330E-01 0.45528745E+03</pdfrwt>
<totfact> 0.63421958E+04</totfact>
</mgrwt>
</event>
<event>
 7    0  0.4725730E-002  0.4545935E+03  0.7546771E-02  0.1026361E+00
         21   -1    0    0  502  501  0.00000000000E+00  0.00000000000E+00  0.19236807916E+03  0.19236807916E+03  0.00000000000E+00 0. -1.
         21   -1    0    0  501  502 -0.00000000000E+00 -0.00000000000E+00 -0.26856746507E+03  0.26856746507E+03  0.00000000000E+00 0. -1.
      99926    2    1    2    0    0  0.00000000000E+00  0.00000000000E+00 -0.76199385905E+02  0.46093554424E+03  0.45459347722E+03 0.  0.
      99925    2    3    3    0    0  0.45410896779E+02  0.13570682612E+02 -0.15178922300E+03  0.30728775042E+03  0.26294387303E+03 0.  0.
         25    1    4    4    0    0  0.14001535232E+02  0.40487776341E+02 -0.52294148309E+02  0.14218821706E+03  0.12509000000E+03 0.  0.
         25    1    4    4    0    0  0.31409361546E+02 -0.26917093730E+02 -0.99495074694E+02  0.16509953336E+03  0.12509000000E+03 0.  0.
         25    1    3    3    0    0 -0.45410896779E+02 -0.13570682612E+02  0.75589837099E+02  0.15364779382E+03  0.12509000000E+03 0.  0.
<mgrwt>
<rscale>  2 0.45459348E+03</rscale>
<asrwt>0</asrwt>
<pdfrwt beam="1">  1       21 0.28289424E-01 0.45459348E+03</pdfrwt>
<pdfrwt beam="2">  1       21 0.39495215E-01 0.45459348E+03</pdfrwt>
<totfact> 0.68333417E+04</totfact>
</mgrwt>
</event>
<event>
 7    0  0.4725730E-002  0.4551349E+03  0.7546771E-02  0.1026202E+00
         21   -1    0    0  502  501  0.00000000000E+00  0.00000000000E+00  0.20040529101E+03  0.20040529101E+03  0.00000000000E+00 0. -1.
         21   -1    0    0  501  502 -0.00000000000E+00 -0.00000000000E+00 -0.25841107058E+03  0.25841107058E+03  0.00000000000E+00 0. -1.
      99926    2    1    2    0    0  0.00000000000E+00  0.00000000000E+00 -0.58005779572E+02  0.45881636160E+03  0.45513490660E+03 0.  0.
      99925    2    3    3    0    0 -0.76235393416E+02  0.75412451557E+02 -0.73525056938E+02  0.29332548835E+03  0.26293541994E+03 0.  0.
         25    1    4    4    0    0 -0.67203258461E+02  0.64720440836E+02 -0.23203328251E+02  0.15776855185E+03  0.12509000000E+03 0.  0.
         25    1    4    4    0    0 -0.90321349550E+01  0.10692010721E+02 -0.50321728688E+02  0.13555693650E+03  0.12509000000E+03 0.  0.
         25    1    3    3    0    0  0.76235393416E+02 -0.75412451557E+02  0.15519277366E+02  0.16549087325E+03  0.12509000000E+03 0.  0.
<mgrwt>
<rscale>  2 0.45513491E+03</rscale>
<asrwt>0</asrwt>
<pdfrwt beam="1">  1       21 0.29471366E-01 0.45513491E+03</pdfrwt>
<pdfrwt beam="2">  1       21 0.38001628E-01 0.45513491E+03</pdfrwt>
<totfact> 0.68193496E+04</totfact>
</mgrwt>
</event>
<event>
 7    0  0.4725730E-002  0.4570076E+03  0.7546771E-02  0.1025653E+00
         21   -1    0    0  502  501  0.00000000000E+00  0.00000000000E+00  0.14642137216E+04  0.14642137216E+04  0.00000000000E+00 0.  1.
         21   -1    0    0  501  502 -0.00000000000E+00 -0.00000000000E+00 -0.35660081538E+02  0.35660081538E+02  0.00000000000E+00 0.  1.
      99926    2    1    2    0    0  0.00000000000E+00  0.00000000000E+00  0.14285536401E+04  0.14998738031E+04  0.45700757412E+03 0.  0.
      99925    2    3    3    0    0  0.76864056376E+02  0.56336458619E+02  0.68544233926E+03  0.74030564082E+03  0.26294364728E+03 0.  0.
         25    1    4    4    0    0  0.10675779292E+02  0.13324683160E+02  0.24375811626E+03  0.27451238002E+03  0.12509000000E+03 0.  0.
         25    1    3    3    0    0 -0.76864056376E+02 -0.56336458619E+02  0.74311130081E+03  0.75956816233E+03  0.12509000000E+03 0.  0.
         25    1    4    4    0    0  0.66188277084E+02  0.43011775459E+02  0.44168422300E+03  0.46579326080E+03  0.12509000000E+03 0.  0.
<mgrwt>
<rscale>  2 0.45700757E+03</rscale>
<asrwt>0</asrwt>
<pdfrwt beam="1">  1       21 0.21532551E+00 0.45700757E+03</pdfrwt>
<pdfrwt beam="2">  1       21 0.52441306E-02 0.45700757E+03</pdfrwt>
<totfact> 0.23414966E+04</totfact>
</mgrwt>
</event>
<event>
 7    0  0.4725730E-002  0.4607890E+03  0.7546771E-02  0.1024553E+00
         21   -1    0    0  502  501  0.00000000000E+00  0.00000000000E+00  0.51581960376E+02  0.51581960376E+02  0.00000000000E+00 0.  1.
         21   -1    0    0  501  502 -0.00000000000E+00 -0.00000000000E+00 -0.10290736151E+04  0.10290736151E+04  0.00000000000E+00 0.  1.
      99926    2    1    2    0    0 -0.71054273576E-14  0.00000000000E+00 -0.97749165471E+03  0.10806555755E+04  0.46078903823E+03 0.  0.
      99925    2    3    3    0    0  0.61627375625E+02 -0.22228344132E+02 -0.37992225760E+03  0.46662892688E+03  0.26288704964E+03 0.  0.
         25    1    3    3    0    0 -0.61627375625E+02  0.22228344132E+02 -0.59756939711E+03  0.61402664859E+03  0.12509000000E+03 0.  0.
         25    1    4    4    0    0  0.61236104590E+02  0.87449477979E+01 -0.16571668729E+03  0.21664686280E+03  0.12509000000E+03 0.  0.
         25    1    4    4    0    0  0.39127103492E+00 -0.30973291930E+02 -0.21420557031E+03  0.24998206408E+03  0.12509000000E+03 0.  0.
<mgrwt>
<rscale>  2 0.46078904E+03</rscale>
<asrwt>0</asrwt>
<pdfrwt beam="1">  1       21 0.75855833E-02 0.46078904E+03</pdfrwt>
<pdfrwt beam="2">  1       21 0.15133434E+00 0.46078904E+03</pdfrwt>
<totfact> 0.34583490E+04</totfact>
</mgrwt>
</event>
<event>
 7    0  0.4725730E-002  0.4636685E+03  0.7546771E-02  0.1023723E+00
         21   -1    0    0  502  501  0.00000000000E+00  0.00000000000E+00  0.66347791296E+03  0.66347791296E+03  0.00000000000E+00 0.  1.
         21   -1    0    0  501  502 -0.00000000000E+00 -0.00000000000E+00 -0.81008168030E+02  0.81008168030E+02  0.00000000000E+00 0.  1.
      99926    2    1    2    0    0  0.00000000000E+00  0.66613381478E-15  0.58246974493E+03  0.74448608099E+03  0.46366854652E+03 0.  0.
      99925    2    3    3    0    0 -0.11723308814E+03 -0.15698223262E+01  0.41274179894E+03  0.50323694618E+03  0.26295545271E+03 0.  0.
         25    1    4    4    0    0 -0.24944134404E+02  0.25410725166E+02  0.18077393632E+03  0.22269853827E+03  0.12509000000E+03 0.  0.
         25    1    4    4    0    0 -0.92288953735E+02 -0.26980547492E+02  0.23196786262E+03  0.28053840791E+03  0.12509000000E+03 0.  0.
         25    1    3    3    0    0  0.11723308814E+03  0.15698223262E+01  0.16972794599E+03  0.24124913481E+03  0.12509000000E+03 0.  0.
<mgrwt>
<rscale>  2 0.46366855E+03</rscale>
<asrwt>0</asrwt>
<pdfrwt beam="1">  1       21 0.97570278E-01 0.46366855E+03</pdfrwt>
<pdfrwt beam="2">  1       21 0.11912966E-01 0.46366855E+03</pdfrwt>
<totfact> 0.47250358E+04</totfact>
</mgrwt>
</event>
<event>
 7    0  0.4725730E-002  0.4467721E+03  0.7546771E-02  0.1028689E+00
         21   -1    0    0  502  501  0.00000000000E+00  0.00000000000E+00  0.69799206215E+02  0.69799206215E+02  0.00000000000E+00 0.  1.
         21   -1    0    0  501  502 -0.00000000000E+00 -0.00000000000E+00 -0.71492681887E+03  0.71492681887E+03  0.00000000000E+00 0.  1.
      99926    2    1    2    0    0  0.00000000000E+00  0.35527136788E-14 -0.64512761266E+03  0.78472602509E+03  0.44677208713E+03 0.  0.
      99925    2    3    3    0    0  0.73231946388E+02  0.24843111295E+02 -0.28359607303E+03  0.39442785651E+03  0.26299525319E+03 0.  0.
         25    1    4    4    0    0  0.22476429166E+02  0.34393230547E+02 -0.95262085180E+02  0.16251294456E+03  0.12509000000E+03 0.  0.
         25    1    4    4    0    0  0.50755517222E+02 -0.95501192518E+01 -0.18833398785E+03  0.23191491195E+03  0.12509000000E+03 0.  0.
         25    1    3    3    0    0 -0.73231946388E+02 -0.24843111295E+02 -0.36153153963E+03  0.39029816858E+03  0.12509000000E+03 0.  0.
<mgrwt>
<rscale>  2 0.44677209E+03</rscale>
<asrwt>0</asrwt>
<pdfrwt beam="1">  1       21 0.10264589E-01 0.44677209E+03</pdfrwt>
<pdfrwt beam="2">  1       21 0.10513630E+00 0.44677209E+03</pdfrwt>
<totfact> 0.51776112E+04</totfact>
</mgrwt>
</event>
<event>
 7    0  0.4725730E-002  0.4547879E+03  0.7546771E-02  0.1026304E+00
         21   -1    0    0  502  501  0.00000000000E+00  0.00000000000E+00  0.44432370238E+03  0.44432370238E+03  0.00000000000E+00 0. -1.
         21   -1    0    0  501  502 -0.00000000000E+00 -0.00000000000E+00 -0.11637463311E+03  0.11637463311E+03  0.00000000000E+00 0. -1.
      99926    2    1    2    0    0  0.71054273576E-14  0.17763568394E-14  0.32794906928E+03  0.56069833549E+03  0.45478789713E+03 0.  0.
      99925    2    3    3    0    0  0.51161701395E+02  0.14353918522E+01  0.33046789501E+03  0.42551907442E+03  0.26313090474E+03 0.  0.
         25    1    3    3    0    0 -0.51161701395E+02 -0.14353918522E+01 -0.25188257286E+01  0.13517926107E+03  0.12509000000E+03 0.  0.
         25    1    4    4    0    0  0.12446979523E+02  0.22010564018E+02  0.21352026282E+03  0.24875249338E+03  0.12509000000E+03 0.  0.
         25    1    4    4    0    0  0.38714721872E+02 -0.20575172165E+02  0.11694763218E+03  0.17676658104E+03  0.12509000000E+03 0.  0.
<mgrwt>
<rscale>  2 0.45478790E+03</rscale>
<asrwt>0</asrwt>
<pdfrwt beam="1">  1       21 0.65341720E-01 0.45478790E+03</pdfrwt>
<pdfrwt beam="2">  1       21 0.17113917E-01 0.45478790E+03</pdfrwt>
<totfact> 0.61267768E+04</totfact>
</mgrwt>
</event>
<event>
 7    0  0.4725730E-002  0.4560982E+03  0.7546771E-02  0.1025919E+00
         21   -1    0    0  502  501  0.00000000000E+00  0.00000000000E+00  0.28198262013E+03  0.28198262013E+03  0.00000000000E+00 0. -1.
         21   -1    0    0  501  502 -0.00000000000E+00 -0.00000000000E+00 -0.18443121935E+03  0.18443121935E+03  0.00000000000E+00 0. -1.
      99926    2    1    2    0    0  0.00000000000E+00  0.00000000000E+00  0.97551400786E+02  0.46641383948E+03  0.45609822831E+03 0.  0.
      99925    2    3    3    0    0 -0.14688494270E+02  0.10765170485E+03  0.25462040683E+02  0.28572342645E+03  0.26303026345E+03 0.  0.
         25    1    3    3    0    0  0.14688494270E+02 -0.10765170485E+03  0.72089360103E+02  0.18069041303E+03  0.12509000000E+03 0.  0.
         25    1    4    4    0    0  0.36603891040E+01  0.47878728688E+02 -0.26408082006E+02  0.13656744123E+03  0.12509000000E+03 0.  0.
         25    1    4    4    0    0 -0.18348883374E+02  0.59772976158E+02  0.51870122690E+02  0.14915598522E+03  0.12509000000E+03 0.  0.
<mgrwt>
<rscale>  2 0.45609823E+03</rscale>
<asrwt>0</asrwt>
<pdfrwt beam="1">  1       21 0.41468032E-01 0.45609823E+03</pdfrwt>
<pdfrwt beam="2">  1       21 0.27122238E-01 0.45609823E+03</pdfrwt>
<totfact> 0.67117390E+04</totfact>
</mgrwt>
</event>
<event>
 7    0  0.4725730E-002  0.4526302E+03  0.7546771E-02  0.1026941E+00
         21   -1    0    0  502  501  0.00000000000E+00  0.00000000000E+00  0.42322432825E+02  0.42322432825E+02  0.00000000000E+00 0. -1.
         21   -1    0    0  501  502 -0.00000000000E+00 -0.00000000000E+00 -0.12101977863E+04  0.12101977863E+04  0.00000000000E+00 0. -1.
      99926    2    1    2    0    0  0.00000000000E+00  0.00000000000E+00 -0.11678753534E+04  0.12525202191E+04  0.45263015593E+03 0.  0.
      99925    2    3    3    0    0 -0.23929762797E+02 -0.85704580359E+02 -0.55326063837E+03  0.61902462737E+03  0.26301377661E+03 0.  0.
         25    1    3    3    0    0  0.23929762797E+02  0.85704580359E+02 -0.61461471508E+03  0.63349559172E+03  0.12509000000E+03 0.  0.
         25    1    4    4    0    0  0.22824777879E+02 -0.58144567831E+02 -0.31200907640E+03  0.34190485973E+03  0.12509000000E+03 0.  0.
         25    1    4    4    0    0 -0.46754540676E+02 -0.27560012528E+02 -0.24125156197E+03  0.27711976764E+03  0.12509000000E+03 0.  0.
<mgrwt>
<rscale>  2 0.45263016E+03</rscale>
<asrwt>0</asrwt>
<pdfrwt beam="1">  1       21 0.62238872E-02 0.45263016E+03</pdfrwt>
<pdfrwt beam="2">  1       21 0.17797026E+00 0.45263016E+03</pdfrwt>
<totfact> 0.31095037E+04</totfact>
</mgrwt>
</event>
<event>
 7    0  0.4725730E-002  0.4536206E+03  0.7546771E-02  0.1026648E+00
         21   -1    0    0  502  501  0.00000000000E+00  0.00000000000E+00  0.51974348070E+02  0.51974348070E+02  0.00000000000E+00 0.  1.
         21   -1    0    0  501  502 -0.00000000000E+00 -0.00000000000E+00 -0.98977510325E+03  0.98977510325E+03  0.00000000000E+00 0.  1.
      99926    2    1    2    0    0  0.00000000000E+00  0.00000000000E+00 -0.93780075518E+03  0.10417494513E+04  0.45362061561E+03 0.  0.
      99925    2    3    3    0    0  0.81116002613E+02 -0.76807527265E+02 -0.60290211929E+03  0.66720465220E+03  0.26304349517E+03 0.  0.
         25    1    4    4    0    0  0.36381999873E+02 -0.67684812497E+02 -0.24868489687E+03  0.28878464258E+03  0.12509000000E+03 0.  0.
         25    1    3    3    0    0 -0.81116002613E+02  0.76807527265E+02 -0.33489863590E+03  0.37454479912E+03  0.12509000000E+03 0.  0.
         25    1    4    4    0    0  0.44734002740E+02 -0.91227147682E+01 -0.35421722241E+03  0.37842000962E+03  0.12509000000E+03 0.  0.
<mgrwt>
<rscale>  2 0.45362062E+03</rscale>
<asrwt>0</asrwt>
<pdfrwt beam="1">  1       21 0.76432872E-02 0.45362062E+03</pdfrwt>
<pdfrwt beam="2">  1       21 0.14555515E+00 0.45362062E+03</pdfrwt>
<totfact> 0.37988990E+04</totfact>
</mgrwt>
</event>
<event>
 7    0  0.4725730E-002  0.4583748E+03  0.7546771E-02  0.1025254E+00
         21   -1    0    0  502  501  0.00000000000E+00  0.00000000000E+00  0.54905352805E+03  0.54905352805E+03  0.00000000000E+00 0. -1.
         21   -1    0    0  501  502 -0.00000000000E+00 -0.00000000000E+00 -0.95668009712E+02  0.95668009712E+02  0.00000000000E+00 0. -1.
      99926    2    1    2    0    0  0.00000000000E+00  0.00000000000E+00  0.45338551834E+03  0.64472153777E+03  0.45837477354E+03 0.  0.
      99925    2    3    3    0    0 -0.79919985787E+02 -0.75944472981E+02  0.23220071643E+03  0.36772877287E+03  0.26296864943E+03 0.  0.
         25    1    4    4    0    0 -0.29100733742E+02 -0.40382938020E+02  0.16446731912E+03  0.21254326982E+03  0.12509000000E+03 0.  0.
         25    1    4    4    0    0 -0.50819252045E+02 -0.35561534961E+02  0.67733397309E+02  0.15518550305E+03  0.12509000000E+03 0.  0.
         25    1    3    3    0    0  0.79919985787E+02  0.75944472981E+02  0.22118480191E+03  0.27699276489E+03  0.12509000000E+03 0.  0.
<mgrwt>
<rscale>  2 0.45837477E+03</rscale>
<asrwt>0</asrwt>
<pdfrwt beam="1">  1       21 0.80743165E-01 0.45837477E+03</pdfrwt>
<pdfrwt beam="2">  1       21 0.14068825E-01 0.45837477E+03</pdfrwt>
<totfact> 0.54539707E+04</totfact>
</mgrwt>
</event>
<event>
 7    0  0.4725730E-002  0.4754756E+03  0.7546771E-02  0.1020386E+00
         21   -1    0    0  502  501  0.00000000000E+00  0.00000000000E+00  0.22523890001E+03  0.22523890001E+03  0.00000000000E+00 0. -1.
         21   -1    0    0  501  502 -0.00000000000E+00 -0.00000000000E+00 -0.25093032415E+03  0.25093032415E+03  0.00000000000E+00 0. -1.
      99926    2    1    2    0    0  0.00000000000E+00 -0.14210854715E-13 -0.25691424142E+02  0.47616922416E+03  0.47547563635E+03 0.  0.
      99925    2    3    3    0    0  0.40685866945E+02  0.90880243835E+02 -0.10181875823E+03  0.29908891023E+03  0.26300676456E+03 0.  0.
         25    1    4    4    0    0  0.20463300049E+02  0.12555545721E+02 -0.19400475348E+02  0.12884205416E+03  0.12509000000E+03 0.  0.
         25    1    4    4    0    0  0.20222566896E+02  0.78324698114E+02 -0.82418282882E+02  0.17024685606E+03  0.12509000000E+03 0.  0.
         25    1    3    3    0    0 -0.40685866945E+02 -0.90880243835E+02  0.76127334089E+02  0.17708031394E+03  0.12509000000E+03 0.  0.
<mgrwt>
<rscale>  2 0.47547564E+03</rscale>
<asrwt>0</asrwt>
<pdfrwt beam="1">  1       21 0.33123368E-01 0.47547564E+03</pdfrwt>
<pdfrwt beam="2">  1       21 0.36901518E-01 0.47547564E+03</pdfrwt>
<totfact> 0.57106451E+04</totfact>
</mgrwt>
</event>
<event>
 7    0  0.4725730E-002  0.4547926E+03  0.7546771E-02  0.1026302E+00
         21   -1    0    0  502  501  0.00000000000E+00  0.00000000000E+00  0.27518399685E+03  0.27518399685E+03  0.00000000000E+00 0.  1.
         21   -1    0    0  501  502 -0.00000000000E+00 -0.00000000000E+00 -0.18790724914E+03  0.18790724914E+03  0.00000000000E+00 0.  1.
      99926    2    1    2    0    0  0.00000000000E+00  0.00000000000E+00  0.87276747707E+02  0.46309124599E+03  0.45479255867E+03 0.  0.
      99925    2    3    3    0    0  0.50396726160E+02 -0.82357493796E+02 -0.48373072747E+01  0.28018390874E+03  0.26297725450E+03 0.  0.
         25    1    4    4    0    0  0.64223067585E+02 -0.29699672925E+02 -0.18934509703E+01  0.14372809829E+03  0.12509000000E+03 0.  0.
         25    1    3    3    0    0 -0.50396726160E+02  0.82357493796E+02  0.92114054982E+02  0.18290733724E+03  0.12509000000E+03 0.  0.
         25    1    4    4    0    0 -0.13826341425E+02 -0.52657820872E+02 -0.29438563044E+01  0.13645581045E+03  0.12509000000E+03 0.  0.
<mgrwt>
<rscale>  2 0.45479256E+03</rscale>
<asrwt>0</asrwt>
<pdfrwt beam="1">  1       21 0.40468235E-01 0.45479256E+03</pdfrwt>
<pdfrwt beam="2">  1       21 0.27633419E-01 0.45479256E+03</pdfrwt>
<totfact> 0.68064277E+04</totfact>
</mgrwt>
</event>
<event>
 7    0  0.4725730E-002  0.4594387E+03  0.7546771E-02  0.1024944E+00
         21   -1    0    0  502  501  0.00000000000E+00  0.00000000000E+00  0.79558715987E+02  0.79558715987E+02  0.00000000000E+00 0.  1.
         21   -1    0    0  501  502 -0.00000000000E+00 -0.00000000000E+00 -0.66329594078E+03  0.66329594078E+03  0.00000000000E+00 0.  1.
      99926    2    1    2    0    0 -0.14210854715E-13  0.00000000000E+00 -0.58373722479E+03  0.74285465676E+03  0.45943867215E+03 0.  0.
      99925    2    3    3    0    0  0.88130502518E+02 -0.12554493272E+02 -0.24241393345E+03  0.36859044783E+03  0.26300152533E+03 0.  0.
         25    1    4    4    0    0  0.12753999597E+02  0.21537135254E+02 -0.10607936213E+03  0.16591218120E+03  0.12509000000E+03 0.  0.
         25    1    3    3    0    0 -0.88130502518E+02  0.12554493272E+02 -0.34132329134E+03  0.37426420893E+03  0.12509000000E+03 0.  0.
         25    1    4    4    0    0  0.75376502921E+02 -0.34091628527E+02 -0.13633457132E+03  0.20267826663E+03  0.12509000000E+03 0.  0.
<mgrwt>
<rscale>  2 0.45943867E+03</rscale>
<asrwt>0</asrwt>
<pdfrwt beam="1">  1       21 0.11699812E-01 0.45943867E+03</pdfrwt>
<pdfrwt beam="2">  1       21 0.97543517E-01 0.45943867E+03</pdfrwt>
<totfact> 0.48908224E+04</totfact>
</mgrwt>
</event>
<event>
 7    0  0.4725730E-002  0.4552527E+03  0.7546771E-02  0.1026167E+00
         21   -1    0    0  502  501  0.00000000000E+00  0.00000000000E+00  0.65742830741E+03  0.65742830741E+03  0.00000000000E+00 0.  1.
         21   -1    0    0  501  502 -0.00000000000E+00 -0.00000000000E+00 -0.78812785878E+02  0.78812785878E+02  0.00000000000E+00 0.  1.
      99926    2    1    2    0    0 -0.14210854715E-13  0.71054273576E-14  0.57861552153E+03  0.73624109328E+03  0.45525270531E+03 0.  0.
      99925    2    3    3    0    0 -0.10286314472E+03  0.45788236808E+02  0.34180081525E+03  0.44571380992E+03  0.26297454986E+03 0.  0.
         25    1    4    4    0    0 -0.92314061903E+02  0.13136313801E+02  0.19732913123E+03  0.25155663954E+03  0.12509000000E+03 0.  0.
         25    1    4    4    0    0 -0.10549082820E+02  0.32651923007E+02  0.14447168403E+03  0.19415717038E+03  0.12509000000E+03 0.  0.
         25    1    3    3    0    0  0.10286314472E+03 -0.45788236808E+02  0.23681470627E+03  0.29052728337E+03  0.12509000000E+03 0.  0.
<mgrwt>
<rscale>  2 0.45525271E+03</rscale>
<asrwt>0</asrwt>
<pdfrwt beam="1">  1       21 0.96680631E-01 0.45525271E+03</pdfrwt>
<pdfrwt beam="2">  1       21 0.11590116E-01 0.45525271E+03</pdfrwt>
<totfact> 0.50877933E+04</totfact>
</mgrwt>
</event>
<event>
 7    0  0.4725730E-002  0.4639968E+03  0.7546771E-02  0.1023628E+00
         21   -1    0    0  502  501  0.00000000000E+00  0.00000000000E+00  0.12697662481E+03  0.12697662481E+03  0.00000000000E+00 0.  1.
         21   -1    0    0  501  502 -0.00000000000E+00 -0.00000000000E+00 -0.42388313552E+03  0.42388313552E+03  0.00000000000E+00 0.  1.
      99926    2    1    2    0    0 -0.14210854715E-13  0.00000000000E+00 -0.29690651071E+03  0.55085976032E+03  0.46399676663E+03 0.  0.
      99925    2    3    3    0    0  0.99636573278E+02  0.69312826961E+02 -0.19677378790E+03  0.34984785771E+03  0.26256786784E+03 0.  0.
         25    1    4    4    0    0  0.87642574452E+02  0.56814167517E+02 -0.11281149029E+03  0.19819942212E+03  0.12509000000E+03 0.  0.
         25    1    3    3    0    0 -0.99636573278E+02 -0.69312826961E+02 -0.10013272281E+03  0.20101190261E+03  0.12509000000E+03 0.  0.
         25    1    4    4    0    0  0.11993998825E+02  0.12498659444E+02 -0.83962297617E+02  0.15164843559E+03  0.12509000000E+03 0.  0.
<mgrwt>
<rscale>  2 0.46399677E+03</rscale>
<asrwt>0</asrwt>
<pdfrwt beam="1">  1       21 0.18673033E-01 0.46399677E+03</pdfrwt>
<pdfrwt beam="2">  1       21 0.62335757E-01 0.46399677E+03</pdfrwt>
<totfact> 0.57598927E+04</totfact>
</mgrwt>
</event>
<event>
 7    0  0.4725730E-002  0.4580293E+03  0.7546771E-02  0.1025354E+00
         21   -1    0    0  502  501  0.00000000000E+00  0.00000000000E+00  0.34367741274E+02  0.34367741274E+02  0.00000000000E+00 0. -1.
         21   -1    0    0  501  502 -0.00000000000E+00 -0.00000000000E+00 -0.15260740857E+04  0.15260740857E+04  0.00000000000E+00 0. -1.
      99926    2    1    2    0    0  0.00000000000E+00  0.00000000000E+00 -0.14917063444E+04  0.15604418270E+04  0.45802934117E+03 0.  0.
      99925    2    3    3    0    0 -0.10347592224E+02  0.78792603256E+02 -0.64887530027E+03  0.70468074812E+03  0.26309780401E+03 0.  0.
         25    1    3    3    0    0  0.10347592224E+02 -0.78792603256E+02 -0.84283104415E+03  0.85576107885E+03  0.12509000000E+03 0.  0.
         25    1    4    4    0    0  0.13752769014E+01  0.40849204372E+02 -0.42780252342E+03  0.44758580857E+03  0.12509000000E+03 0.  0.
         25    1    4    4    0    0 -0.11722869125E+02  0.37943398884E+02 -0.22107277685E+03  0.25709493955E+03  0.12509000000E+03 0.  0.
<mgrwt>
<rscale>  2 0.45802934E+03</rscale>
<asrwt>0</asrwt>
<pdfrwt beam="1">  1       21 0.50540810E-02 0.45802934E+03</pdfrwt>
<pdfrwt beam="2">  1       21 0.22442260E+00 0.45802934E+03</pdfrwt>
<totfact> 0.21818114E+04</totfact>
</mgrwt>
</event>
<event>
 7    0  0.4725730E-002  0.4538345E+03  0.7546771E-02  0.1026585E+00
         21   -1    0    0  502  501  0.00000000000E+00  0.00000000000E+00  0.11149434374E+03  0.11149434374E+03  0.00000000000E+00 0. -1.
         21   -1    0    0  501  502 -0.00000000000E+00 -0.00000000000E+00 -0.46183014294E+03  0.46183014294E+03  0.00000000000E+00 0. -1.
      99926    2    1    2    0    0  0.00000000000E+00  0.00000000000E+00 -0.35033579920E+03  0.57332448668E+03  0.45383454565E+03 0.  0.
      99925    2    3    3    0    0 -0.50739704921E+02 -0.28103355381E+02 -0.99547871143E+02  0.28713152870E+03  0.26300269938E+03 0.  0.
         25    1    3    3    0    0  0.50739704921E+02  0.28103355381E+02 -0.25078792806E+03  0.28619295798E+03  0.12509000000E+03 0.  0.
         25    1    4    4    0    0 -0.38306461182E+02 -0.47479421848E+02 -0.73164593723E+02  0.15723309557E+03  0.12509000000E+03 0.  0.
         25    1    4    4    0    0 -0.12433243739E+02  0.19376066467E+02 -0.26383277420E+02  0.12989843313E+03  0.12509000000E+03 0.  0.
<mgrwt>
<rscale>  2 0.45383455E+03</rscale>
<asrwt>0</asrwt>
<pdfrwt beam="1">  1       21 0.16396227E-01 0.45383455E+03</pdfrwt>
<pdfrwt beam="2">  1       21 0.67916197E-01 0.45383455E+03</pdfrwt>
<totfact> 0.60910386E+04</totfact>
</mgrwt>
</event>
<event>
 7    0  0.4725730E-002  0.4175301E+03  0.7546771E-02  0.1037873E+00
         21   -1    0    0  502  501  0.00000000000E+00  0.00000000000E+00  0.37619163470E+03  0.37619163470E+03  0.00000000000E+00 0.  1.
         21   -1    0    0  501  502 -0.00000000000E+00 -0.00000000000E+00 -0.11585275176E+03  0.11585275176E+03  0.00000000000E+00 0.  1.
      99926    2    1    2    0    0  0.71054273576E-14  0.71054273576E-14  0.26033888294E+03  0.49204438646E+03  0.41753005195E+03 0.  0.
      99925    2    3    3    0    0  0.32428336778E+02  0.53677531895E+02  0.12736228509E+03  0.29900771085E+03  0.26315695892E+03 0.  0.
         25    1    3    3    0    0 -0.32428336778E+02 -0.53677531895E+02  0.13297659785E+03  0.19303667561E+03  0.12509000000E+03 0.  0.
         25    1    4    4    0    0 -0.61095883685E+01  0.28334019426E+02  0.24747052161E+02  0.13076722991E+03  0.12509000000E+03 0.  0.
         25    1    4    4    0    0  0.38537925146E+02  0.25343512469E+02  0.10261523293E+03  0.16824048094E+03  0.12509000000E+03 0.  0.
<mgrwt>
<rscale>  2 0.41753005E+03</rscale>
<asrwt>0</asrwt>
<pdfrwt beam="1">  1       21 0.55322299E-01 0.41753005E+03</pdfrwt>
<pdfrwt beam="2">  1       21 0.17037169E-01 0.41753005E+03</pdfrwt>
<totfact> 0.89662363E+04</totfact>
</mgrwt>
</event>
<event>
 7    0  0.4725730E-002  0.4547933E+03  0.7546771E-02  0.1026302E+00
         21   -1    0    0  502  501  0.00000000000E+00  0.00000000000E+00  0.43491386281E+03  0.43491386281E+03  0.00000000000E+00 0.  1.
         21   -1    0    0  501  502 -0.00000000000E+00 -0.00000000000E+00 -0.11889534143E+03  0.11889534143E+03  0.00000000000E+00 0.  1.
      99926    2    1    2    0    0  0.00000000000E+00 -0.44408920985E-15  0.31601852138E+03  0.55380920424E+03  0.45479328144E+03 0.  0.
      99925    2    3    3    0    0 -0.17812109829E+02  0.34278265394E+01  0.62904123844E+02  0.27088973232E+03  0.26285984293E+03 0.  0.
         25    1    4    4    0    0  0.77300410591E+01  0.15853886105E+02 -0.36448086782E+01  0.12637995082E+03  0.12509000000E+03 0.  0.
         25    1    4    4    0    0 -0.25542150888E+02 -0.12426059566E+02  0.66548932522E+02  0.14450978150E+03  0.12509000000E+03 0.  0.
         25    1    3    3    0    0  0.17812109829E+02 -0.34278265394E+01  0.25311439754E+03  0.28291947192E+03  0.12509000000E+03 0.  0.
<mgrwt>
<rscale>  2 0.45479328E+03</rscale>
<asrwt>0</asrwt>
<pdfrwt beam="1">  1       21 0.63957921E-01 0.45479328E+03</pdfrwt>
<pdfrwt beam="2">  1       21 0.17484609E-01 0.45479328E+03</pdfrwt>
<totfact> 0.61716364E+04</totfact>
</mgrwt>
</event>
<event>
 7    0  0.4725730E-002  0.4537240E+03  0.7546771E-02  0.1026617E+00
         21   -1    0    0  502  501  0.00000000000E+00  0.00000000000E+00  0.55980498774E+03  0.55980498774E+03  0.00000000000E+00 0. -1.
         21   -1    0    0  501  502 -0.00000000000E+00 -0.00000000000E+00 -0.91936246263E+02  0.91936246263E+02  0.00000000000E+00 0. -1.
      99926    2    1    2    0    0 -0.14210854715E-13  0.00000000000E+00  0.46786874148E+03  0.65174123400E+03  0.45372400956E+03 0.  0.
      99925    2    3    3    0    0  0.90772683805E+02  0.61342681003E+02  0.32776770799E+03  0.43430523808E+03  0.26303377119E+03 0.  0.
         25    1    3    3    0    0 -0.90772683805E+02 -0.61342681003E+02  0.14010103349E+03  0.21743599592E+03  0.12509000000E+03 0.  0.
         25    1    4    4    0    0  0.69183669619E+02  0.51160681398E+01  0.19803378662E+03  0.24428967035E+03  0.12509000000E+03 0.  0.
         25    1    4    4    0    0  0.21589014187E+02  0.56226612863E+02  0.12973392137E+03  0.19001556773E+03  0.12509000000E+03 0.  0.
<mgrwt>
<rscale>  2 0.45372401E+03</rscale>
<asrwt>0</asrwt>
<pdfrwt beam="1">  1       21 0.82324262E-01 0.45372401E+03</pdfrwt>
<pdfrwt beam="2">  1       21 0.13520036E-01 0.45372401E+03</pdfrwt>
<totfact> 0.56164486E+04</totfact>
</mgrwt>
</event>
<event>
 7    0  0.4725730E-002  0.4221562E+03  0.7546771E-02  0.1036367E+00
         21   -1    0    0  502  501  0.00000000000E+00  0.00000000000E+00  0.28382836675E+04  0.28382836675E+04  0.00000000000E+00 0. -1.
         21   -1    0    0  501  502 -0.00000000000E+00 -0.00000000000E+00 -0.15697505183E+02  0.15697505183E+02  0.00000000000E+00 0. -1.
      99926    2    1    2    0    0  0.00000000000E+00 -0.71054273576E-14  0.28225861624E+04  0.28539811727E+04  0.42215623923E+03 0.  0.
      99925    2    3    3    0    0 -0.56296351999E+01  0.63776470731E+02  0.15371820198E+04  0.15609187424E+04  0.26351399819E+03 0.  0.
         25    1    3    3    0    0  0.56296351999E+01 -0.63776470731E+02  0.12854041426E+04  0.12930624304E+04  0.12509000000E+03 0.  0.
         25    1    4    4    0    0 -0.34909089465E+02  0.48143207935E+02  0.67353392572E+03  0.68762771191E+03  0.12509000000E+03 0.  0.
         25    1    4    4    0    0  0.29279454265E+02  0.15633262796E+02  0.86364809408E+03  0.87329103045E+03  0.12509000000E+03 0.  0.
<mgrwt>
<rscale>  2 0.42215624E+03</rscale>
<asrwt>0</asrwt>
<pdfrwt beam="1">  1       21 0.41739430E+00 0.42215624E+03</pdfrwt>
<pdfrwt beam="2">  1       21 0.23084586E-02 0.42215624E+03</pdfrwt>
<totfact> 0.53987285E+03</totfact>
</mgrwt>
</event>
<event>
 7    0  0.4725730E-002  0.4221168E+03  0.7546771E-02  0.1036380E+00
         21   -1    0    0  502  501  0.00000000000E+00  0.00000000000E+00  0.10695119930E+04  0.10695119930E+04  0.00000000000E+00 0.  1.
         21   -1    0    0  501  502 -0.00000000000E+00 -0.00000000000E+00 -0.41650436692E+02  0.41650436692E+02  0.00000000000E+00 0.  1.
      99926    2    1    2    0    0  0.71054273576E-14  0.00000000000E+00  0.10278615563E+04  0.11111624297E+04  0.42211676848E+03 0.  0.
      99925    2    3    3    0    0  0.53481412511E+02  0.53706941187E+02  0.61538383807E+03  0.67352094039E+03  0.26303705437E+03 0.  0.
         25    1    4    4    0    0  0.54191513720E+02  0.99737566260E+01  0.37333814958E+03  0.39757399061E+03  0.12509000000E+03 0.  0.
         25    1    4    4    0    0 -0.71010120864E+00  0.43733184561E+02  0.24204568849E+03  0.27594694978E+03  0.12509000000E+03 0.  0.
         25    1    3    3    0    0 -0.53481412511E+02 -0.53706941187E+02  0.41247771827E+03  0.43764148933E+03  0.12509000000E+03 0.  0.
<mgrwt>
<rscale>  2 0.42211677E+03</rscale>
<asrwt>0</asrwt>
<pdfrwt beam="1">  1       21 0.15728116E+00 0.42211677E+03</pdfrwt>
<pdfrwt beam="2">  1       21 0.61250649E-02 0.42211677E+03</pdfrwt>
<totfact> 0.45759891E+04</totfact>
</mgrwt>
</event>
<event>
 7    0  0.4725730E-002  0.4650089E+03  0.7546771E-02  0.1023338E+00
         21   -1    0    0  502  501  0.00000000000E+00  0.00000000000E+00  0.37117838159E+02  0.37117838159E+02  0.00000000000E+00 0. -1.
         21   -1    0    0  501  502 -0.00000000000E+00 -0.00000000000E+00 -0.14563970131E+04  0.14563970131E+04  0.00000000000E+00 0. -1.
      99926    2    1    2    0    0  0.00000000000E+00  0.00000000000E+00 -0.14192791750E+04  0.14935148513E+04  0.46500885423E+03 0.  0.
      99925    2    3    3    0    0 -0.74892417614E+02  0.87137847738E+02 -0.10205539080E+04  0.10601198521E+04  0.26291052260E+03 0.  0.
         25    1    3    3    0    0  0.74892417614E+02 -0.87137847738E+02 -0.39872526692E+03  0.43339499917E+03  0.12509000000E+03 0.  0.
         25    1    4    4    0    0 -0.95246639570E+01  0.44690645509E+02 -0.37469820017E+03  0.39766093890E+03  0.12509000000E+03 0.  0.
         25    1    4    4    0    0 -0.65367753657E+02  0.42447202229E+02 -0.64585570787E+03  0.66245891321E+03  0.12509000000E+03 0.  0.
<mgrwt>
<rscale>  2 0.46500885E+03</rscale>
<asrwt>0</asrwt>
<pdfrwt beam="1">  1       21 0.54585056E-02 0.46500885E+03</pdfrwt>
<pdfrwt beam="2">  1       21 0.21417603E+00 0.46500885E+03</pdfrwt>
<totfact> 0.22164656E+04</totfact>
</mgrwt>
</event>
<event>
 7    0  0.4725730E-002  0.4647931E+03  0.7546771E-02  0.1023400E+00
         21   -1    0    0  502  501  0.00000000000E+00  0.00000000000E+00  0.10506693216E+03  0.10506693216E+03  0.00000000000E+00 0.  1.
         21   -1    0    0  501  502 -0.00000000000E+00 -0.00000000000E+00 -0.51403567477E+03  0.51403567477E+03  0.00000000000E+00 0.  1.
      99926    2    1    2    0    0  0.00000000000E+00 -0.14210854715E-13 -0.40896874261E+03  0.61910260693E+03  0.46479307813E+03 0.  0.
      99925    2    3    3    0    0  0.70370360679E+02 -0.94622231594E+02 -0.21321745949E+03  0.35858115423E+03  0.26308440616E+03 0.  0.
         25    1    4    4    0    0  0.39475877001E+02 -0.72363082765E+02 -0.72292737408E+02  0.16633853611E+03  0.12509000000E+03 0.  0.
         25    1    4    4    0    0  0.30894483677E+02 -0.22259148828E+02 -0.14092472209E+03  0.19224261812E+03  0.12509000000E+03 0.  0.
         25    1    3    3    0    0 -0.70370360679E+02  0.94622231594E+02 -0.19575128312E+03  0.26052145270E+03  0.12509000000E+03 0.  0.
<mgrwt>
<rscale>  2 0.46479308E+03</rscale>
<asrwt>0</asrwt>
<pdfrwt beam="1">  1       21 0.15451020E-01 0.46479308E+03</pdfrwt>
<pdfrwt beam="2">  1       21 0.75593480E-01 0.46479308E+03</pdfrwt>
<totfact> 0.53276197E+04</totfact>
</mgrwt>
</event>
<event>
 7    0  0.4725730E-002  0.4551364E+03  0.7546771E-02  0.1026201E+00
         21   -1    0    0  502  501  0.00000000000E+00  0.00000000000E+00  0.12458595989E+03  0.12458595989E+03  0.00000000000E+00 0.  1.
         21   -1    0    0  501  502 -0.00000000000E+00 -0.00000000000E+00 -0.41567509959E+03  0.41567509959E+03  0.00000000000E+00 0.  1.
      99926    2    1    2    0    0  0.14210854715E-13  0.00000000000E+00 -0.29108913970E+03  0.54026105948E+03  0.45513638081E+03 0.  0.
      99925    2    3    3    0    0 -0.91254945274E+02 -0.64372690331E+02 -0.16012375275E+03  0.32749182069E+03  0.26294480053E+03 0.  0.
         25    1    4    4    0    0 -0.56602365122E+02 -0.14756279227E+02 -0.39892752803E+02  0.14373766152E+03  0.12509000000E+03 0.  0.
         25    1    4    4    0    0 -0.34652580152E+02 -0.49616411104E+02 -0.12023099995E+03  0.18375415916E+03  0.12509000000E+03 0.  0.
         25    1    3    3    0    0  0.91254945274E+02  0.64372690331E+02 -0.13096538696E+03  0.21276923880E+03  0.12509000000E+03 0.  0.
<mgrwt>
<rscale>  2 0.45513638E+03</rscale>
<asrwt>0</asrwt>
<pdfrwt beam="1">  1       21 0.18321465E-01 0.45513638E+03</pdfrwt>
<pdfrwt beam="2">  1       21 0.61128691E-01 0.45513638E+03</pdfrwt>
<totfact> 0.62447267E+04</totfact>
</mgrwt>
</event>
<event>
 7    0  0.4725730E-002  0.4544972E+03  0.7546771E-02  0.1026389E+00
         21   -1    0    0  502  501  0.00000000000E+00  0.00000000000E+00  0.83673892936E+02  0.83673892936E+02  0.00000000000E+00 0.  1.
         21   -1    0    0  501  502 -0.00000000000E+00 -0.00000000000E+00 -0.61718092096E+03  0.61718092096E+03  0.00000000000E+00 0.  1.
      99926    2    1    2    0    0  0.00000000000E+00  0.00000000000E+00 -0.53350702802E+03  0.70085481389E+03  0.45449721804E+03 0.  0.
      99925    2    3    3    0    0  0.88765542450E+02 -0.96533472117E+01 -0.22892206889E+03  0.35969207550E+03  0.26267958983E+03 0.  0.
         25    1    4    4    0    0  0.82525058775E+02 -0.18687044003E+02 -0.11092785420E+03  0.18738219733E+03  0.12509000000E+03 0.  0.
         25    1    3    3    0    0 -0.88765542450E+02  0.96533472117E+01 -0.30458495913E+03  0.34116273839E+03  0.12509000000E+03 0.  0.
         25    1    4    4    0    0  0.62404836751E+01  0.90336967914E+01 -0.11799421469E+03  0.17230987817E+03  0.12509000000E+03 0.  0.
<mgrwt>
<rscale>  2 0.45449722E+03</rscale>
<asrwt>0</asrwt>
<pdfrwt beam="1">  1       21 0.12304985E-01 0.45449722E+03</pdfrwt>
<pdfrwt beam="2">  1       21 0.90761898E-01 0.45449722E+03</pdfrwt>
<totfact> 0.53066224E+04</totfact>
</mgrwt>
</event>
<event>
 7    0  0.4725730E-002  0.4570010E+03  0.7546771E-02  0.1025655E+00
         21   -1    0    0  502  501  0.00000000000E+00  0.00000000000E+00  0.16832506983E+03  0.16832506983E+03  0.00000000000E+00 0. -1.
         21   -1    0    0  501  502 -0.00000000000E+00 -0.00000000000E+00 -0.31018830347E+03  0.31018830347E+03  0.00000000000E+00 0. -1.
      99926    2    1    2    0    0  0.00000000000E+00  0.17763568394E-14 -0.14186323365E+03  0.47851337330E+03  0.45700095335E+03 0.  0.
      99925    2    3    3    0    0  0.90744069581E+02 -0.63814566271E+01 -0.16296518144E+03  0.32241081261E+03  0.26289897789E+03 0.  0.
         25    1    4    4    0    0  0.47096017823E+02 -0.41439917114E+02 -0.67323973217E+02  0.15529110437E+03  0.12509000000E+03 0.  0.
         25    1    3    3    0    0 -0.90744069581E+02  0.63814566271E+01  0.21101947792E+02  0.15610256069E+03  0.12509000000E+03 0.  0.
         25    1    4    4    0    0  0.43648051758E+02  0.35058460487E+02 -0.95641208222E+02  0.16711970825E+03  0.12509000000E+03 0.  0.
<mgrwt>
<rscale>  2 0.45700095E+03</rscale>
<asrwt>0</asrwt>
<pdfrwt beam="1">  1       21 0.24753687E-01 0.45700095E+03</pdfrwt>
<pdfrwt beam="2">  1       21 0.45615926E-01 0.45700095E+03</pdfrwt>
<totfact> 0.65757953E+04</totfact>
</mgrwt>
</event>
<event>
 7    0  0.4725730E-002  0.4511129E+03  0.7546771E-02  0.1027391E+00
         21   -1    0    0  502  501  0.00000000000E+00  0.00000000000E+00  0.70888741830E+02  0.70888741830E+02  0.00000000000E+00 0. -1.
         21   -1    0    0  501  502 -0.00000000000E+00 -0.00000000000E+00 -0.71768405236E+03  0.71768405236E+03  0.00000000000E+00 0. -1.
      99926    2    1    2    0    0  0.00000000000E+00 -0.14210854715E-13 -0.64679531053E+03  0.78857279419E+03  0.45111293266E+03 0.  0.
      99925    2    3    3    0    0  0.31176028728E+02 -0.64585876731E+02 -0.55301095504E+03  0.61656612666E+03  0.26303876503E+03 0.  0.
         25    1    4    4    0    0 -0.19042289421E+02 -0.10097263332E+02 -0.24299566460E+03  0.27415135350E+03  0.12509000000E+03 0.  0.
         25    1    4    4    0    0  0.50218318149E+02 -0.54488613399E+02 -0.31001529044E+03  0.34241477316E+03  0.12509000000E+03 0.  0.
         25    1    3    3    0    0 -0.31176028728E+02  0.64585876731E+02 -0.93784355485E+02  0.17200666753E+03  0.12509000000E+03 0.  0.
<mgrwt>
<rscale>  2 0.45111293E+03</rscale>
<asrwt>0</asrwt>
<pdfrwt beam="1">  1       21 0.10424816E-01 0.45111293E+03</pdfrwt>
<pdfrwt beam="2">  1       21 0.10554177E+00 0.45111293E+03</pdfrwt>
<totfact> 0.49825289E+04</totfact>
</mgrwt>
</event>
<event>
 7    0  0.4725730E-002  0.4574801E+03  0.7546771E-02  0.1025515E+00
         21   -1    0    0  502  501  0.00000000000E+00  0.00000000000E+00  0.17789085297E+03  0.17789085297E+03  0.00000000000E+00 0.  1.
         21   -1    0    0  501  502 -0.00000000000E+00 -0.00000000000E+00 -0.29412420483E+03  0.29412420483E+03  0.00000000000E+00 0.  1.
      99926    2    1    2    0    0 -0.53290705182E-14  0.00000000000E+00 -0.11623335185E+03  0.47201505780E+03  0.45748007903E+03 0.  0.
      99925    2    3    3    0    0  0.14784483423E+02  0.94827382021E+02 -0.67560842229E+01  0.28006820693E+03  0.26302422422E+03 0.  0.
         25    1    3    3    0    0 -0.14784483423E+02 -0.94827382021E+02 -0.10947726763E+03  0.19194685087E+03  0.12509000000E+03 0.  0.
         25    1    4    4    0    0 -0.26292840509E+02  0.30421876288E+02  0.13579911119E+02  0.13209362628E+03  0.12509000000E+03 0.  0.
         25    1    4    4    0    0  0.41077323932E+02  0.64405505733E+02 -0.20335995342E+02  0.14797458064E+03  0.12509000000E+03 0.  0.
<mgrwt>
<rscale>  2 0.45748008E+03</rscale>
<asrwt>0</asrwt>
<pdfrwt beam="1">  1       21 0.26160420E-01 0.45748008E+03</pdfrwt>
<pdfrwt beam="2">  1       21 0.43253559E-01 0.45748008E+03</pdfrwt>
<totfact> 0.65978451E+04</totfact>
</mgrwt>
</event>
<event>
 7    0  0.4725730E-002  0.4612909E+03  0.7546771E-02  0.1024407E+00
         21   -1    0    0  502  501  0.00000000000E+00  0.00000000000E+00  0.27172696840E+03  0.27172696840E+03  0.00000000000E+00 0. -1.
         21   -1    0    0  501  502 -0.00000000000E+00 -0.00000000000E+00 -0.19577490320E+03  0.19577490320E+03  0.00000000000E+00 0. -1.
      99926    2    1    2    0    0  0.00000000000E+00  0.00000000000E+00  0.75952065198E+02  0.46750187160E+03  0.46129088842E+03 0.  0.
      99925    2    3    3    0    0  0.96042704316E+02  0.30765160308E+02  0.11143619608E+03  0.30294997162E+03  0.26303985129E+03 0.  0.
         25    1    4    4    0    0  0.36727280455E+02 -0.15673079971E+02  0.79422817069E+02  0.15346019203E+03  0.12509000000E+03 0.  0.
         25    1    4    4    0    0  0.59315423861E+02  0.46438240279E+02  0.32013379011E+02  0.14948977960E+03  0.12509000000E+03 0.  0.
         25    1    3    3    0    0 -0.96042704316E+02 -0.30765160308E+02 -0.35484130881E+02  0.16455189998E+03  0.12509000000E+03 0.  0.
<mgrwt>
<rscale>  2 0.46129089E+03</rscale>
<asrwt>0</asrwt>
<pdfrwt beam="1">  1       21 0.39959848E-01 0.46129089E+03</pdfrwt>
<pdfrwt beam="2">  1       21 0.28790427E-01 0.46129089E+03</pdfrwt>
<totfact> 0.64346215E+04</totfact>
</mgrwt>
</event>
<event>
 7    0  0.4725730E-002  0.4476663E+03  0.7546771E-02  0.1028420E+00
         21   -1    0    0  502  501  0.00000000000E+00  0.00000000000E+00  0.38498860439E+03  0.38498860439E+03  0.00000000000E+00 0.  1.
         21   -1    0    0  501  502 -0.00000000000E+00 -0.00000000000E+00 -0.13013707277E+03  0.13013707277E+03  0.00000000000E+00 0.  1.
      99926    2    1    2    0    0  0.00000000000E+00  0.00000000000E+00  0.25485153161E+03  0.51512567716E+03  0.44766634909E+03 0.  0.
      99925    2    3    3    0    0 -0.35810507524E+02  0.67573438571E+02  0.24622835328E+03  0.36825692843E+03  0.26293763772E+03 0.  0.
         25    1    3    3    0    0  0.35810507524E+02 -0.67573438571E+02  0.86231783333E+01  0.14686874873E+03  0.12509000000E+03 0.  0.
         25    1    4    4    0    0 -0.37327600616E+02  0.12192733644E+02  0.15866264239E+03  0.20582360096E+03  0.12509000000E+03 0.  0.
         25    1    4    4    0    0  0.15170930922E+01  0.55380704927E+02  0.87565710891E+02  0.16243332747E+03  0.12509000000E+03 0.  0.
<mgrwt>
<rscale>  2 0.44766635E+03</rscale>
<asrwt>0</asrwt>
<pdfrwt beam="1">  1       21 0.56615971E-01 0.44766635E+03</pdfrwt>
<pdfrwt beam="2">  1       21 0.19137805E-01 0.44766635E+03</pdfrwt>
<totfact> 0.68097351E+04</totfact>
</mgrwt>
</event>
<event>
 7    0  0.4725730E-002  0.4519569E+03  0.7546771E-02  0.1027140E+00
         21   -1    0    0  502  501  0.00000000000E+00  0.00000000000E+00  0.76939701150E+03  0.76939701150E+03  0.00000000000E+00 0. -1.
         21   -1    0    0  501  502 -0.00000000000E+00 -0.00000000000E+00 -0.66371791821E+02  0.66371791821E+02  0.00000000000E+00 0. -1.
      99926    2    1    2    0    0  0.00000000000E+00  0.00000000000E+00  0.70302521968E+03  0.83576880332E+03  0.45195689297E+03 0.  0.
      99925    2    3    3    0    0  0.62395168272E+02 -0.37867360138E+02  0.59656822711E+03  0.65602539356E+03  0.26296116330E+03 0.  0.
         25    1    4    4    0    0 -0.67137218778E+01 -0.22578314701E+02  0.24200153304E+03  0.27343574099E+03  0.12509000000E+03 0.  0.
         25    1    4    4    0    0  0.69108890150E+02 -0.15289045436E+02  0.35456669407E+03  0.38258965257E+03  0.12509000000E+03 0.  0.
         25    1    3    3    0    0 -0.62395168272E+02  0.37867360138E+02  0.10645699257E+03  0.17974340977E+03  0.12509000000E+03 0.  0.
<mgrwt>
<rscale>  2 0.45195689E+03</rscale>
<asrwt>0</asrwt>
<pdfrwt beam="1">  1       21 0.11314661E+00 0.45195689E+03</pdfrwt>
<pdfrwt beam="2">  1       21 0.97605581E-02 0.45195689E+03</pdfrwt>
<totfact> 0.47199704E+04</totfact>
</mgrwt>
</event>
<event>
 7    0  0.4725730E-002  0.4530294E+03  0.7546771E-02  0.1026822E+00
         21   -1    0    0  502  501  0.00000000000E+00  0.00000000000E+00  0.21296400425E+03  0.21296400425E+03  0.00000000000E+00 0. -1.
         21   -1    0    0  501  502 -0.00000000000E+00 -0.00000000000E+00 -0.24092761947E+03  0.24092761947E+03  0.00000000000E+00 0. -1.
      99926    2    1    2    0    0  0.00000000000E+00  0.00000000000E+00 -0.27963615214E+02  0.45389162372E+03  0.45302940557E+03 0.  0.
      99925    2    3    3    0    0  0.20733884041E+02 -0.52580004755E+02  0.78492340594E+02  0.28018229906E+03  0.26295726331E+03 0.  0.
         25    1    4    4    0    0  0.21960308310E+02  0.95453750488E+01  0.54191570320E+02  0.13841099566E+03  0.12509000000E+03 0.  0.
         25    1    3    3    0    0 -0.20733884041E+02  0.52580004755E+02 -0.10645595581E+03  0.17370932466E+03  0.12509000000E+03 0.  0.
         25    1    4    4    0    0 -0.12264242687E+01 -0.62125379804E+02  0.24300770274E+02  0.14177130340E+03  0.12509000000E+03 0.  0.
<mgrwt>
<rscale>  2 0.45302941E+03</rscale>
<asrwt>0</asrwt>
<pdfrwt beam="1">  1       21 0.31318236E-01 0.45302941E+03</pdfrwt>
<pdfrwt beam="2">  1       21 0.35430532E-01 0.45302941E+03</pdfrwt>
<totfact> 0.69716828E+04</totfact>
</mgrwt>
</event>
<event>
 7    0  0.4725730E-002  0.4410184E+03  0.7546771E-02  0.1030435E+00
         21   -1    0    0  502  501  0.00000000000E+00  0.00000000000E+00  0.72604975046E+03  0.72604975046E+03  0.00000000000E+00 0. -1.
         21   -1    0    0  501  502 -0.00000000000E+00 -0.00000000000E+00 -0.66971054133E+02  0.66971054133E+02  0.00000000000E+00 0. -1.
      99926    2    1    2    0    0  0.00000000000E+00  0.00000000000E+00  0.65907869632E+03  0.79302080459E+03  0.44101844470E+03 0.  0.
      99925    2    3    3    0    0 -0.46669881446E+02 -0.73443913562E+02  0.50665797208E+03  0.57749430610E+03  0.26310698704E+03 0.  0.
         25    1    3    3    0    0  0.46669881446E+02  0.73443913562E+02  0.15242072424E+03  0.21552649849E+03  0.12509000000E+03 0.  0.
         25    1    4    4    0    0 -0.64069993305E+02 -0.45814778125E+02  0.27371450553E+03  0.31108053069E+03  0.12509000000E+03 0.  0.
         25    1    4    4    0    0  0.17400111859E+02 -0.27629135437E+02  0.23294346656E+03  0.26641377541E+03  0.12509000000E+03 0.  0.
<mgrwt>
<rscale>  2 0.44101844E+03</rscale>
<asrwt>0</asrwt>
<pdfrwt beam="1">  1       21 0.10677202E+00 0.44101844E+03</pdfrwt>
<pdfrwt beam="2">  1       21 0.98486848E-02 0.44101844E+03</pdfrwt>
<totfact> 0.53765772E+04</totfact>
</mgrwt>
</event>
<event>
 7    0  0.4725730E-002  0.4561004E+03  0.7546771E-02  0.1025918E+00
         21   -1    0    0  502  501  0.00000000000E+00  0.00000000000E+00  0.15040507909E+03  0.15040507909E+03  0.00000000000E+00 0. -1.
         21   -1    0    0  501  502 -0.00000000000E+00 -0.00000000000E+00 -0.34577891519E+03  0.34577891519E+03  0.00000000000E+00 0. -1.
      99926    2    1    2    0    0  0.00000000000E+00  0.00000000000E+00 -0.19537383610E+03  0.49618399428E+03  0.45610044985E+03 0.  0.
      99925    2    3    3    0    0 -0.79585284846E+02 -0.77179812962E+02 -0.15262463357E+03  0.32365705868E+03  0.26300013644E+03 0.  0.
         25    1    3    3    0    0  0.79585284846E+02  0.77179812962E+02 -0.42749202532E+02  0.17252693561E+03  0.12509000000E+03 0.  0.
         25    1    4    4    0    0 -0.74073193289E+02 -0.66005882050E+02 -0.82601774271E+02  0.17976144092E+03  0.12509000000E+03 0.  0.
         25    1    4    4    0    0 -0.55120915575E+01 -0.11173930912E+02 -0.70022859295E+02  0.14389561776E+03  0.12509000000E+03 0.  0.
<mgrwt>
<rscale>  2 0.45610045E+03</rscale>
<asrwt>0</asrwt>
<pdfrwt beam="1">  1       21 0.22118394E-01 0.45610045E+03</pdfrwt>
<pdfrwt beam="2">  1       21 0.50849840E-01 0.45610045E+03</pdfrwt>
<totfact> 0.64970151E+04</totfact>
</mgrwt>
</event>
<event>
 7    0  0.4725730E-002  0.4552098E+03  0.7546771E-02  0.1026180E+00
         21   -1    0    0  502  501  0.00000000000E+00  0.00000000000E+00  0.62478571611E+03  0.62478571611E+03  0.00000000000E+00 0. -1.
         21   -1    0    0  501  502 -0.00000000000E+00 -0.00000000000E+00 -0.82914801752E+02  0.82914801752E+02  0.00000000000E+00 0. -1.
      99926    2    1    2    0    0  0.00000000000E+00  0.00000000000E+00  0.54187091436E+03  0.70770051786E+03  0.45520977049E+03 0.  0.
      99925    2    3    3    0    0 -0.80096814799E+02  0.79189113044E+02  0.31944203306E+03  0.42875871263E+03  0.26287716868E+03 0.  0.
         25    1    4    4    0    0 -0.16173456572E+02  0.13607262538E+02  0.18019456719E+03  0.22037315725E+03  0.12509000000E+03 0.  0.
         25    1    4    4    0    0 -0.63923358226E+02  0.65581850506E+02  0.13924746586E+03  0.20838555538E+03  0.12509000000E+03 0.  0.
         25    1    3    3    0    0  0.80096814799E+02 -0.79189113044E+02  0.22242888130E+03  0.27894180522E+03  0.12509000000E+03 0.  0.
<mgrwt>
<rscale>  2 0.45520977E+03</rscale>
<asrwt>0</asrwt>
<pdfrwt beam="1">  1       21 0.91880250E-01 0.45520977E+03</pdfrwt>
<pdfrwt beam="2">  1       21 0.12193353E-01 0.45520977E+03</pdfrwt>
<totfact> 0.52400326E+04</totfact>
</mgrwt>
</event>
<event>
 7    0  0.4725730E-002  0.4548862E+03  0.7546771E-02  0.1026275E+00
         21   -1    0    0  502  501  0.00000000000E+00  0.00000000000E+00  0.16818178299E+03  0.16818178299E+03  0.00000000000E+00 0. -1.
         21   -1    0    0  501  502 -0.00000000000E+00 -0.00000000000E+00 -0.30758599913E+03  0.30758599913E+03  0.00000000000E+00 0. -1.
      99926    2    1    2    0    0 -0.14210854715E-13  0.00000000000E+00 -0.13940421615E+03  0.47576778212E+03  0.45488619129E+03 0.  0.
      99925    2    3    3    0    0  0.97890014842E+02 -0.40814947130E+02 -0.12796665355E+03  0.31136996932E+03  0.26330111747E+03 0.  0.
         25    1    4    4    0    0  0.33730479885E+02 -0.34759026537E+02 -0.23657208543E+02  0.13620978972E+03  0.12509000000E+03 0.  0.
         25    1    3    3    0    0 -0.97890014842E+02  0.40814947130E+02 -0.11437562594E+02  0.16439781280E+03  0.12509000000E+03 0.  0.
         25    1    4    4    0    0  0.64159534956E+02 -0.60559205926E+01 -0.10430944501E+03  0.17516017960E+03  0.12509000000E+03 0.  0.
<mgrwt>
<rscale>  2 0.45488619E+03</rscale>
<asrwt>0</asrwt>
<pdfrwt beam="1">  1       21 0.24732615E-01 0.45488619E+03</pdfrwt>
<pdfrwt beam="2">  1       21 0.45233235E-01 0.45488619E+03</pdfrwt>
<totfact> 0.67070045E+04</totfact>
</mgrwt>
</event>
<event>
 7    0  0.4725730E-002  0.4962587E+03  0.7546771E-02  0.1014760E+00
         21   -1    0    0  502  501  0.00000000000E+00  0.00000000000E+00  0.24495665390E+03  0.24495665390E+03  0.00000000000E+00 0. -1.
         21   -1    0    0  501  502 -0.00000000000E+00 -0.00000000000E+00 -0.25134318101E+03  0.25134318101E+03  0.00000000000E+00 0. -1.
      99926    2    1    2    0    0  0.00000000000E+00  0.00000000000E+00 -0.63865271064E+01  0.49629983491E+03  0.49625874139E+03 0.  0.
      99925    2    3    3    0    0 -0.80207094283E+01 -0.13831538612E+03  0.49925232491E+02  0.30132804160E+03  0.26288891570E+03 0.  0.
         25    1    4    4    0    0 -0.28931659627E+02 -0.10026140040E+03  0.10810607809E+02  0.16325981343E+03  0.12509000000E+03 0.  0.
         25    1    4    4    0    0  0.20910950199E+02 -0.38053985722E+02  0.39114624682E+02  0.13806822818E+03  0.12509000000E+03 0.  0.
         25    1    3    3    0    0  0.80207094283E+01  0.13831538612E+03 -0.56311759597E+02  0.19497179331E+03  0.12509000000E+03 0.  0.
<mgrwt>
<rscale>  2 0.49625874E+03</rscale>
<asrwt>0</asrwt>
<pdfrwt beam="1">  1       21 0.36023038E-01 0.49625874E+03</pdfrwt>
<pdfrwt beam="2">  1       21 0.36962232E-01 0.49625874E+03</pdfrwt>
<totfact> 0.47827696E+04</totfact>
</mgrwt>
</event>
<event>
 7    0  0.4725730E-002  0.4567587E+03  0.7546771E-02  0.1025725E+00
         21   -1    0    0  502  501  0.00000000000E+00  0.00000000000E+00  0.46655736136E+03  0.46655736136E+03  0.00000000000E+00 0. -1.
         21   -1    0    0  501  502 -0.00000000000E+00 -0.00000000000E+00 -0.11179145056E+03  0.11179145056E+03  0.00000000000E+00 0. -1.
      99926    2    1    2    0    0  0.00000000000E+00  0.00000000000E+00  0.35476591080E+03  0.57834881193E+03  0.45675868551E+03 0.  0.
      99925    2    3    3    0    0 -0.17176892794E+02 -0.91395924059E+02  0.30820129846E+03  0.41567111891E+03  0.26295660887E+03 0.  0.
         25    1    4    4    0    0 -0.66196582542E+01 -0.24597062363E+02  0.19879298443E+03  0.23625197166E+03  0.12509000000E+03 0.  0.
         25    1    3    3    0    0  0.17176892794E+02  0.91395924059E+02  0.46564612346E+02  0.16267769301E+03  0.12509000000E+03 0.  0.
         25    1    4    4    0    0 -0.10557234540E+02 -0.66798861696E+02  0.10940831402E+03  0.17941914726E+03  0.12509000000E+03 0.  0.
<mgrwt>
<rscale>  2 0.45675869E+03</rscale>
<asrwt>0</asrwt>
<pdfrwt beam="1">  1       21 0.68611376E-01 0.45675869E+03</pdfrwt>
<pdfrwt beam="2">  1       21 0.16439919E-01 0.45675869E+03</pdfrwt>
<totfact> 0.59203654E+04</totfact>
</mgrwt>
</event>
<event>
 7    0  0.4725730E-002  0.4639019E+03  0.7546771E-02  0.1023656E+00
         21   -1    0    0  502  501  0.00000000000E+00  0.00000000000E+00  0.41110570212E+03  0.41110570212E+03  0.00000000000E+00 0.  1.
         21   -1    0    0  501  502 -0.00000000000E+00 -0.00000000000E+00 -0.13086961528E+03  0.13086961528E+03  0.00000000000E+00 0.  1.
      99926    2    1    2    0    0  0.00000000000E+00  0.55511151231E-15  0.28023608684E+03  0.54197531740E+03  0.46390190806E+03 0.  0.
      99925    2    3    3    0    0 -0.10933198467E+03  0.77175659413E+00  0.11370990132E+03  0.30674658394E+03  0.26307688348E+03 0.  0.
         25    1    4    4    0    0 -0.44150255720E+02 -0.10417188181E+02  0.96148834247E+02  0.16416415357E+03  0.12509000000E+03 0.  0.
         25    1    4    4    0    0 -0.65181728951E+02  0.11188944775E+02  0.17561067075E+02  0.14258243037E+03  0.12509000000E+03 0.  0.
         25    1    3    3    0    0  0.10933198467E+03 -0.77175659413E+00  0.16652618552E+03  0.23522873346E+03  0.12509000000E+03 0.  0.
<mgrwt>
<rscale>  2 0.46390191E+03</rscale>
<asrwt>0</asrwt>
<pdfrwt beam="1">  1       21 0.60456721E-01 0.46390191E+03</pdfrwt>
<pdfrwt beam="2">  1       21 0.19245532E-01 0.46390191E+03</pdfrwt>
<totfact> 0.58188502E+04</totfact>
</mgrwt>
</event>
<event>
 7    0  0.4725730E-002  0.4533043E+03  0.7546771E-02  0.1026741E+00
         21   -1    0    0  502  501  0.00000000000E+00  0.00000000000E+00  0.83327453030E+02  0.83327453030E+02  0.00000000000E+00 0.  1.
         21   -1    0    0  501  502 -0.00000000000E+00 -0.00000000000E+00 -0.61649796144E+03  0.61649796144E+03  0.00000000000E+00 0.  1.
      99926    2    1    2    0    0  0.00000000000E+00  0.00000000000E+00 -0.53317050841E+03  0.69982541447E+03  0.45330433452E+03 0.  0.
      99925    2    3    3    0    0 -0.69726978373E+02 -0.36705506806E+02 -0.45811798744E+03  0.53402573188E+03  0.26287306090E+03 0.  0.
         25    1    4    4    0    0 -0.61124719651E+02 -0.50819882619E+02 -0.25205882999E+03  0.29240392217E+03  0.12509000000E+03 0.  0.
         25    1    4    4    0    0 -0.86022587224E+01  0.14114375813E+02 -0.20605915745E+03  0.24162180971E+03  0.12509000000E+03 0.  0.
         25    1    3    3    0    0  0.69726978373E+02  0.36705506806E+02 -0.75052520967E+02  0.16579968259E+03  0.12509000000E+03 0.  0.
<mgrwt>
<rscale>  2 0.45330433E+03</rscale>
<asrwt>0</asrwt>
<pdfrwt beam="1">  1       21 0.12254038E-01 0.45330433E+03</pdfrwt>
<pdfrwt beam="2">  1       21 0.90661462E-01 0.45330433E+03</pdfrwt>
<totfact> 0.53624456E+04</totfact>
</mgrwt>
</event>
<event>
 7    0  0.4725730E-002  0.4547861E+03  0.7546771E-02  0.1026304E+00
         21   -1    0    0  502  501  0.00000000000E+00  0.00000000000E+00  0.11041505591E+03  0.11041505591E+03  0.00000000000E+00 0. -1.
         21   -1    0    0  501  502 -0.00000000000E+00 -0.00000000000E+00 -0.46830213899E+03  0.46830213899E+03  0.00000000000E+00 0. -1.
      99926    2    1    2    0    0  0.00000000000E+00  0.71054273576E-14 -0.35788708308E+03  0.57871719490E+03  0.45478613373E+03 0.  0.
      99925    2    3    3    0    0 -0.67429066453E+02  0.51615567716E+02 -0.32002915763E+03  0.42285964310E+03  0.26302237585E+03 0.  0.
         25    1    4    4    0    0 -0.45867996699E+02  0.65627715918E+02 -0.17932145011E+03  0.23284020440E+03  0.12509000000E+03 0.  0.
         25    1    4    4    0    0 -0.21561069754E+02 -0.14012148202E+02 -0.14070770752E+03  0.19001943869E+03  0.12509000000E+03 0.  0.
         25    1    3    3    0    0  0.67429066453E+02 -0.51615567716E+02 -0.37857925453E+02  0.15585755180E+03  0.12509000000E+03 0.  0.
<mgrwt>
<rscale>  2 0.45478613E+03</rscale>
<asrwt>0</asrwt>
<pdfrwt beam="1">  1       21 0.16237509E-01 0.45478613E+03</pdfrwt>
<pdfrwt beam="2">  1       21 0.68867959E-01 0.45478613E+03</pdfrwt>
<totfact> 0.60109354E+04</totfact>
</mgrwt>
</event>
<event>
 7    0  0.4725730E-002  0.4585351E+03  0.7546771E-02  0.1025207E+00
         21   -1    0    0  502  501  0.00000000000E+00  0.00000000000E+00  0.13812930437E+04  0.13812930437E+04  0.00000000000E+00 0.  1.
         21   -1    0    0  501  502 -0.00000000000E+00 -0.00000000000E+00 -0.38053913619E+02  0.38053913619E+02  0.00000000000E+00 0.  1.
      99926    2    1    2    0    0  0.00000000000E+00  0.00000000000E+00  0.13432391300E+04  0.14193469573E+04  0.45853508553E+03 0.  0.
      99925    2    3    3    0    0  0.99171148628E+02 -0.60689407154E+02  0.81934201180E+03  0.86831717636E+03  0.26293585833E+03 0.  0.
         25    1    4    4    0    0  0.10115855641E+02 -0.13950134302E+02  0.33061421619E+03  0.35390705677E+03  0.12509000000E+03 0.  0.
         25    1    3    3    0    0 -0.99171148628E+02  0.60689407154E+02  0.52389711825E+03  0.55102978093E+03  0.12509000000E+03 0.  0.
         25    1    4    4    0    0  0.89055292986E+02 -0.46739272852E+02  0.48872779561E+03  0.51441011959E+03  0.12509000000E+03 0.  0.
<mgrwt>
<rscale>  2 0.45853509E+03</rscale>
<asrwt>0</asrwt>
<pdfrwt beam="1">  1       21 0.20313130E+00 0.45853509E+03</pdfrwt>
<pdfrwt beam="2">  1       21 0.55961647E-02 0.45853509E+03</pdfrwt>
<totfact> 0.25123738E+04</totfact>
</mgrwt>
</event>
<event>
 7    0  0.4725730E-002  0.4531553E+03  0.7546771E-02  0.1026785E+00
         21   -1    0    0  502  501  0.00000000000E+00  0.00000000000E+00  0.71564218682E+03  0.71564218682E+03  0.00000000000E+00 0.  1.
         21   -1    0    0  501  502 -0.00000000000E+00 -0.00000000000E+00 -0.71736157930E+02  0.71736157930E+02  0.00000000000E+00 0.  1.
      99926    2    1    2    0    0 -0.35527136788E-14  0.00000000000E+00  0.64390602889E+03  0.78737834475E+03  0.45315525346E+03 0.  0.
      99925    2    3    3    0    0 -0.31745386571E+02 -0.98377775341E+02  0.33383299500E+03  0.43740870221E+03  0.26305122690E+03 0.  0.
         25    1    4    4    0    0  0.37145371004E+00 -0.57205139030E+02  0.22437589574E+03  0.26318171783E+03  0.12509000000E+03 0.  0.
         25    1    3    3    0    0  0.31745386571E+02  0.98377775341E+02  0.31007303389E+03  0.34996964253E+03  0.12509000000E+03 0.  0.
         25    1    4    4    0    0 -0.32116840281E+02 -0.41172636312E+02  0.10945709926E+03  0.17422698439E+03  0.12509000000E+03 0.  0.
<mgrwt>
<rscale>  2 0.45315525E+03</rscale>
<asrwt>0</asrwt>
<pdfrwt beam="1">  1       21 0.10524149E+00 0.45315525E+03</pdfrwt>
<pdfrwt beam="2">  1       21 0.10549435E-01 0.45315525E+03</pdfrwt>
<totfact> 0.49088280E+04</totfact>
</mgrwt>
</event>
<event>
 7    0  0.4725730E-002  0.4575756E+03  0.7546771E-02  0.1025487E+00
         21   -1    0    0  502  501  0.00000000000E+00  0.00000000000E+00  0.11490381611E+04  0.11490381611E+04  0.00000000000E+00 0. -1.
         21   -1    0    0  501  502 -0.00000000000E+00 -0.00000000000E+00 -0.45554488791E+02  0.45554488791E+02  0.00000000000E+00 0. -1.
      99926    2    1    2    0    0  0.00000000000E+00  0.00000000000E+00  0.11034836723E+04  0.11945926499E+04  0.45757555017E+03 0.  0.
      99925    2    3    3    0    0  0.17146159992E+02 -0.20264072470E+02  0.39917502046E+03  0.47876948136E+03  0.26301120867E+03 0.  0.
         25    1    3    3    0    0 -0.17146159992E+02  0.20264072470E+02  0.70430865182E+03  0.71582316850E+03  0.12509000000E+03 0.  0.
         25    1    4    4    0    0  0.22593064675E+00 -0.39212575841E+02  0.15307767129E+03  0.20153897563E+03  0.12509000000E+03 0.  0.
         25    1    4    4    0    0  0.16920229345E+02  0.18948503371E+02  0.24609734917E+03  0.27723050573E+03  0.12509000000E+03 0.  0.
<mgrwt>
<rscale>  2 0.45757555E+03</rscale>
<asrwt>0</asrwt>
<pdfrwt beam="1">  1       21 0.16897618E+00 0.45757555E+03</pdfrwt>
<pdfrwt beam="2">  1       21 0.66991903E-02 0.45757555E+03</pdfrwt>
<totfact> 0.31687222E+04</totfact>
</mgrwt>
</event>
<event>
 7    0  0.4725730E-002  0.4588344E+03  0.7546771E-02  0.1025120E+00
         21   -1    0    0  502  501  0.00000000000E+00  0.00000000000E+00  0.28956653169E+03  0.28956653169E+03  0.00000000000E+00 0.  1.
         21   -1    0    0  501  502 -0.00000000000E+00 -0.00000000000E+00 -0.18176221741E+03  0.18176221741E+03  0.00000000000E+00 0.  1.
      99926    2    1    2    0    0  0.35527136788E-14  0.00000000000E+00  0.10780431428E+03  0.47132874910E+03  0.45883441409E+03 0.  0.
      99925    2    3    3    0    0  0.18532462548E+02 -0.11366796031E+02 -0.50010889202E+02  0.26878047641E+03  0.26319042392E+03 0.  0.
         25    1    4    4    0    0  0.51214307581E+01 -0.28184186123E+02 -0.59599867944E+02  0.14149286116E+03  0.12509000000E+03 0.  0.
         25    1    4    4    0    0  0.13411031790E+02  0.16817390093E+02  0.95889787423E+01  0.12728761525E+03  0.12509000000E+03 0.  0.
         25    1    3    3    0    0 -0.18532462548E+02  0.11366796031E+02  0.15781520348E+03  0.20254827269E+03  0.12509000000E+03 0.  0.
<mgrwt>
<rscale>  2 0.45883441E+03</rscale>
<asrwt>0</asrwt>
<pdfrwt beam="1">  1       21 0.42583314E-01 0.45883441E+03</pdfrwt>
<pdfrwt beam="2">  1       21 0.26729738E-01 0.45883441E+03</pdfrwt>
<totfact> 0.65327362E+04</totfact>
</mgrwt>
</event>
<event>
 7    0  0.4725730E-002  0.4343598E+03  0.7546771E-02  0.1032492E+00
         21   -1    0    0  502  501  0.00000000000E+00  0.00000000000E+00  0.16795276265E+03  0.16795276265E+03  0.00000000000E+00 0.  1.
         21   -1    0    0  501  502 -0.00000000000E+00 -0.00000000000E+00 -0.28083553646E+03  0.28083553646E+03  0.00000000000E+00 0.  1.
      99926    2    1    2    0    0 -0.17763568394E-14  0.00000000000E+00 -0.11288277380E+03  0.44878829911E+03  0.43435977806E+03 0.  0.
      99925    2    3    3    0    0 -0.93489837915E+01  0.85329791512E+02 -0.36926814354E+02  0.27912571427E+03  0.26301900679E+03 0.  0.
         25    1    4    4    0    0 -0.29437994191E+02  0.22716619680E+02  0.82492399142E+01  0.13076007942E+03  0.12509000000E+03 0.  0.
         25    1    3    3    0    0  0.93489837915E+01 -0.85329791512E+02 -0.75955959448E+02  0.16966258484E+03  0.12509000000E+03 0.  0.
         25    1    4    4    0    0  0.20089010399E+02  0.62613171832E+02 -0.45176054268E+02  0.14836563485E+03  0.12509000000E+03 0.  0.
<mgrwt>
<rscale>  2 0.43435978E+03</rscale>
<asrwt>0</asrwt>
<pdfrwt beam="1">  1       21 0.24698936E-01 0.43435978E+03</pdfrwt>
<pdfrwt beam="2">  1       21 0.41299343E-01 0.43435978E+03</pdfrwt>
<totfact> 0.81611347E+04</totfact>
</mgrwt>
</event>
<event>
 7    0  0.4725730E-002  0.4546024E+03  0.7546771E-02  0.1026358E+00
         21   -1    0    0  502  501  0.00000000000E+00  0.00000000000E+00  0.26648559097E+04  0.26648559097E+04  0.00000000000E+00 0. -1.
         21   -1    0    0  501  502 -0.00000000000E+00 -0.00000000000E+00 -0.19387854355E+02  0.19387854355E+02  0.00000000000E+00 0. -1.
      99926    2    1    2    0    0 -0.88817841970E-15  0.71054273576E-14  0.26454680554E+04  0.26842437641E+04  0.45460241202E+03 0.  0.
      99925    2    3    3    0    0 -0.51406749227E+01  0.48478570285E+02  0.10652027081E+04  0.10982857967E+04  0.26305566643E+03 0.  0.
         25    1    4    4    0    0  0.34083510871E+02  0.38297930515E+02  0.58383128339E+03  0.59927864367E+03  0.12509000000E+03 0.  0.
         25    1    3    3    0    0  0.51406749227E+01 -0.48478570285E+02  0.15802653473E+04  0.15859579674E+04  0.12509000000E+03 0.  0.
         25    1    4    4    0    0 -0.39224185793E+02  0.10180639769E+02  0.48137142470E+03  0.49900715305E+03  0.12509000000E+03 0.  0.
<mgrwt>
<rscale>  2 0.45460241E+03</rscale>
<asrwt>0</asrwt>
<pdfrwt beam="1">  1       21 0.39189032E+00 0.45460241E+03</pdfrwt>
<pdfrwt beam="2">  1       21 0.28511569E-02 0.45460241E+03</pdfrwt>
<totfact> 0.54413757E+03</totfact>
</mgrwt>
</event>
<event>
 7    0  0.4725730E-002  0.4522484E+03  0.7546771E-02  0.1027054E+00
         21   -1    0    0  502  501  0.00000000000E+00  0.00000000000E+00  0.20017136621E+03  0.20017136621E+03  0.00000000000E+00 0.  1.
         21   -1    0    0  501  502 -0.00000000000E+00 -0.00000000000E+00 -0.25544185680E+03  0.25544185680E+03  0.00000000000E+00 0.  1.
      99926    2    1    2    0    0  0.00000000000E+00  0.00000000000E+00 -0.55270490587E+02  0.45561322301E+03  0.45224836301E+03 0.  0.
      99925    2    3    3    0    0  0.91999967996E+02  0.22052390737E+02  0.22719307665E+02  0.28045552612E+03  0.26303770289E+03 0.  0.
         25    1    3    3    0    0 -0.91999967996E+02 -0.22052390737E+02 -0.77989798252E+02  0.17515769689E+03  0.12509000000E+03 0.  0.
         25    1    4    4    0    0  0.36790877986E+02  0.36733908371E+02 -0.18904460921E+02  0.13677658963E+03  0.12509000000E+03 0.  0.
         25    1    4    4    0    0  0.55209090010E+02 -0.14681517634E+02  0.41623768587E+02  0.14367893649E+03  0.12509000000E+03 0.  0.
<mgrwt>
<rscale>  2 0.45224836E+03</rscale>
<asrwt>0</asrwt>
<pdfrwt beam="1">  1       21 0.29436966E-01 0.45224836E+03</pdfrwt>
<pdfrwt beam="2">  1       21 0.37564979E-01 0.45224836E+03</pdfrwt>
<totfact> 0.70025483E+04</totfact>
</mgrwt>
</event>
<event>
 7    0  0.4725730E-002  0.4483843E+03  0.7546771E-02  0.1028205E+00
         21   -1    0    0  502  501  0.00000000000E+00  0.00000000000E+00  0.27732292498E+03  0.27732292498E+03  0.00000000000E+00 0. -1.
         21   -1    0    0  501  502 -0.00000000000E+00 -0.00000000000E+00 -0.18124039072E+03  0.18124039072E+03  0.00000000000E+00 0. -1.
      99926    2    1    2    0    0  0.35527136788E-14  0.00000000000E+00  0.96082534265E+02  0.45856331570E+03  0.44838427839E+03 0.  0.
      99925    2    3    3    0    0 -0.21020116772E+02  0.80308918469E+02  0.12958567529E+03  0.30474089778E+03  0.26302699452E+03 0.  0.
         25    1    3    3    0    0  0.21020116772E+02 -0.80308918469E+02 -0.33503141025E+02  0.15382241792E+03  0.12509000000E+03 0.  0.
         25    1    4    4    0    0 -0.46492020241E+02  0.24166435251E+02  0.52755521983E+02  0.14552036881E+03  0.12509000000E+03 0.  0.
         25    1    4    4    0    0  0.25471903469E+02  0.56142483219E+02  0.76830153308E+02  0.15922052897E+03  0.12509000000E+03 0.  0.
<mgrwt>
<rscale>  2 0.44838428E+03</rscale>
<asrwt>0</asrwt>
<pdfrwt beam="1">  1       21 0.40782783E-01 0.44838428E+03</pdfrwt>
<pdfrwt beam="2">  1       21 0.26652999E-01 0.44838428E+03</pdfrwt>
<totfact> 0.72001145E+04</totfact>
</mgrwt>
</event>
<event>
 7    0  0.4725730E-002  0.4521418E+03  0.7546771E-02  0.1027085E+00
         21   -1    0    0  502  501  0.00000000000E+00  0.00000000000E+00  0.90897668436E+02  0.90897668436E+02  0.00000000000E+00 0. -1.
         21   -1    0    0  501  502 -0.00000000000E+00 -0.00000000000E+00 -0.56225927108E+03  0.56225927108E+03  0.00000000000E+00 0. -1.
      99926    2    1    2    0    0  0.17763568394E-14  0.14210854715E-13 -0.47136160265E+03  0.65315693952E+03  0.45214182199E+03 0.  0.
      99925    2    3    3    0    0 -0.57881078876E+01 -0.10963789399E+03 -0.28139837359E+03  0.40059505307E+03  0.26312997148E+03 0.  0.
         25    1    4    4    0    0 -0.25356637143E+02 -0.85368995125E+02 -0.12561207607E+03  0.19838529716E+03  0.12509000000E+03 0.  0.
         25    1    4    4    0    0  0.19568529256E+02 -0.24268898869E+02 -0.15578629751E+03  0.20220975590E+03  0.12509000000E+03 0.  0.
         25    1    3    3    0    0  0.57881078876E+01  0.10963789399E+03 -0.18996322906E+03  0.25256188645E+03  0.12509000000E+03 0.  0.
<mgrwt>
<rscale>  2 0.45214182E+03</rscale>
<asrwt>0</asrwt>
<pdfrwt beam="1">  1       21 0.13367304E-01 0.45214182E+03</pdfrwt>
<pdfrwt beam="2">  1       21 0.82685187E-01 0.45214182E+03</pdfrwt>
<totfact> 0.56789525E+04</totfact>
</mgrwt>
</event>
<event>
 7    0  0.4725730E-002  0.4571013E+03  0.7546771E-02  0.1025625E+00
         21   -1    0    0  502  501  0.00000000000E+00  0.00000000000E+00  0.97420307329E+03  0.97420307329E+03  0.00000000000E+00 0.  1.
         21   -1    0    0  501  502 -0.00000000000E+00 -0.00000000000E+00 -0.53618600775E+02  0.53618600775E+02  0.00000000000E+00 0.  1.
      99926    2    1    2    0    0 -0.17763568394E-14  0.00000000000E+00  0.92058447252E+03  0.10278216741E+04  0.45710132645E+03 0.  0.
      99925    2    3    3    0    0  0.89055464722E+01 -0.10810869963E+03  0.49085139188E+03  0.56729498821E+03  0.26291008928E+03 0.  0.
         25    1    4    4    0    0  0.93534205767E+01 -0.56699708441E+02  0.32729273246E+03  0.35506391571E+03  0.12509000000E+03 0.  0.
         25    1    4    4    0    0 -0.44787410456E+00 -0.51408991185E+02  0.16355865942E+03  0.21223107250E+03  0.12509000000E+03 0.  0.
         25    1    3    3    0    0 -0.89055464722E+01  0.10810869963E+03  0.42973308064E+03  0.46052668586E+03  0.12509000000E+03 0.  0.
<mgrwt>
<rscale>  2 0.45710133E+03</rscale>
<asrwt>0</asrwt>
<pdfrwt beam="1">  1       21 0.14326515E+00 0.45710133E+03</pdfrwt>
<pdfrwt beam="2">  1       21 0.78850890E-02 0.45710133E+03</pdfrwt>
<totfact> 0.37483148E+04</totfact>
</mgrwt>
</event>
<event>
 7    0  0.4725730E-002  0.4329349E+03  0.7546771E-02  0.1032937E+00
         21   -1    0    0  502  501  0.00000000000E+00  0.00000000000E+00  0.21563973120E+04  0.21563973120E+04  0.00000000000E+00 0. -1.
         21   -1    0    0  501  502 -0.00000000000E+00 -0.00000000000E+00 -0.21729831456E+02  0.21729831456E+02  0.00000000000E+00 0. -1.
      99926    2    1    2    0    0  0.00000000000E+00  0.71054273576E-14  0.21346674805E+04  0.21781271434E+04  0.43293486873E+03 0.  0.
      99925    2    3    3    0    0 -0.75301486993E+02 -0.41930286559E+02  0.15184212214E+04  0.15434339712E+04  0.26297709984E+03 0.  0.
         25    1    3    3    0    0  0.75301486993E+02  0.41930286559E+02  0.61624625908E+03  0.63469317217E+03  0.12509000000E+03 0.  0.
         25    1    4    4    0    0 -0.46228231535E+02  0.99958921470E+01  0.88460165768E+03  0.89465332287E+03  0.12509000000E+03 0.  0.
         25    1    4    4    0    0 -0.29073255458E+02 -0.51926178706E+02  0.63381956374E+03  0.64878064837E+03  0.12509000000E+03 0.  0.
<mgrwt>
<rscale>  2 0.43293487E+03</rscale>
<asrwt>0</asrwt>
<pdfrwt beam="1">  1       21 0.31711710E+00 0.43293487E+03</pdfrwt>
<pdfrwt beam="2">  1       21 0.31955649E-02 0.43293487E+03</pdfrwt>
<totfact> 0.13122553E+04</totfact>
</mgrwt>
</event>
<event>
 7    0  0.4725730E-002  0.4547401E+03  0.7546771E-02  0.1026318E+00
         21   -1    0    0  502  501  0.00000000000E+00  0.00000000000E+00  0.69549437059E+02  0.69549437059E+02  0.00000000000E+00 0. -1.
         21   -1    0    0  501  502 -0.00000000000E+00 -0.00000000000E+00 -0.74331492359E+03  0.74331492359E+03  0.00000000000E+00 0. -1.
      99926    2    1    2    0    0  0.00000000000E+00  0.00000000000E+00 -0.67376548653E+03  0.81286436065E+03  0.45474007738E+03 0.  0.
      99925    2    3    3    0    0  0.49877966042E+02  0.43739720325E+02 -0.25856829769E+03  0.37418772763E+03  0.26221730742E+03 0.  0.
         25    1    4    4    0    0  0.52006535955E+02  0.32155999822E+02 -0.97814825142E+02  0.17015856201E+03  0.12509000000E+03 0.  0.
         25    1    3    3    0    0 -0.49877966042E+02 -0.43739720325E+02 -0.41519718884E+03  0.43867663301E+03  0.12509000000E+03 0.  0.
         25    1    4    4    0    0 -0.21285699135E+01  0.11583720503E+02 -0.16075347255E+03  0.20402916563E+03  0.12509000000E+03 0.  0.
<mgrwt>
<rscale>  2 0.45474008E+03</rscale>
<asrwt>0</asrwt>
<pdfrwt beam="1">  1       21 0.10227859E-01 0.45474008E+03</pdfrwt>
<pdfrwt beam="2">  1       21 0.10931101E+00 0.45474008E+03</pdfrwt>
<totfact> 0.47245155E+04</totfact>
</mgrwt>
</event>
<event>
 7    0  0.4725730E-002  0.4556263E+03  0.7546771E-02  0.1026057E+00
         21   -1    0    0  502  501  0.00000000000E+00  0.00000000000E+00  0.70739310547E+02  0.70739310547E+02  0.00000000000E+00 0. -1.
         21   -1    0    0  501  502 -0.00000000000E+00 -0.00000000000E+00 -0.73366330765E+03  0.73366330765E+03  0.00000000000E+00 0. -1.
      99926    2    1    2    0    0  0.00000000000E+00  0.17763568394E-14 -0.66292399711E+03  0.80440261820E+03  0.45562632302E+03 0.  0.
      99925    2    3    3    0    0  0.79379551341E+02 -0.60767038388E+01 -0.56051255033E+03  0.62419814536E+03  0.26288964623E+03 0.  0.
         25    1    3    3    0    0 -0.79379551341E+02  0.60767038388E+01 -0.10241144677E+03  0.18020447284E+03  0.12509000000E+03 0.  0.
         25    1    4    4    0    0  0.58118913724E+02 -0.38383701636E+02 -0.31286809768E+03  0.34407131721E+03  0.12509000000E+03 0.  0.
         25    1    4    4    0    0  0.21260637617E+02  0.32306997797E+02 -0.24764445265E+03  0.28012682815E+03  0.12509000000E+03 0.  0.
<mgrwt>
<rscale>  2 0.45562632E+03</rscale>
<asrwt>0</asrwt>
<pdfrwt beam="1">  1       21 0.10402839E-01 0.45562632E+03</pdfrwt>
<pdfrwt beam="2">  1       21 0.10789167E+00 0.45562632E+03</pdfrwt>
<totfact> 0.47319583E+04</totfact>
</mgrwt>
</event>
<event>
 7    0  0.4725730E-002  0.4517974E+03  0.7546771E-02  0.1027187E+00
         21   -1    0    0  502  501  0.00000000000E+00  0.00000000000E+00  0.18591618741E+03  0.18591618741E+03  0.00000000000E+00 0.  1.
         21   -1    0    0  501  502 -0.00000000000E+00 -0.00000000000E+00 -0.27447967259E+03  0.27447967259E+03  0.00000000000E+00 0.  1.
      99926    2    1    2    0    0  0.00000000000E+00  0.00000000000E+00 -0.88563485176E+02  0.46039586001E+03  0.45179736277E+03 0.  0.
      99925    2    3    3    0    0 -0.20569157390E+02 -0.78589315728E+02 -0.13163334574E+03  0.30514802018E+03  0.26303727060E+03 0.  0.
         25    1    4    4    0    0 -0.38160893700E+02 -0.94949405779E+01 -0.68375222023E+02  0.14788200293E+03  0.12509000000E+03 0.  0.
         25    1    4    4    0    0  0.17591736310E+02 -0.69094375151E+02 -0.63258123717E+02  0.15726601724E+03  0.12509000000E+03 0.  0.
         25    1    3    3    0    0  0.20569157390E+02  0.78589315728E+02  0.43069860565E+02  0.15524783983E+03  0.12509000000E+03 0.  0.
<mgrwt>
<rscale>  2 0.45179736E+03</rscale>
<asrwt>0</asrwt>
<pdfrwt beam="1">  1       21 0.27340616E-01 0.45179736E+03</pdfrwt>
<pdfrwt beam="2">  1       21 0.40364657E-01 0.45179736E+03</pdfrwt>
<totfact> 0.69916446E+04</totfact>
</mgrwt>
</event>
<event>
 7    0  0.4725730E-002  0.4590277E+03  0.7546771E-02  0.1025064E+00
         21   -1    0    0  502  501  0.00000000000E+00  0.00000000000E+00  0.39334988619E+02  0.39334988619E+02  0.00000000000E+00 0. -1.
         21   -1    0    0  501  502 -0.00000000000E+00 -0.00000000000E+00 -0.13391792548E+04  0.13391792548E+04  0.00000000000E+00 0. -1.
      99926    2    1    2    0    0  0.14210854715E-13  0.00000000000E+00 -0.12998442662E+04  0.13785142434E+04  0.45902767126E+03 0.  0.
      99925    2    3    3    0    0 -0.85456162929E+02 -0.48403037300E+02 -0.62511905387E+03  0.68529910363E+03  0.26308823638E+03 0.  0.
         25    1    3    3    0    0  0.85456162929E+02  0.48403037300E+02 -0.67472521228E+03  0.69321513976E+03  0.12509000000E+03 0.  0.
         25    1    4    4    0    0 -0.29667180475E+01 -0.87029817164E+01 -0.26185271294E+03  0.29034271936E+03  0.12509000000E+03 0.  0.
         25    1    4    4    0    0 -0.82489444882E+02 -0.39700055583E+02 -0.36326634093E+03  0.39495638428E+03  0.12509000000E+03 0.  0.
<mgrwt>
<rscale>  2 0.45902767E+03</rscale>
<asrwt>0</asrwt>
<pdfrwt beam="1">  1       21 0.57845562E-02 0.45902767E+03</pdfrwt>
<pdfrwt beam="2">  1       21 0.19693816E+00 0.45902767E+03</pdfrwt>
<totfact> 0.26084111E+04</totfact>
</mgrwt>
</event>
<event>
 7    0  0.4725730E-002  0.4591818E+03  0.7546771E-02  0.1025019E+00
         21   -1    0    0  502  501  0.00000000000E+00  0.00000000000E+00  0.35803628633E+02  0.35803628633E+02  0.00000000000E+00 0. -1.
         21   -1    0    0  501  502 -0.00000000000E+00 -0.00000000000E+00 -0.14722523746E+04  0.14722523746E+04  0.00000000000E+00 0. -1.
      99926    2    1    2    0    0  0.00000000000E+00  0.00000000000E+00 -0.14364487460E+04  0.15080560032E+04  0.45918178219E+03 0.  0.
      99925    2    3    3    0    0  0.11954697179E+02 -0.43102364061E+02 -0.54473085776E+03  0.60649678231E+03  0.26288003156E+03 0.  0.
         25    1    3    3    0    0 -0.11954697179E+02  0.43102364061E+02 -0.89171788820E+03  0.90155922091E+03  0.12509000000E+03 0.  0.
         25    1    4    4    0    0  0.13528478777E+02 -0.61781801329E+02 -0.28520013237E+03  0.31778394283E+03  0.12509000000E+03 0.  0.
         25    1    4    4    0    0 -0.15737815975E+01  0.18679437268E+02 -0.25953072538E+03  0.28871283949E+03  0.12509000000E+03 0.  0.
<mgrwt>
<rscale>  2 0.45918178E+03</rscale>
<asrwt>0</asrwt>
<pdfrwt beam="1">  1       21 0.52652396E-02 0.45918178E+03</pdfrwt>
<pdfrwt beam="2">  1       21 0.21650770E+00 0.45918178E+03</pdfrwt>
<totfact> 0.22831733E+04</totfact>
</mgrwt>
</event>
<event>
 7    0  0.4725730E-002  0.4575437E+03  0.7546771E-02  0.1025496E+00
         21   -1    0    0  502  501  0.00000000000E+00  0.00000000000E+00  0.88206832903E+02  0.88206832903E+02  0.00000000000E+00 0. -1.
         21   -1    0    0  501  502 -0.00000000000E+00 -0.00000000000E+00 -0.59333898194E+03  0.59333898194E+03  0.00000000000E+00 0. -1.
      99926    2    1    2    0    0 -0.14210854715E-13  0.00000000000E+00 -0.50513214904E+03  0.68154581484E+03  0.45754366976E+03 0.  0.
      99925    2    3    3    0    0  0.78969226669E+02  0.12137876682E+02 -0.44220966621E+03  0.52033100858E+03  0.26231946706E+03 0.  0.
         25    1    4    4    0    0  0.80325909415E+01  0.22427832959E+02 -0.17126682211E+03  0.21341828100E+03  0.12509000000E+03 0.  0.
         25    1    3    3    0    0 -0.78969226669E+02 -0.12137876682E+02 -0.62922482832E+02  0.16121480626E+03  0.12509000000E+03 0.  0.
         25    1    4    4    0    0  0.70936635728E+02 -0.10289956277E+02 -0.27094284409E+03  0.30691272758E+03  0.12509000000E+03 0.  0.
<mgrwt>
<rscale>  2 0.45754367E+03</rscale>
<asrwt>0</asrwt>
<pdfrwt beam="1">  1       21 0.12971594E-01 0.45754367E+03</pdfrwt>
<pdfrwt beam="2">  1       21 0.87255729E-01 0.45754367E+03</pdfrwt>
<totfact> 0.52849970E+04</totfact>
</mgrwt>
</event>
<event>
 7    0  0.4725730E-002  0.4601072E+03  0.7546771E-02  0.1024750E+00
         21   -1    0    0  502  501  0.00000000000E+00  0.00000000000E+00  0.22259960518E+03  0.22259960518E+03  0.00000000000E+00 0. -1.
         21   -1    0    0  501  502 -0.00000000000E+00 -0.00000000000E+00 -0.23775721443E+03  0.23775721443E+03  0.00000000000E+00 0. -1.
      99926    2    1    2    0    0  0.00000000000E+00  0.00000000000E+00 -0.15157609257E+02  0.46035681961E+03  0.46010721386E+03 0.  0.
      99925    2    3    3    0    0  0.93410775085E+02 -0.15113207844E+02 -0.79711971626E+02  0.29074327135E+03  0.26310391381E+03 0.  0.
         25    1    4    4    0    0  0.88372599062E+02  0.23501823177E+01 -0.41793562798E+02  0.15877483936E+03  0.12509000000E+03 0.  0.
         25    1    3    3    0    0 -0.93410775085E+02  0.15113207844E+02  0.64554362370E+02  0.16961354826E+03  0.12509000000E+03 0.  0.
         25    1    4    4    0    0  0.50381760229E+01 -0.17463390161E+02 -0.37918408829E+02  0.13196843199E+03  0.12509000000E+03 0.  0.
<mgrwt>
<rscale>  2 0.46010721E+03</rscale>
<asrwt>0</asrwt>
<pdfrwt beam="1">  1       21 0.32735236E-01 0.46010721E+03</pdfrwt>
<pdfrwt beam="2">  1       21 0.34964296E-01 0.46010721E+03</pdfrwt>
<totfact> 0.65447224E+04</totfact>
</mgrwt>
</event>
<event>
 7    0  0.4725730E-002  0.4572354E+03  0.7546771E-02  0.1025586E+00
         21   -1    0    0  502  501  0.00000000000E+00  0.00000000000E+00  0.36448162997E+03  0.36448162997E+03  0.00000000000E+00 0.  1.
         21   -1    0    0  501  502 -0.00000000000E+00 -0.00000000000E+00 -0.14339833598E+03  0.14339833598E+03  0.00000000000E+00 0.  1.
      99926    2    1    2    0    0  0.00000000000E+00  0.00000000000E+00  0.22108329399E+03  0.50787996595E+03  0.45723542835E+03 0.  0.
      99925    2    3    3    0    0 -0.18990028180E+02 -0.64540460802E+02  0.24280181847E+03  0.36419526024E+03  0.26298169571E+03 0.  0.
         25    1    4    4    0    0 -0.37544767814E+02 -0.39555148858E+02  0.86376890251E+02  0.16150137665E+03  0.12509000000E+03 0.  0.
         25    1    3    3    0    0  0.18990028180E+02  0.64540460802E+02 -0.21718524476E+02  0.14368470571E+03  0.12509000000E+03 0.  0.
         25    1    4    4    0    0  0.18554739633E+02 -0.24985311943E+02  0.15642492822E+03  0.20269388359E+03  0.12509000000E+03 0.  0.
<mgrwt>
<rscale>  2 0.45723543E+03</rscale>
<asrwt>0</asrwt>
<pdfrwt beam="1">  1       21 0.53600240E-01 0.45723543E+03</pdfrwt>
<pdfrwt beam="2">  1       21 0.21087991E-01 0.45723543E+03</pdfrwt>
<totfact> 0.63584869E+04</totfact>
</mgrwt>
</event>
<event>
 7    0  0.4725730E-002  0.4418638E+03  0.7546771E-02  0.1030176E+00
         21   -1    0    0  502  501  0.00000000000E+00  0.00000000000E+00  0.48831494655E+03  0.48831494655E+03  0.00000000000E+00 0. -1.
         21   -1    0    0  501  502 -0.00000000000E+00 -0.00000000000E+00 -0.99957843632E+02  0.99957843632E+02  0.00000000000E+00 0. -1.
      99926    2    1    2    0    0  0.00000000000E+00  0.35527136788E-14  0.38835710292E+03  0.58827279018E+03  0.44186382097E+03 0.  0.
      99925    2    3    3    0    0  0.11175896046E+02 -0.19049649570E+02  0.11710997823E+03  0.28875601177E+03  0.26301615450E+03 0.  0.
         25    1    3    3    0    0 -0.11175896046E+02  0.19049649570E+02  0.27124712468E+03  0.29951677841E+03  0.12509000000E+03 0.  0.
         25    1    4    4    0    0  0.20258525984E+01 -0.49978143654E+02  0.57247567102E+02  0.14637865610E+03  0.12509000000E+03 0.  0.
         25    1    4    4    0    0  0.91500434473E+01  0.30928494085E+02  0.59862411129E+02  0.14237735567E+03  0.12509000000E+03 0.  0.
<mgrwt>
<rscale>  2 0.44186382E+03</rscale>
<asrwt>0</asrwt>
<pdfrwt beam="1">  1       21 0.71811021E-01 0.44186382E+03</pdfrwt>
<pdfrwt beam="2">  1       21 0.14699683E-01 0.44186382E+03</pdfrwt>
<totfact> 0.65995471E+04</totfact>
</mgrwt>
</event>
<event>
 7    0  0.4725730E-002  0.4455535E+03  0.7546771E-02  0.1029056E+00
         21   -1    0    0  502  501  0.00000000000E+00  0.00000000000E+00  0.89188989136E+03  0.89188989136E+03  0.00000000000E+00 0.  1.
         21   -1    0    0  501  502 -0.00000000000E+00 -0.00000000000E+00 -0.55645293792E+02  0.55645293792E+02  0.00000000000E+00 0.  1.
      99926    2    1    2    0    0  0.00000000000E+00  0.00000000000E+00  0.83624459756E+03  0.94753518515E+03  0.44555347618E+03 0.  0.
      99925    2    3    3    0    0 -0.92005665306E+02 -0.32285406862E+02  0.60799465007E+03  0.66959106023E+03  0.26303479519E+03 0.  0.
         25    1    4    4    0    0 -0.15223347841E+02 -0.11004604652E+02  0.21375884199E+03  0.24838116328E+03  0.12509000000E+03 0.  0.
         25    1    3    3    0    0  0.92005665306E+02  0.32285406862E+02  0.22824994750E+03  0.27794412492E+03  0.12509000000E+03 0.  0.
         25    1    4    4    0    0 -0.76782317464E+02 -0.21280802210E+02  0.39423580807E+03  0.42120989695E+03  0.12509000000E+03 0.  0.
<mgrwt>
<rscale>  2 0.44555348E+03</rscale>
<asrwt>0</asrwt>
<pdfrwt beam="1">  1       21 0.13116027E+00 0.44555348E+03</pdfrwt>
<pdfrwt beam="2">  1       21 0.81831320E-02 0.44555348E+03</pdfrwt>
<totfact> 0.44433413E+04</totfact>
</mgrwt>
</event>
<event>
 7    0  0.4725730E-002  0.4556350E+03  0.7546771E-02  0.1026055E+00
         21   -1    0    0  502  501  0.00000000000E+00  0.00000000000E+00  0.46080643316E+02  0.46080643316E+02  0.00000000000E+00 0. -1.
         21   -1    0    0  501  502 -0.00000000000E+00 -0.00000000000E+00 -0.11263038119E+04  0.11263038119E+04  0.00000000000E+00 0. -1.
      99926    2    1    2    0    0  0.00000000000E+00  0.17763568394E-14 -0.10802231686E+04  0.11723844553E+04  0.45563496014E+03 0.  0.
      99925    2    3    3    0    0  0.42022757685E+02 -0.47329267303E+01 -0.95082813425E+03  0.98750910325E+03  0.26327129613E+03 0.  0.
         25    1    4    4    0    0 -0.10300992034E+02 -0.22943044298E+02 -0.39524667643E+03  0.41533111736E+03  0.12509000000E+03 0.  0.
         25    1    3    3    0    0 -0.42022757685E+02  0.47329267303E+01 -0.12939503438E+03  0.18487535201E+03  0.12509000000E+03 0.  0.
         25    1    4    4    0    0  0.52323749720E+02  0.18210117568E+02 -0.55558145782E+03  0.57217798590E+03  0.12509000000E+03 0.  0.
<mgrwt>
<rscale>  2 0.45563496E+03</rscale>
<asrwt>0</asrwt>
<pdfrwt beam="1">  1       21 0.67765662E-02 0.45563496E+03</pdfrwt>
<pdfrwt beam="2">  1       21 0.16563289E+00 0.45563496E+03</pdfrwt>
<totfact> 0.32880749E+04</totfact>
</mgrwt>
</event>
<event>
 7    0  0.4725730E-002  0.4598684E+03  0.7546771E-02  0.1024819E+00
         21   -1    0    0  502  501  0.00000000000E+00  0.00000000000E+00  0.36241493476E+02  0.36241493476E+02  0.00000000000E+00 0.  1.
         21   -1    0    0  501  502 -0.00000000000E+00 -0.00000000000E+00 -0.14588176154E+04  0.14588176154E+04  0.00000000000E+00 0.  1.
      99926    2    1    2    0    0  0.71054273576E-14  0.00000000000E+00 -0.14225761219E+04  0.14950591088E+04  0.45986836851E+03 0.  0.
      99925    2    3    3    0    0  0.49862852142E+02 -0.29677449652E+02 -0.55858398462E+03  0.62013226824E+03  0.26302263628E+03 0.  0.
         25    1    4    4    0    0 -0.14480237517E+02 -0.15888633805E+02 -0.23668701614E+03  0.26857099186E+03  0.12509000000E+03 0.  0.
         25    1    4    4    0    0  0.64343089659E+02 -0.13788815847E+02 -0.32189696848E+03  0.35156127638E+03  0.12509000000E+03 0.  0.
         25    1    3    3    0    0 -0.49862852142E+02  0.29677449652E+02 -0.86399213726E+03  0.87492684059E+03  0.12509000000E+03 0.  0.
<mgrwt>
<rscale>  2 0.45986837E+03</rscale>
<asrwt>0</asrwt>
<pdfrwt beam="1">  1       21 0.53296321E-02 0.45986837E+03</pdfrwt>
<pdfrwt beam="2">  1       21 0.21453197E+00 0.45986837E+03</pdfrwt>
<totfact> 0.23017698E+04</totfact>
</mgrwt>
</event>
<event>
 7    0  0.4725730E-002  0.4685797E+03  0.7546771E-02  0.1022322E+00
         21   -1    0    0  502  501  0.00000000000E+00  0.00000000000E+00  0.26355419408E+03  0.26355419408E+03  0.00000000000E+00 0. -1.
         21   -1    0    0  501  502 -0.00000000000E+00 -0.00000000000E+00 -0.20827496117E+03  0.20827496117E+03  0.00000000000E+00 0. -1.
      99926    2    1    2    0    0  0.00000000000E+00  0.00000000000E+00  0.55279232913E+02  0.47182915525E+03  0.46857972443E+03 0.  0.
      99925    2    3    3    0    0 -0.86657160160E+02 -0.21527868163E+02  0.12329000723E+03  0.30376403085E+03  0.26286735827E+03 0.  0.
         25    1    4    4    0    0 -0.26904087606E+02 -0.46650952540E+02  0.70089755383E+02  0.15316730465E+03  0.12509000000E+03 0.  0.
         25    1    3    3    0    0  0.86657160160E+02  0.21527868163E+02 -0.68010774313E+02  0.16806512439E+03  0.12509000000E+03 0.  0.
         25    1    4    4    0    0 -0.59753072554E+02  0.25123084377E+02  0.53200251844E+02  0.15059672621E+03  0.12509000000E+03 0.  0.
<mgrwt>
<rscale>  2 0.46857972E+03</rscale>
<asrwt>0</asrwt>
<pdfrwt beam="1">  1       21 0.38757970E-01 0.46857972E+03</pdfrwt>
<pdfrwt beam="2">  1       21 0.30628671E-01 0.46857972E+03</pdfrwt>
<totfact> 0.60504088E+04</totfact>
</mgrwt>
</event>
<event>
 7    0  0.4725730E-002  0.4500107E+03  0.7546771E-02  0.1027719E+00
         21   -1    0    0  502  501  0.00000000000E+00  0.00000000000E+00  0.15378345516E+03  0.15378345516E+03  0.00000000000E+00 0.  1.
         21   -1    0    0  501  502 -0.00000000000E+00 -0.00000000000E+00 -0.32921234595E+03  0.32921234595E+03  0.00000000000E+00 0.  1.
      99926    2    1    2    0    0  0.00000000000E+00  0.71054273576E-14 -0.17542889079E+03  0.48299580110E+03  0.45001072005E+03 0.  0.
      99925    2    3    3    0    0 -0.13860830955E+02 -0.47205663787E+02 -0.70682311791E+01  0.26755829942E+03  0.26290109617E+03 0.  0.
         25    1    4    4    0    0 -0.15921329222E+02 -0.63699969337E+02 -0.36096571985E+01  0.14132130958E+03  0.12509000000E+03 0.  0.
         25    1    4    4    0    0  0.20604982676E+01  0.16494305550E+02 -0.34585739805E+01  0.12623698984E+03  0.12509000000E+03 0.  0.
         25    1    3    3    0    0  0.13860830955E+02  0.47205663787E+02 -0.16836065961E+03  0.21543750168E+03  0.12509000000E+03 0.  0.
<mgrwt>
<rscale>  2 0.45001072E+03</rscale>
<asrwt>0</asrwt>
<pdfrwt beam="1">  1       21 0.22615214E-01 0.45001072E+03</pdfrwt>
<pdfrwt beam="2">  1       21 0.48413580E-01 0.45001072E+03</pdfrwt>
<totfact> 0.69182449E+04</totfact>
</mgrwt>
</event>
<event>
 7    0  0.4725730E-002  0.4544082E+03  0.7546771E-02  0.1026416E+00
         21   -1    0    0  502  501  0.00000000000E+00  0.00000000000E+00  0.12011139674E+03  0.12011139674E+03  0.00000000000E+00 0. -1.
         21   -1    0    0  501  502 -0.00000000000E+00 -0.00000000000E+00 -0.42978188634E+03  0.42978188634E+03  0.00000000000E+00 0. -1.
      99926    2    1    2    0    0  0.00000000000E+00  0.00000000000E+00 -0.30967048960E+03  0.54989328308E+03  0.45440819826E+03 0.  0.
      99925    2    3    3    0    0 -0.54458134861E+02 -0.98276347970E+02 -0.18601382037E+03  0.34117718651E+03  0.26301483266E+03 0.  0.
         25    1    4    4    0    0 -0.45026607514E+02 -0.42426440361E+02 -0.13649018474E+03  0.19520368044E+03  0.12509000000E+03 0.  0.
         25    1    3    3    0    0  0.54458134861E+02  0.98276347970E+02 -0.12365666923E+03  0.20871609657E+03  0.12509000000E+03 0.  0.
         25    1    4    4    0    0 -0.94315273467E+01 -0.55849907609E+02 -0.49523635629E+02  0.14597350607E+03  0.12509000000E+03 0.  0.
<mgrwt>
<rscale>  2 0.45440820E+03</rscale>
<asrwt>0</asrwt>
<pdfrwt beam="1">  1       21 0.17663441E-01 0.45440820E+03</pdfrwt>
<pdfrwt beam="2">  1       21 0.63203219E-01 0.45440820E+03</pdfrwt>
<totfact> 0.62164123E+04</totfact>
</mgrwt>
</event>
<event>
 7    0  0.4725730E-002  0.4560676E+03  0.7546771E-02  0.1025928E+00
         21   -1    0    0  502  501  0.00000000000E+00  0.00000000000E+00  0.11024860261E+03  0.11024860261E+03  0.00000000000E+00 0.  1.
         21   -1    0    0  501  502 -0.00000000000E+00 -0.00000000000E+00 -0.47165607636E+03  0.47165607636E+03  0.00000000000E+00 0.  1.
      99926    2    1    2    0    0  0.00000000000E+00 -0.14210854715E-13 -0.36140747375E+03  0.58190467897E+03  0.45606764118E+03 0.  0.
      99925    2    3    3    0    0 -0.61978425592E+02  0.87471291933E+02 -0.27746179167E+03  0.39700757842E+03  0.26293995387E+03 0.  0.
         25    1    3    3    0    0  0.61978425592E+02 -0.87471291933E+02 -0.83945682084E+02  0.18489710055E+03  0.12509000000E+03 0.  0.
         25    1    4    4    0    0 -0.56993476077E+02  0.16386729489E+02 -0.11529688812E+03  0.18016010027E+03  0.12509000000E+03 0.  0.
         25    1    4    4    0    0 -0.49849495153E+01  0.71084562445E+02 -0.16216490355E+03  0.21684747816E+03  0.12509000000E+03 0.  0.
<mgrwt>
<rscale>  2 0.45606764E+03</rscale>
<asrwt>0</asrwt>
<pdfrwt beam="1">  1       21 0.16213030E-01 0.45606764E+03</pdfrwt>
<pdfrwt beam="2">  1       21 0.69361187E-01 0.45606764E+03</pdfrwt>
<totfact> 0.59304021E+04</totfact>
</mgrwt>
</event>
<event>
 7    0  0.4725730E-002  0.4485558E+03  0.7546771E-02  0.1028154E+00
         21   -1    0    0  502  501  0.00000000000E+00  0.00000000000E+00  0.18259258302E+04  0.18259258302E+04  0.00000000000E+00 0. -1.
         21   -1    0    0  501  502 -0.00000000000E+00 -0.00000000000E+00 -0.27547982747E+02  0.27547982747E+02  0.00000000000E+00 0. -1.
      99926    2    1    2    0    0  0.00000000000E+00  0.35527136788E-14  0.17983778475E+04  0.18534738130E+04  0.44855578591E+03 0.  0.
      99925    2    3    3    0    0  0.63868972344E+02 -0.23939788568E+02  0.79965992265E+03  0.84464411447E+03  0.26327804525E+03 0.  0.
         25    1    4    4    0    0  0.43453551116E+02 -0.40042898911E+02  0.32790630811E+03  0.35589563056E+03  0.12509000000E+03 0.  0.
         25    1    3    3    0    0 -0.63868972344E+02  0.23939788568E+02  0.99871792484E+03  0.10088296985E+04  0.12509000000E+03 0.  0.
         25    1    4    4    0    0  0.20415421228E+02  0.16103110343E+02  0.47175361454E+03  0.48874848391E+03  0.12509000000E+03 0.  0.
<mgrwt>
<rscale>  2 0.44855579E+03</rscale>
<asrwt>0</asrwt>
<pdfrwt beam="1">  1       21 0.26851842E+00 0.44855579E+03</pdfrwt>
<pdfrwt beam="2">  1       21 0.40511752E-02 0.44855579E+03</pdfrwt>
<totfact> 0.17092163E+04</totfact>
</mgrwt>
</event>
<event>
 7    0  0.4725730E-002  0.4481103E+03  0.7546771E-02  0.1028287E+00
         21   -1    0    0  502  501  0.00000000000E+00  0.00000000000E+00  0.37811442762E+03  0.37811442762E+03  0.00000000000E+00 0. -1.
         21   -1    0    0  501  502 -0.00000000000E+00 -0.00000000000E+00 -0.13276591855E+03  0.13276591855E+03  0.00000000000E+00 0. -1.
      99926    2    1    2    0    0  0.35527136788E-14  0.00000000000E+00  0.24534850907E+03  0.51088034617E+03  0.44811029579E+03 0.  0.
      99925    2    3    3    0    0  0.24986270538E+02  0.41045527505E+02  0.46851453355E+02  0.27138579869E+03  0.26295654395E+03 0.  0.
         25    1    3    3    0    0 -0.24986270538E+02 -0.41045527505E+02  0.19849705572E+03  0.23949454748E+03  0.12509000000E+03 0.  0.
         25    1    4    4    0    0  0.20593918571E+02  0.16705804422E+02  0.63540036369E+02  0.14278668602E+03  0.12509000000E+03 0.  0.
         25    1    4    4    0    0  0.43923519667E+01  0.24339723083E+02 -0.16688583014E+02  0.12859911267E+03  0.12509000000E+03 0.  0.
<mgrwt>
<rscale>  2 0.44811030E+03</rscale>
<asrwt>0</asrwt>
<pdfrwt beam="1">  1       21 0.55605063E-01 0.44811030E+03</pdfrwt>
<pdfrwt beam="2">  1       21 0.19524400E-01 0.44811030E+03</pdfrwt>
<totfact> 0.68163864E+04</totfact>
</mgrwt>
</event>
<event>
 7    0  0.4725730E-002  0.4533213E+03  0.7546771E-02  0.1026736E+00
         21   -1    0    0  502  501  0.00000000000E+00  0.00000000000E+00  0.12281009572E+03  0.12281009572E+03  0.00000000000E+00 0. -1.
         21   -1    0    0  501  502 -0.00000000000E+00 -0.00000000000E+00 -0.41832922454E+03  0.41832922454E+03  0.00000000000E+00 0. -1.
      99926    2    1    2    0    0  0.00000000000E+00 -0.71054273576E-14 -0.29551912881E+03  0.54113932026E+03  0.45332130816E+03 0.  0.
      99925    2    3    3    0    0  0.48038418396E+02  0.48102191869E+02 -0.80683502231E+02  0.28341201271E+03  0.26304188053E+03 0.  0.
         25    1    3    3    0    0 -0.48038418396E+02 -0.48102191869E+02 -0.21483562658E+03  0.25772730754E+03  0.12509000000E+03 0.  0.
         25    1    4    4    0    0  0.63598044910E+02  0.13803557463E+02 -0.39406974248E+02  0.14640924573E+03  0.12509000000E+03 0.  0.
         25    1    4    4    0    0 -0.15559626514E+02  0.34298634406E+02 -0.41276527983E+02  0.13700276699E+03  0.12509000000E+03 0.  0.
<mgrwt>
<rscale>  2 0.45332131E+03</rscale>
<asrwt>0</asrwt>
<pdfrwt beam="1">  1       21 0.18060308E-01 0.45332131E+03</pdfrwt>
<pdfrwt beam="2">  1       21 0.61519003E-01 0.45332131E+03</pdfrwt>
<totfact> 0.63292492E+04</totfact>
</mgrwt>
</event>
<event>
 7    0  0.4725730E-002  0.4557474E+03  0.7546771E-02  0.1026022E+00
         21   -1    0    0  502  501  0.00000000000E+00  0.00000000000E+00  0.30281502153E+03  0.30281502153E+03  0.00000000000E+00 0.  1.
         21   -1    0    0  501  502 -0.00000000000E+00 -0.00000000000E+00 -0.17147901649E+03  0.17147901649E+03  0.00000000000E+00 0.  1.
      99926    2    1    2    0    0  0.00000000000E+00  0.00000000000E+00  0.13133600505E+03  0.47429403802E+03  0.45574739525E+03 0.  0.
      99925    2    3    3    0    0  0.14656545937E+02  0.40854901291E+02  0.19215262939E+03  0.32858848838E+03  0.26299016031E+03 0.  0.
         25    1    3    3    0    0 -0.14656545937E+02 -0.40854901291E+02 -0.60816624340E+02  0.14570554963E+03  0.12509000000E+03 0.  0.
         25    1    4    4    0    0  0.30793407332E+02  0.52787905473E+02  0.11192765240E+03  0.17863399556E+03  0.12509000000E+03 0.  0.
         25    1    4    4    0    0 -0.16136861395E+02 -0.11933004182E+02  0.80224976986E+02  0.14995449282E+03  0.12509000000E+03 0.  0.
<mgrwt>
<rscale>  2 0.45574740E+03</rscale>
<asrwt>0</asrwt>
<pdfrwt beam="1">  1       21 0.44531621E-01 0.45574740E+03</pdfrwt>
<pdfrwt beam="2">  1       21 0.25217502E-01 0.45574740E+03</pdfrwt>
<totfact> 0.66721285E+04</totfact>
</mgrwt>
</event>
<event>
 7    0  0.4725730E-002  0.4210572E+03  0.7546771E-02  0.1036723E+00
         21   -1    0    0  502  501  0.00000000000E+00  0.00000000000E+00  0.70198691575E+03  0.70198691575E+03  0.00000000000E+00 0.  1.
         21   -1    0    0  501  502 -0.00000000000E+00 -0.00000000000E+00 -0.63138333242E+02  0.63138333242E+02  0.00000000000E+00 0.  1.
      99926    2    1    2    0    0  0.88817841970E-15  0.35527136788E-14  0.63884858251E+03  0.76512524899E+03  0.42105716390E+03 0.  0.
      99925    2    3    3    0    0  0.66702533191E+01  0.18826953804E+02  0.28070454923E+03  0.38523894608E+03  0.26308754275E+03 0.  0.
         25    1    4    4    0    0  0.40472297158E+02 -0.32045601250E+01  0.12454104921E+03  0.18112497642E+03  0.12509000000E+03 0.  0.
         25    1    3    3    0    0 -0.66702533191E+01 -0.18826953804E+02  0.35814403328E+03  0.37988630292E+03  0.12509000000E+03 0.  0.
         25    1    4    4    0    0 -0.33802043839E+02  0.22031513929E+02  0.15616350001E+03  0.20411396966E+03  0.12509000000E+03 0.  0.
<mgrwt>
<rscale>  2 0.42105716E+03</rscale>
<asrwt>0</asrwt>
<pdfrwt beam="1">  1       21 0.10323337E+00 0.42105716E+03</pdfrwt>
<pdfrwt beam="2">  1       21 0.92850494E-02 0.42105716E+03</pdfrwt>
<totfact> 0.65217309E+04</totfact>
</mgrwt>
</event>
<event>
 7    0  0.4725730E-002  0.4554494E+03  0.7546771E-02  0.1026109E+00
         21   -1    0    0  502  501  0.00000000000E+00  0.00000000000E+00  0.12977417664E+03  0.12977417664E+03  0.00000000000E+00 0. -1.
         21   -1    0    0  501  502 -0.00000000000E+00 -0.00000000000E+00 -0.39960597863E+03  0.39960597863E+03  0.00000000000E+00 0. -1.
      99926    2    1    2    0    0  0.71054273576E-14  0.00000000000E+00 -0.26983180199E+03  0.52938015528E+03  0.45544939064E+03 0.  0.
      99925    2    3    3    0    0 -0.34510281122E+02 -0.84235941869E+02 -0.90616214173E+02  0.29262629909E+03  0.26293002727E+03 0.  0.
         25    1    4    4    0    0 -0.39235372769E+02 -0.38250245968E+02 -0.81321928610E+02  0.15894420394E+03  0.12509000000E+03 0.  0.
         25    1    3    3    0    0  0.34510281122E+02  0.84235941869E+02 -0.17921558782E+03  0.23675385619E+03  0.12509000000E+03 0.  0.
         25    1    4    4    0    0  0.47250916470E+01 -0.45985695901E+02 -0.92942855626E+01  0.13368209515E+03  0.12509000000E+03 0.  0.
<mgrwt>
<rscale>  2 0.45544939E+03</rscale>
<asrwt>0</asrwt>
<pdfrwt beam="1">  1       21 0.19084438E-01 0.45544939E+03</pdfrwt>
<pdfrwt beam="2">  1       21 0.58765585E-01 0.45544939E+03</pdfrwt>
<totfact> 0.63023728E+04</totfact>
</mgrwt>
</event>
<event>
 7    0  0.4725730E-002  0.4423972E+03  0.7546771E-02  0.1030014E+00
         21   -1    0    0  502  501  0.00000000000E+00  0.00000000000E+00  0.39205054005E+03  0.39205054005E+03  0.00000000000E+00 0.  1.
         21   -1    0    0  501  502 -0.00000000000E+00 -0.00000000000E+00 -0.12480232542E+03  0.12480232542E+03  0.00000000000E+00 0.  1.
      99926    2    1    2    0    0  0.00000000000E+00 -0.22204460493E-14  0.26724821463E+03  0.51685286547E+03  0.44239719295E+03 0.  0.
      99925    2    3    3    0    0 -0.98491760399E+02 -0.27953219708E+01  0.14351220536E+03  0.31519337827E+03  0.26275972280E+03 0.  0.
         25    1    4    4    0    0 -0.63969136582E+02  0.32672518575E+02  0.56152166582E+02  0.15479056114E+03  0.12509000000E+03 0.  0.
         25    1    3    3    0    0  0.98491760399E+02  0.27953219708E+01  0.12373600927E+03  0.20165948721E+03  0.12509000000E+03 0.  0.
         25    1    4    4    0    0 -0.34522623817E+02 -0.35467840545E+02  0.87360038778E+02  0.16040281713E+03  0.12509000000E+03 0.  0.
<mgrwt>
<rscale>  2 0.44239719E+03</rscale>
<asrwt>0</asrwt>
<pdfrwt beam="1">  1       21 0.57654491E-01 0.44239719E+03</pdfrwt>
<pdfrwt beam="2">  1       21 0.18353283E-01 0.44239719E+03</pdfrwt>
<totfact> 0.70929223E+04</totfact>
</mgrwt>
</event>
<event>
 7    0  0.4725730E-002  0.4576511E+03  0.7546771E-02  0.1025465E+00
         21   -1    0    0  502  501  0.00000000000E+00  0.00000000000E+00  0.61951241444E+03  0.61951241444E+03  0.00000000000E+00 0. -1.
         21   -1    0    0  501  502 -0.00000000000E+00 -0.00000000000E+00 -0.84519912298E+02  0.84519912298E+02  0.00000000000E+00 0. -1.
      99926    2    1    2    0    0  0.35527136788E-14 -0.35527136788E-14  0.53499250215E+03  0.70403232674E+03  0.45765111138E+03 0.  0.
      99925    2    3    3    0    0  0.22349359232E+02  0.23456546950E+02  0.50661788750E+03  0.57173595374E+03  0.26300306730E+03 0.  0.
         25    1    3    3    0    0 -0.22349359232E+02 -0.23456546950E+02  0.28374614644E+02  0.13229637300E+03  0.12509000000E+03 0.  0.
         25    1    4    4    0    0 -0.18747153165E+02  0.38775460080E+02  0.24383283737E+03  0.27741116188E+03  0.12509000000E+03 0.  0.
         25    1    4    4    0    0  0.41096512397E+02 -0.15318913130E+02  0.26278505013E+03  0.29432479186E+03  0.12509000000E+03 0.  0.
<mgrwt>
<rscale>  2 0.45765111E+03</rscale>
<asrwt>0</asrwt>
<pdfrwt beam="1">  1       21 0.91104765E-01 0.45765111E+03</pdfrwt>
<pdfrwt beam="2">  1       21 0.12429399E-01 0.45765111E+03</pdfrwt>
<totfact> 0.51599666E+04</totfact>
</mgrwt>
</event>
<event>
 7    0  0.4725730E-002  0.4351342E+03  0.7546771E-02  0.1032250E+00
         21   -1    0    0  502  501  0.00000000000E+00  0.00000000000E+00  0.31077325052E+04  0.31077325052E+04  0.00000000000E+00 0.  1.
         21   -1    0    0  501  502 -0.00000000000E+00 -0.00000000000E+00 -0.15231501896E+02  0.15231501896E+02  0.00000000000E+00 0.  1.
      99926    2    1    2    0    0  0.00000000000E+00  0.71054273576E-14  0.30925010033E+04  0.31229640071E+04  0.43513415653E+03 0.  0.
      99925    2    3    3    0    0 -0.79775656904E+02  0.38120770940E+02  0.17655281399E+04  0.17871789058E+04  0.26287160334E+03 0.  0.
         25    1    4    4    0    0 -0.45036650729E+02  0.57639414647E+02  0.10072107923E+04  0.10175812942E+04  0.12509000000E+03 0.  0.
         25    1    3    3    0    0  0.79775656904E+02 -0.38120770940E+02  0.13269728634E+04  0.13357851013E+04  0.12509000000E+03 0.  0.
         25    1    4    4    0    0 -0.34739006175E+02 -0.19518643707E+02  0.75831734762E+03  0.76959761161E+03  0.12509000000E+03 0.  0.
<mgrwt>
<rscale>  2 0.43513416E+03</rscale>
<asrwt>0</asrwt>
<pdfrwt beam="1">  1       21 0.45701905E+00 0.43513416E+03</pdfrwt>
<pdfrwt beam="2">  1       21 0.22399289E-02 0.43513416E+03</pdfrwt>
<totfact> 0.30662931E+03</totfact>
</mgrwt>
</event>
<event>
 7    0  0.4725730E-002  0.4535915E+03  0.7546771E-02  0.1026656E+00
         21   -1    0    0  502  501  0.00000000000E+00  0.00000000000E+00  0.51119827001E+02  0.51119827001E+02  0.00000000000E+00 0. -1.
         21   -1    0    0  501  502 -0.00000000000E+00 -0.00000000000E+00 -0.10061911338E+04  0.10061911338E+04  0.00000000000E+00 0. -1.
      99926    2    1    2    0    0  0.00000000000E+00 -0.71054273576E-14 -0.95507130679E+03  0.10573109608E+04  0.45359151971E+03 0.  0.
      99925    2    3    3    0    0  0.10508940631E+03  0.37124498237E+02 -0.58874628126E+03  0.65449146758E+03  0.26327720323E+03 0.  0.
         25    1    3    3    0    0 -0.10508940631E+03 -0.37124498237E+02 -0.36632502553E+03  0.40281949322E+03  0.12509000000E+03 0.  0.
         25    1    4    4    0    0  0.26591564865E+02 -0.16083268577E+02 -0.27027587099E+03  0.29943670014E+03  0.12509000000E+03 0.  0.
         25    1    4    4    0    0  0.78497841444E+02  0.53207766814E+02 -0.31847041028E+03  0.35505476744E+03  0.12509000000E+03 0.  0.
<mgrwt>
<rscale>  2 0.45359152E+03</rscale>
<asrwt>0</asrwt>
<pdfrwt beam="1">  1       21 0.75176218E-02 0.45359152E+03</pdfrwt>
<pdfrwt beam="2">  1       21 0.14796928E+00 0.45359152E+03</pdfrwt>
<totfact> 0.37419920E+04</totfact>
</mgrwt>
</event>
<event>
 7    0  0.4725730E-002  0.4563971E+03  0.7546771E-02  0.1025831E+00
         21   -1    0    0  502  501  0.00000000000E+00  0.00000000000E+00  0.88564783531E+03  0.88564783531E+03  0.00000000000E+00 0.  1.
         21   -1    0    0  501  502 -0.00000000000E+00 -0.00000000000E+00 -0.58798282036E+02  0.58798282036E+02  0.00000000000E+00 0.  1.
      99926    2    1    2    0    0 -0.17763568394E-14  0.71054273576E-14  0.82684955328E+03  0.94444611735E+03  0.45639706925E+03 0.  0.
      99925    2    3    3    0    0 -0.10158189634E+02  0.60999994543E+02  0.32069892385E+03  0.41941263659E+03  0.26312539182E+03 0.  0.
         25    1    4    4    0    0 -0.12075563212E+02  0.41138298055E+01  0.10580893427E+03  0.16433435884E+03  0.12509000000E+03 0.  0.
         25    1    4    4    0    0  0.19173735784E+01  0.56886164737E+02  0.21488998958E+03  0.25507827775E+03  0.12509000000E+03 0.  0.
         25    1    3    3    0    0  0.10158189634E+02 -0.60999994543E+02  0.50615062943E+03  0.52503348076E+03  0.12509000000E+03 0.  0.
<mgrwt>
<rscale>  2 0.45639707E+03</rscale>
<asrwt>0</asrwt>
<pdfrwt beam="1">  1       21 0.13024232E+00 0.45639707E+03</pdfrwt>
<pdfrwt beam="2">  1       21 0.86468068E-02 0.45639707E+03</pdfrwt>
<totfact> 0.40917638E+04</totfact>
</mgrwt>
</event>
<event>
 7    0  0.4725730E-002  0.4522536E+03  0.7546771E-02  0.1027052E+00
         21   -1    0    0  502  501  0.00000000000E+00  0.00000000000E+00  0.91461712483E+03  0.91461712483E+03  0.00000000000E+00 0.  1.
         21   -1    0    0  501  502 -0.00000000000E+00 -0.00000000000E+00 -0.55906821110E+02  0.55906821110E+02  0.00000000000E+00 0.  1.
      99926    2    1    2    0    0  0.00000000000E+00  0.14210854715E-13  0.85871030372E+03  0.97052394594E+03  0.45225362788E+03 0.  0.
      99925    2    3    3    0    0 -0.63786712612E+02 -0.81327083161E+02  0.45799483291E+03  0.53820087715E+03  0.26309328770E+03 0.  0.
         25    1    4    4    0    0 -0.43765376828E+02 -0.66284722004E+02  0.18626894234E+03  0.23801827569E+03  0.12509000000E+03 0.  0.
         25    1    4    4    0    0 -0.20021335783E+02 -0.15042361158E+02  0.27172589057E+03  0.30018260146E+03  0.12509000000E+03 0.  0.
         25    1    3    3    0    0  0.63786712612E+02  0.81327083161E+02  0.40071547081E+03  0.43232306879E+03  0.12509000000E+03 0.  0.
<mgrwt>
<rscale>  2 0.45225363E+03</rscale>
<asrwt>0</asrwt>
<pdfrwt beam="1">  1       21 0.13450251E+00 0.45225363E+03</pdfrwt>
<pdfrwt beam="2">  1       21 0.82215919E-02 0.45225363E+03</pdfrwt>
<totfact> 0.41198198E+04</totfact>
</mgrwt>
</event>
<event>
 7    0  0.4725730E-002  0.4517728E+03  0.7546771E-02  0.1027195E+00
         21   -1    0    0  502  501  0.00000000000E+00  0.00000000000E+00  0.10217885304E+03  0.10217885304E+03  0.00000000000E+00 0. -1.
         21   -1    0    0  501  502 -0.00000000000E+00 -0.00000000000E+00 -0.49936628393E+03  0.49936628393E+03  0.00000000000E+00 0. -1.
      99926    2    1    2    0    0  0.00000000000E+00  0.00000000000E+00 -0.39718743089E+03  0.60154513698E+03  0.45177283735E+03 0.  0.
      99925    2    3    3    0    0 -0.98414010107E+02 -0.48798137329E+02 -0.25923903255E+03  0.38534188933E+03  0.26309108704E+03 0.  0.
         25    1    4    4    0    0 -0.84319580365E+02 -0.48884646103E+01 -0.12278127728E+03  0.19456731192E+03  0.12509000000E+03 0.  0.
         25    1    4    4    0    0 -0.14094429743E+02 -0.43909672719E+02 -0.13645775527E+03  0.19077457740E+03  0.12509000000E+03 0.  0.
         25    1    3    3    0    0  0.98414010107E+02  0.48798137329E+02 -0.13794839834E+03  0.21620324765E+03  0.12509000000E+03 0.  0.
<mgrwt>
<rscale>  2 0.45177284E+03</rscale>
<asrwt>0</asrwt>
<pdfrwt beam="1">  1       21 0.15026302E-01 0.45177284E+03</pdfrwt>
<pdfrwt beam="2">  1       21 0.73436218E-01 0.45177284E+03</pdfrwt>
<totfact> 0.60101067E+04</totfact>
</mgrwt>
</event>
<event>
 7    0  0.4725730E-002  0.4671493E+03  0.7546771E-02  0.1022728E+00
         21   -1    0    0  502  501  0.00000000000E+00  0.00000000000E+00  0.55049273752E+03  0.55049273752E+03  0.00000000000E+00 0. -1.
         21   -1    0    0  501  502 -0.00000000000E+00 -0.00000000000E+00 -0.99105957142E+02  0.99105957142E+02  0.00000000000E+00 0. -1.
      99926    2    1    2    0    0  0.00000000000E+00  0.00000000000E+00  0.45138678037E+03  0.64959869466E+03  0.46714926801E+03 0.  0.
      99925    2    3    3    0    0  0.24254426138E+02  0.26391798813E+02  0.11556706212E+03  0.28944984279E+03  0.26294611884E+03 0.  0.
         25    1    3    3    0    0 -0.24254426138E+02 -0.26391798813E+02  0.33581971826E+03  0.36014885187E+03  0.12509000000E+03 0.  0.
         25    1    4    4    0    0  0.12975818623E+02  0.53489614212E+02  0.65540298320E+02  0.15156698025E+03  0.12509000000E+03 0.  0.
         25    1    4    4    0    0  0.11278607515E+02 -0.27097815399E+02  0.50026763796E+02  0.13788286254E+03  0.12509000000E+03 0.  0.
<mgrwt>
<rscale>  2 0.46714927E+03</rscale>
<asrwt>0</asrwt>
<pdfrwt beam="1">  1       21 0.80954813E-01 0.46714927E+03</pdfrwt>
<pdfrwt beam="2">  1       21 0.14574406E-01 0.46714927E+03</pdfrwt>
<totfact> 0.50688261E+04</totfact>
</mgrwt>
</event>
<event>
 7    0  0.4725730E-002  0.4408136E+03  0.7546771E-02  0.1030497E+00
         21   -1    0    0  502  501  0.00000000000E+00  0.00000000000E+00  0.47875556987E+03  0.47875556987E+03  0.00000000000E+00 0.  1.
         21   -1    0    0  501  502 -0.00000000000E+00 -0.00000000000E+00 -0.10146966634E+03  0.10146966634E+03  0.00000000000E+00 0.  1.
      99926    2    1    2    0    0  0.35527136788E-14  0.14210854715E-13  0.37728590353E+03  0.58022523621E+03  0.44081364740E+03 0.  0.
      99925    2    3    3    0    0 -0.28345273109E+02  0.94643450910E+02  0.25397398515E+03  0.37869564875E+03  0.26295773794E+03 0.  0.
         25    1    4    4    0    0  0.13703242346E+02  0.71318965118E+02  0.10786308248E+03  0.18043316297E+03  0.12509000000E+03 0.  0.
         25    1    4    4    0    0 -0.42048515456E+02  0.23324485792E+02  0.14611090267E+03  0.19826248578E+03  0.12509000000E+03 0.  0.
         25    1    3    3    0    0  0.28345273109E+02 -0.94643450910E+02  0.12331191838E+03  0.20152958746E+03  0.12509000000E+03 0.  0.
<mgrwt>
<rscale>  2 0.44081365E+03</rscale>
<asrwt>0</asrwt>
<pdfrwt beam="1">  1       21 0.70405230E-01 0.44081365E+03</pdfrwt>
<pdfrwt beam="2">  1       21 0.14922010E-01 0.44081365E+03</pdfrwt>
<totfact> 0.67129861E+04</totfact>
</mgrwt>
</event>
<event>
 7    0  0.4725730E-002  0.4477135E+03  0.7546771E-02  0.1028406E+00
         21   -1    0    0  502  501  0.00000000000E+00  0.00000000000E+00  0.13450998055E+04  0.13450998055E+04  0.00000000000E+00 0.  1.
         21   -1    0    0  501  502 -0.00000000000E+00 -0.00000000000E+00 -0.37255112716E+02  0.37255112716E+02  0.00000000000E+00 0.  1.
      99926    2    1    2    0    0 -0.14210854715E-13 -0.22204460493E-15  0.13078446928E+04  0.13823549182E+04  0.44771350155E+03 0.  0.
      99925    2    3    3    0    0  0.10443633709E+03  0.13045168536E+01  0.76876331779E+03  0.81918097774E+03  0.26296727028E+03 0.  0.
         25    1    3    3    0    0 -0.10443633709E+03 -0.13045168536E+01  0.53908137501E+03  0.56317394049E+03  0.12509000000E+03 0.  0.
         25    1    4    4    0    0  0.83763667475E+02 -0.31003479465E+01  0.49611865845E+03  0.51846619514E+03  0.12509000000E+03 0.  0.
         25    1    4    4    0    0  0.20672669614E+02  0.44048648001E+01  0.27264465935E+03  0.30071478260E+03  0.12509000000E+03 0.  0.
<mgrwt>
<rscale>  2 0.44771350E+03</rscale>
<asrwt>0</asrwt>
<pdfrwt beam="1">  1       21 0.19780876E+00 0.44771350E+03</pdfrwt>
<pdfrwt beam="2">  1       21 0.54786939E-02 0.44771350E+03</pdfrwt>
<totfact> 0.28379470E+04</totfact>
</mgrwt>
</event>
<event>
 7    0  0.4725730E-002  0.4530655E+03  0.7546771E-02  0.1026812E+00
         21   -1    0    0  502  501  0.00000000000E+00  0.00000000000E+00  0.17973187591E+03  0.17973187591E+03  0.00000000000E+00 0. -1.
         21   -1    0    0  501  502 -0.00000000000E+00 -0.00000000000E+00 -0.28552025940E+03  0.28552025940E+03  0.00000000000E+00 0. -1.
      99926    2    1    2    0    0 -0.44408920985E-14  0.17763568394E-14 -0.10578838348E+03  0.46525213531E+03  0.45306552212E+03 0.  0.
      99925    2    3    3    0    0  0.85888496717E+00 -0.86720306730E+01  0.47010144189E+02  0.26758868407E+03  0.26328275368E+03 0.  0.
         25    1    4    4    0    0  0.36590515428E+02  0.12877601146E+02  0.32408550857E+02  0.13491671764E+03  0.12509000000E+03 0.  0.
         25    1    3    3    0    0 -0.85888496717E+00  0.86720306730E+01 -0.15279852767E+03  0.19766345125E+03  0.12509000000E+03 0.  0.
         25    1    4    4    0    0 -0.35731630461E+02 -0.21549631819E+02  0.14601593332E+02  0.13267196642E+03  0.12509000000E+03 0.  0.
<mgrwt>
<rscale>  2 0.45306552E+03</rscale>
<asrwt>0</asrwt>
<pdfrwt beam="1">  1       21 0.26431158E-01 0.45306552E+03</pdfrwt>
<pdfrwt beam="2">  1       21 0.41988273E-01 0.45306552E+03</pdfrwt>
<totfact> 0.68841011E+04</totfact>
</mgrwt>
</event>
<event>
 7    0  0.4725730E-002  0.4527908E+03  0.7546771E-02  0.1026893E+00
         21   -1    0    0  502  501  0.00000000000E+00  0.00000000000E+00  0.54027450603E+03  0.54027450603E+03  0.00000000000E+00 0.  1.
         21   -1    0    0  501  502 -0.00000000000E+00 -0.00000000000E+00 -0.94868231254E+02  0.94868231254E+02  0.00000000000E+00 0.  1.
      99926    2    1    2    0    0  0.00000000000E+00  0.00000000000E+00  0.44540627478E+03  0.63514273729E+03  0.45279084257E+03 0.  0.
      99925    2    3    3    0    0  0.71955022148E+02 -0.77103889820E+02  0.32999251792E+03  0.43491691875E+03  0.26293559913E+03 0.  0.
         25    1    4    4    0    0  0.60109893174E+02 -0.47698546656E+02  0.12541954948E+03  0.19304383467E+03  0.12509000000E+03 0.  0.
         25    1    3    3    0    0 -0.71955022148E+02  0.77103889820E+02  0.11541375686E+03  0.20022581854E+03  0.12509000000E+03 0.  0.
         25    1    4    4    0    0  0.11845128974E+02 -0.29405343164E+02  0.20457296844E+03  0.24187308408E+03  0.12509000000E+03 0.  0.
<mgrwt>
<rscale>  2 0.45279084E+03</rscale>
<asrwt>0</asrwt>
<pdfrwt beam="1">  1       21 0.79452132E-01 0.45279084E+03</pdfrwt>
<pdfrwt beam="2">  1       21 0.13951211E-01 0.45279084E+03</pdfrwt>
<totfact> 0.57562760E+04</totfact>
</mgrwt>
</event>
<event>
 7    0  0.4725730E-002  0.4578511E+03  0.7546771E-02  0.1025406E+00
         21   -1    0    0  502  501  0.00000000000E+00  0.00000000000E+00  0.16860982753E+03  0.16860982753E+03  0.00000000000E+00 0. -1.
         21   -1    0    0  501  502 -0.00000000000E+00 -0.00000000000E+00 -0.31081765694E+03  0.31081765694E+03  0.00000000000E+00 0. -1.
      99926    2    1    2    0    0  0.00000000000E+00  0.35527136788E-14 -0.14220782941E+03  0.47942748447E+03  0.45785111785E+03 0.  0.
      99925    2    3    3    0    0 -0.91232182419E+02 -0.21546788553E+02 -0.18094257114E+02  0.27982973364E+03  0.26303935539E+03 0.  0.
         25    1    4    4    0    0 -0.53140367711E+02  0.18849934202E+02  0.17752071449E+02  0.13835412116E+03  0.12509000000E+03 0.  0.
         25    1    4    4    0    0 -0.38091814708E+02 -0.40396722755E+02 -0.35846328563E+02  0.14147561249E+03  0.12509000000E+03 0.  0.
         25    1    3    3    0    0  0.91232182419E+02  0.21546788553E+02 -0.12411357230E+03  0.19959775082E+03  0.12509000000E+03 0.  0.
<mgrwt>
<rscale>  2 0.45785112E+03</rscale>
<asrwt>0</asrwt>
<pdfrwt beam="1">  1       21 0.24795563E-01 0.45785112E+03</pdfrwt>
<pdfrwt beam="2">  1       21 0.45708479E-01 0.45785112E+03</pdfrwt>
<totfact> 0.65252658E+04</totfact>
</mgrwt>
</event>
<event>
 7    0  0.4725730E-002  0.4338176E+03  0.7546771E-02  0.1032661E+00
         21   -1    0    0  502  501  0.00000000000E+00  0.00000000000E+00  0.21239165077E+04  0.21239165077E+04  0.00000000000E+00 0. -1.
         21   -1    0    0  501  502 -0.00000000000E+00 -0.00000000000E+00 -0.22152201923E+02  0.22152201923E+02  0.00000000000E+00 0. -1.
      99926    2    1    2    0    0  0.00000000000E+00  0.00000000000E+00  0.21017643058E+04  0.21460687096E+04  0.43381759921E+03 0.  0.
      99925    2    3    3    0    0 -0.82375859671E+01 -0.90523522834E+02  0.12579579116E+04  0.12882114342E+04  0.26223696515E+03 0.  0.
         25    1    4    4    0    0 -0.22078284583E+02 -0.30856856696E+02  0.46100462433E+03  0.47917884762E+03  0.12509000000E+03 0.  0.
         25    1    4    4    0    0  0.13840698616E+02 -0.59666666139E+02  0.79695328727E+03  0.80903258659E+03  0.12509000000E+03 0.  0.
         25    1    3    3    0    0  0.82375859671E+01  0.90523522834E+02  0.84380639419E+03  0.85785727541E+03  0.12509000000E+03 0.  0.
<mgrwt>
<rscale>  2 0.43381760E+03</rscale>
<asrwt>0</asrwt>
<pdfrwt beam="1">  1       21 0.31234052E+00 0.43381760E+03</pdfrwt>
<pdfrwt beam="2">  1       21 0.32576782E-02 0.43381760E+03</pdfrwt>
<totfact> 0.13566497E+04</totfact>
</mgrwt>
</event>
<event>
 7    0  0.4725730E-002  0.4848175E+03  0.7546771E-02  0.1017820E+00
         21   -1    0    0  502  501  0.00000000000E+00  0.00000000000E+00  0.14659259350E+04  0.14659259350E+04  0.00000000000E+00 0. -1.
         21   -1    0    0  501  502 -0.00000000000E+00 -0.00000000000E+00 -0.40085241215E+02  0.40085241215E+02  0.00000000000E+00 0. -1.
      99926    2    1    2    0    0  0.00000000000E+00  0.71054273576E-14  0.14258406938E+04  0.15060111762E+04  0.48481746960E+03 0.  0.
      99925    2    3    3    0    0 -0.64165797206E+02 -0.54223587272E+02  0.12203646918E+04  0.12512066582E+04  0.26300318132E+03 0.  0.
         25    1    3    3    0    0  0.64165797206E+02  0.54223587272E+02  0.20547600195E+03  0.25480451807E+03  0.12509000000E+03 0.  0.
         25    1    4    4    0    0 -0.28110824748E+02 -0.68072528458E+02  0.64855434722E+03  0.66460088549E+03  0.12509000000E+03 0.  0.
         25    1    4    4    0    0 -0.36054972458E+02  0.13848941186E+02  0.57181034461E+03  0.58660577266E+03  0.12509000000E+03 0.  0.
<mgrwt>
<rscale>  2 0.48481747E+03</rscale>
<asrwt>0</asrwt>
<pdfrwt beam="1">  1       21 0.21557731E+00 0.48481747E+03</pdfrwt>
<pdfrwt beam="2">  1       21 0.58948894E-02 0.48481747E+03</pdfrwt>
<totfact> 0.18869129E+04</totfact>
</mgrwt>
</event>
<event>
 7    0  0.4725730E-002  0.4150927E+03  0.7546771E-02  0.1038675E+00
         21   -1    0    0  502  501  0.00000000000E+00  0.00000000000E+00  0.22411379374E+03  0.22411379374E+03  0.00000000000E+00 0.  1.
         21   -1    0    0  501  502 -0.00000000000E+00 -0.00000000000E+00 -0.19220366918E+03  0.19220366918E+03  0.00000000000E+00 0.  1.
      99926    2    1    2    0    0  0.00000000000E+00  0.71054273576E-14  0.31910124559E+02  0.41631746292E+03  0.41509272926E+03 0.  0.
      99925    2    3    3    0    0 -0.37450916057E+02 -0.46090043259E+02 -0.15365321276E+02  0.26999815770E+03  0.26293734779E+03 0.  0.
         25    1    4    4    0    0 -0.23705398915E+01 -0.60194621996E+02 -0.55509265386E+01  0.13895082894E+03  0.12509000000E+03 0.  0.
         25    1    3    3    0    0  0.37450916057E+02  0.46090043259E+02  0.47275445835E+02  0.14631930522E+03  0.12509000000E+03 0.  0.
         25    1    4    4    0    0 -0.35080376166E+02  0.14104578737E+02 -0.98143947375E+01  0.13104732877E+03  0.12509000000E+03 0.  0.
<mgrwt>
<rscale>  2 0.41509273E+03</rscale>
<asrwt>0</asrwt>
<pdfrwt beam="1">  1       21 0.32957911E-01 0.41509273E+03</pdfrwt>
<pdfrwt beam="2">  1       21 0.28265245E-01 0.41509273E+03</pdfrwt>
<totfact> 0.99614076E+04</totfact>
</mgrwt>
</event>
<event>
 7    0  0.4725730E-002  0.4453231E+03  0.7546771E-02  0.1029126E+00
         21   -1    0    0  502  501  0.00000000000E+00  0.00000000000E+00  0.14871895982E+03  0.14871895982E+03  0.00000000000E+00 0.  1.
         21   -1    0    0  501  502 -0.00000000000E+00 -0.00000000000E+00 -0.33336814486E+03  0.33336814486E+03  0.00000000000E+00 0.  1.
      99926    2    1    2    0    0  0.00000000000E+00 -0.14210854715E-13 -0.18464918504E+03  0.48208710468E+03  0.44532309054E+03 0.  0.
      99925    2    3    3    0    0  0.58757157150E+02 -0.79557833305E+02 -0.15141500440E+03  0.31919489732E+03  0.26301525918E+03 0.  0.
         25    1    3    3    0    0 -0.58757157150E+02  0.79557833305E+02 -0.33234180643E+02  0.16289220736E+03  0.12509000000E+03 0.  0.
         25    1    4    4    0    0  0.28957767399E+02  0.64022164012E+00 -0.83211998908E+02  0.15300557846E+03  0.12509000000E+03 0.  0.
         25    1    4    4    0    0  0.29799389751E+02 -0.80198054945E+02 -0.68203005491E+02  0.16618931886E+03  0.12509000000E+03 0.  0.
<mgrwt>
<rscale>  2 0.44532309E+03</rscale>
<asrwt>0</asrwt>
<pdfrwt beam="1">  1       21 0.21870435E-01 0.44532309E+03</pdfrwt>
<pdfrwt beam="2">  1       21 0.49024727E-01 0.44532309E+03</pdfrwt>
<totfact> 0.71916383E+04</totfact>
</mgrwt>
</event>
<event>
 7    0  0.4725730E-002  0.4565193E+03  0.7546771E-02  0.1025796E+00
         21   -1    0    0  502  501  0.00000000000E+00  0.00000000000E+00  0.22764995113E+03  0.22764995113E+03  0.00000000000E+00 0.  1.
         21   -1    0    0  501  502 -0.00000000000E+00 -0.00000000000E+00 -0.22887097585E+03  0.22887097585E+03  0.00000000000E+00 0.  1.
      99926    2    1    2    0    0  0.71054273576E-14  0.14210854715E-13 -0.12210247163E+01  0.45652092698E+03  0.45651929408E+03 0.  0.
      99925    2    3    3    0    0 -0.58550251737E+02 -0.90683069339E+02  0.37474396236E+02  0.28682592191E+03  0.26308407033E+03 0.  0.
         25    1    4    4    0    0 -0.40982123676E+02 -0.55450383660E+02 -0.18905889382E+02  0.14408060335E+03  0.12509000000E+03 0.  0.
         25    1    4    4    0    0 -0.17568128060E+02 -0.35232685679E+02  0.56380285618E+02  0.14274531856E+03  0.12509000000E+03 0.  0.
         25    1    3    3    0    0  0.58550251737E+02  0.90683069339E+02 -0.38695420952E+02  0.16969500507E+03  0.12509000000E+03 0.  0.
<mgrwt>
<rscale>  2 0.45651929E+03</rscale>
<asrwt>0</asrwt>
<pdfrwt beam="1">  1       21 0.33477934E-01 0.45651929E+03</pdfrwt>
<pdfrwt beam="2">  1       21 0.33657496E-01 0.45651929E+03</pdfrwt>
<totfact> 0.67611177E+04</totfact>
</mgrwt>
</event>
<event>
 7    0  0.4725730E-002  0.4613566E+03  0.7546771E-02  0.1024389E+00
         21   -1    0    0  502  501  0.00000000000E+00  0.00000000000E+00  0.36525996265E+03  0.36525996265E+03  0.00000000000E+00 0.  1.
         21   -1    0    0  501  502 -0.00000000000E+00 -0.00000000000E+00 -0.14568384331E+03  0.14568384331E+03  0.00000000000E+00 0.  1.
      99926    2    1    2    0    0 -0.71054273576E-14  0.00000000000E+00  0.21957611934E+03  0.51094380596E+03  0.46135658732E+03 0.  0.
      99925    2    3    3    0    0  0.34536566478E+02 -0.30238541387E+02  0.16258994664E+02  0.26785430579E+03  0.26339026256E+03 0.  0.
         25    1    3    3    0    0 -0.34536566478E+02  0.30238541387E+02  0.20331712468E+03  0.24308950018E+03  0.12509000000E+03 0.  0.
         25    1    4    4    0    0  0.17858450625E+02 -0.50238555411E+01 -0.31946148175E+02  0.13043093140E+03  0.12509000000E+03 0.  0.
         25    1    4    4    0    0  0.16678115853E+02 -0.25214685846E+02  0.48205142839E+02  0.13742337438E+03  0.12509000000E+03 0.  0.
<mgrwt>
<rscale>  2 0.46135659E+03</rscale>
<asrwt>0</asrwt>
<pdfrwt beam="1">  1       21 0.53714700E-01 0.46135659E+03</pdfrwt>
<pdfrwt beam="2">  1       21 0.21424095E-01 0.46135659E+03</pdfrwt>
<totfact> 0.61354147E+04</totfact>
</mgrwt>
</event>
<event>
 7    0  0.4725730E-002  0.4597013E+03  0.7546771E-02  0.1024868E+00
         21   -1    0    0  502  501  0.00000000000E+00  0.00000000000E+00  0.21432749790E+03  0.21432749790E+03  0.00000000000E+00 0. -1.
         21   -1    0    0  501  502 -0.00000000000E+00 -0.00000000000E+00 -0.24649814238E+03  0.24649814238E+03  0.00000000000E+00 0. -1.
      99926    2    1    2    0    0 -0.88817841970E-15  0.00000000000E+00 -0.32170644477E+02  0.46082564029E+03  0.45970133824E+03 0.  0.
      99925    2    3    3    0    0  0.50789552870E+00  0.67017390086E+02 -0.11693596576E+03  0.29552513719E+03  0.26300094694E+03 0.  0.
         25    1    3    3    0    0 -0.50789552870E+00 -0.67017390086E+02  0.84765321279E+02  0.16530050309E+03  0.12509000000E+03 0.  0.
         25    1    4    4    0    0 -0.17856447463E+02  0.69776897954E+02 -0.52506408694E+02  0.15359719808E+03  0.12509000000E+03 0.  0.
         25    1    4    4    0    0  0.18364342991E+02 -0.27595078680E+01 -0.64429557062E+02  0.14192793911E+03  0.12509000000E+03 0.  0.
<mgrwt>
<rscale>  2 0.45970134E+03</rscale>
<asrwt>0</asrwt>
<pdfrwt beam="1">  1       21 0.31518750E-01 0.45970134E+03</pdfrwt>
<pdfrwt beam="2">  1       21 0.36249727E-01 0.45970134E+03</pdfrwt>
<totfact> 0.65624733E+04</totfact>
</mgrwt>
</event>
<event>
 7    0  0.4725730E-002  0.4529421E+03  0.7546771E-02  0.1026848E+00
         21   -1    0    0  502  501  0.00000000000E+00  0.00000000000E+00  0.71430004901E+03  0.71430004901E+03  0.00000000000E+00 0.  1.
         21   -1    0    0  501  502 -0.00000000000E+00 -0.00000000000E+00 -0.71803344265E+02  0.71803344265E+02  0.00000000000E+00 0.  1.
      99926    2    1    2    0    0 -0.35527136788E-14  0.00000000000E+00  0.64249670475E+03  0.78610339328E+03  0.45294208163E+03 0.  0.
      99925    2    3    3    0    0 -0.26992131255E+02  0.10080626573E+03  0.47176360356E+03  0.55012081277E+03  0.26302382524E+03 0.  0.
         25    1    4    4    0    0 -0.34185118644E+02  0.87487624424E+02  0.27805071277E+03  0.31903356208E+03  0.12509000000E+03 0.  0.
         25    1    4    4    0    0  0.71929873893E+01  0.13318641303E+02  0.19371289079E+03  0.23108725069E+03  0.12509000000E+03 0.  0.
         25    1    3    3    0    0  0.26992131255E+02 -0.10080626573E+03  0.17073310119E+03  0.23598258050E+03  0.12509000000E+03 0.  0.
<mgrwt>
<rscale>  2 0.45294208E+03</rscale>
<asrwt>0</asrwt>
<pdfrwt beam="1">  1       21 0.10504412E+00 0.45294208E+03</pdfrwt>
<pdfrwt beam="2">  1       21 0.10559316E-01 0.45294208E+03</pdfrwt>
<totfact> 0.49234789E+04</totfact>
</mgrwt>
</event>
<event>
 7    0  0.4725730E-002  0.4934252E+03  0.7546771E-02  0.1015509E+00
         21   -1    0    0  502  501  0.00000000000E+00  0.00000000000E+00  0.18099031369E+03  0.18099031369E+03  0.00000000000E+00 0. -1.
         21   -1    0    0  501  502 -0.00000000000E+00 -0.00000000000E+00 -0.33630036893E+03  0.33630036893E+03  0.00000000000E+00 0. -1.
      99926    2    1    2    0    0  0.00000000000E+00  0.00000000000E+00 -0.15531005523E+03  0.51729068262E+03  0.49342520919E+03 0.  0.
      99925    2    3    3    0    0  0.27035626420E+02 -0.58794895857E+02 -0.23225049076E+03  0.35680671584E+03  0.26302657115E+03 0.  0.
         25    1    4    4    0    0  0.12419198183E+02 -0.12627727343E+02 -0.63978523595E+02  0.14161375485E+03  0.12509000000E+03 0.  0.
         25    1    4    4    0    0  0.14616428237E+02 -0.46167168514E+02 -0.16827196717E+03  0.21519296099E+03  0.12509000000E+03 0.  0.
         25    1    3    3    0    0 -0.27035626420E+02  0.58794895857E+02  0.76940435531E+02  0.16048396678E+03  0.12509000000E+03 0.  0.
<mgrwt>
<rscale>  2 0.49342521E+03</rscale>
<asrwt>0</asrwt>
<pdfrwt beam="1">  1       21 0.26616223E-01 0.49342521E+03</pdfrwt>
<pdfrwt beam="2">  1       21 0.49455936E-01 0.49342521E+03</pdfrwt>
<totfact> 0.47757149E+04</totfact>
</mgrwt>
</event>
<event>
 7    0  0.4725730E-002  0.4528100E+03  0.7546771E-02  0.1026887E+00
         21   -1    0    0  502  501  0.00000000000E+00  0.00000000000E+00  0.20092613250E+03  0.20092613250E+03  0.00000000000E+00 0.  1.
         21   -1    0    0  501  502 -0.00000000000E+00 -0.00000000000E+00 -0.25511478601E+03  0.25511478601E+03  0.00000000000E+00 0.  1.
      99926    2    1    2    0    0  0.00000000000E+00 -0.35527136788E-14 -0.54188653507E+02  0.45604091851E+03  0.45281001445E+03 0.  0.
      99925    2    3    3    0    0 -0.62189196879E+02  0.29618003984E+02 -0.12186705981E+03  0.29801371469E+03  0.26308909424E+03 0.  0.
         25    1    3    3    0    0  0.62189196879E+02 -0.29618003984E+02  0.67678406300E+02  0.15802720382E+03  0.12509000000E+03 0.  0.
         25    1    4    4    0    0 -0.58428865506E+02  0.44720406389E+02 -0.76423555287E+02  0.16401803247E+03  0.12509000000E+03 0.  0.
         25    1    4    4    0    0 -0.37603313722E+01 -0.15102402405E+02 -0.45443504520E+02  0.13399568222E+03  0.12509000000E+03 0.  0.
<mgrwt>
<rscale>  2 0.45281001E+03</rscale>
<asrwt>0</asrwt>
<pdfrwt beam="1">  1       21 0.29547961E-01 0.45281001E+03</pdfrwt>
<pdfrwt beam="2">  1       21 0.37516880E-01 0.45281001E+03</pdfrwt>
<totfact> 0.69679022E+04</totfact>
</mgrwt>
</event>
<event>
 7    0  0.4725730E-002  0.4616506E+03  0.7546771E-02  0.1024304E+00
         21   -1    0    0  502  501  0.00000000000E+00  0.00000000000E+00  0.45477601023E+03  0.45477601023E+03  0.00000000000E+00 0.  1.
         21   -1    0    0  501  502 -0.00000000000E+00 -0.00000000000E+00 -0.11715729971E+03  0.11715729971E+03  0.00000000000E+00 0.  1.
      99926    2    1    2    0    0  0.00000000000E+00 -0.14210854715E-13  0.33761871052E+03  0.57193330993E+03  0.46165064423E+03 0.  0.
      99925    2    3    3    0    0  0.33419560550E+02 -0.11422424597E+03  0.20141786678E+03  0.35201918276E+03  0.26302909074E+03 0.  0.
         25    1    4    4    0    0 -0.21955355288E+02 -0.41143368128E+02  0.88443356790E+02  0.16013915769E+03  0.12509000000E+03 0.  0.
         25    1    3    3    0    0 -0.33419560550E+02  0.11422424597E+03  0.13620084374E+03  0.21991412717E+03  0.12509000000E+03 0.  0.
         25    1    4    4    0    0  0.55374915838E+02 -0.73080877844E+02  0.11297450999E+03  0.19188002506E+03  0.12509000000E+03 0.  0.
<mgrwt>
<rscale>  2 0.46165064E+03</rscale>
<asrwt>0</asrwt>
<pdfrwt beam="1">  1       21 0.66878824E-01 0.46165064E+03</pdfrwt>
<pdfrwt beam="2">  1       21 0.17229015E-01 0.46165064E+03</pdfrwt>
<totfact> 0.57363177E+04</totfact>
</mgrwt>
</event>
<event>
 7    0  0.4725730E-002  0.4537687E+03  0.7546771E-02  0.1026604E+00
         21   -1    0    0  502  501  0.00000000000E+00  0.00000000000E+00  0.78038629066E+03  0.78038629066E+03  0.00000000000E+00 0. -1.
         21   -1    0    0  501  502 -0.00000000000E+00 -0.00000000000E+00 -0.65962843781E+02  0.65962843781E+02  0.00000000000E+00 0. -1.
      99926    2    1    2    0    0  0.14210854715E-13  0.13322676296E-14  0.71442344688E+03  0.84634913444E+03  0.45376865903E+03 0.  0.
      99925    2    3    3    0    0 -0.11168606165E+03  0.35325975266E+00  0.43376711382E+03  0.51940971109E+03  0.26298029922E+03 0.  0.
         25    1    3    3    0    0  0.11168606165E+03 -0.35325975266E+00  0.28065633306E+03  0.32693942335E+03  0.12509000000E+03 0.  0.
         25    1    4    4    0    0 -0.44586135233E+02 -0.11525838967E+02  0.14220932890E+03  0.19491477560E+03  0.12509000000E+03 0.  0.
         25    1    4    4    0    0 -0.67099926413E+02  0.11879098720E+02  0.29155778492E+03  0.32449493549E+03  0.12509000000E+03 0.  0.
<mgrwt>
<rscale>  2 0.45376866E+03</rscale>
<asrwt>0</asrwt>
<pdfrwt beam="1">  1       21 0.11476268E+00 0.45376866E+03</pdfrwt>
<pdfrwt beam="2">  1       21 0.97004187E-02 0.45376866E+03</pdfrwt>
<totfact> 0.46046322E+04</totfact>
</mgrwt>
</event>
<event>
 7    0  0.4725730E-002  0.4520695E+03  0.7546771E-02  0.1027107E+00
         21   -1    0    0  502  501  0.00000000000E+00  0.00000000000E+00  0.90135868344E+03  0.90135868344E+03  0.00000000000E+00 0.  1.
         21   -1    0    0  501  502 -0.00000000000E+00 -0.00000000000E+00 -0.56683000704E+02  0.56683000704E+02  0.00000000000E+00 0.  1.
      99926    2    1    2    0    0  0.00000000000E+00 -0.14210854715E-13  0.84467568273E+03  0.95804168414E+03  0.45206952955E+03 0.  0.
      99925    2    3    3    0    0  0.21151307820E+02 -0.10190914528E+03  0.45423763160E+03  0.53504968471E+03  0.26289444160E+03 0.  0.
         25    1    3    3    0    0 -0.21151307820E+02  0.10190914528E+03  0.39043805113E+03  0.42299199943E+03  0.12509000000E+03 0.  0.
         25    1    4    4    0    0  0.29867165165E+02 -0.15285824583E+02  0.18834241810E+03  0.22857401109E+03  0.12509000000E+03 0.  0.
         25    1    4    4    0    0 -0.87158573448E+01 -0.86623320697E+02  0.26589521350E+03  0.30647567362E+03  0.12509000000E+03 0.  0.
<mgrwt>
<rscale>  2 0.45206953E+03</rscale>
<asrwt>0</asrwt>
<pdfrwt beam="1">  1       21 0.13255274E+00 0.45206953E+03</pdfrwt>
<pdfrwt beam="2">  1       21 0.83357360E-02 0.45206953E+03</pdfrwt>
<totfact> 0.41765719E+04</totfact>
</mgrwt>
</event>
<event>
 7    0  0.4725730E-002  0.4106641E+03  0.7546771E-02  0.1040148E+00
         21   -1    0    0  502  501  0.00000000000E+00  0.00000000000E+00  0.36506423329E+03  0.36506423329E+03  0.00000000000E+00 0. -1.
         21   -1    0    0  501  502 -0.00000000000E+00 -0.00000000000E+00 -0.11548997505E+03  0.11548997505E+03  0.00000000000E+00 0. -1.
      99926    2    1    2    0    0 -0.71054273576E-14  0.35527136788E-14  0.24957425825E+03  0.48055420834E+03  0.41066414108E+03 0.  0.
      99925    2    3    3    0    0  0.57069715554E+02 -0.23218696340E+02  0.18142001372E+03  0.32534928110E+03  0.26295032428E+03 0.  0.
         25    1    3    3    0    0 -0.57069715554E+02  0.23218696340E+02  0.68154244521E+02  0.15520492724E+03  0.12509000000E+03 0.  0.
         25    1    4    4    0    0  0.23752974405E+02 -0.37631181409E+02  0.12846303817E+03  0.18474460718E+03  0.12509000000E+03 0.  0.
         25    1    4    4    0    0  0.33316741150E+02  0.14412485070E+02  0.52956975552E+02  0.14060467391E+03  0.12509000000E+03 0.  0.
<mgrwt>
<rscale>  2 0.41066414E+03</rscale>
<asrwt>0</asrwt>
<pdfrwt beam="1">  1       21 0.53685916E-01 0.41066414E+03</pdfrwt>
<pdfrwt beam="2">  1       21 0.16983820E-01 0.41066414E+03</pdfrwt>
<totfact> 0.96344415E+04</totfact>
</mgrwt>
</event>
<event>
 7    0  0.4725730E-002  0.4434055E+03  0.7546771E-02  0.1029707E+00
         21   -1    0    0  502  501  0.00000000000E+00  0.00000000000E+00  0.32702327040E+03  0.32702327040E+03  0.00000000000E+00 0.  1.
         21   -1    0    0  501  502 -0.00000000000E+00 -0.00000000000E+00 -0.15030156901E+03  0.15030156901E+03  0.00000000000E+00 0.  1.
      99926    2    1    2    0    0  0.00000000000E+00 -0.35527136788E-14  0.17672170139E+03  0.47732483941E+03  0.44340550580E+03 0.  0.
      99925    2    3    3    0    0 -0.98398107634E+02  0.16289906022E+02  0.89468950906E+02  0.29509394414E+03  0.26292241074E+03 0.  0.
         25    1    4    4    0    0 -0.78140976890E+02  0.32646698186E+02  0.67468350680E+02  0.16544275631E+03  0.12509000000E+03 0.  0.
         25    1    3    3    0    0  0.98398107634E+02 -0.16289906022E+02  0.87252750485E+02  0.18223089527E+03  0.12509000000E+03 0.  0.
         25    1    4    4    0    0 -0.20257130744E+02 -0.16356792165E+02  0.22000600226E+02  0.12965118783E+03  0.12509000000E+03 0.  0.
<mgrwt>
<rscale>  2 0.44340551E+03</rscale>
<asrwt>0</asrwt>
<pdfrwt beam="1">  1       21 0.48091657E-01 0.44340551E+03</pdfrwt>
<pdfrwt beam="2">  1       21 0.22103172E-01 0.44340551E+03</pdfrwt>
<totfact> 0.73424040E+04</totfact>
</mgrwt>
</event>
<event>
 7    0  0.4725730E-002  0.4601370E+03  0.7546771E-02  0.1024741E+00
         21   -1    0    0  502  501  0.00000000000E+00  0.00000000000E+00  0.30242632285E+02  0.30242632285E+02  0.00000000000E+00 0.  1.
         21   -1    0    0  501  502 -0.00000000000E+00 -0.00000000000E+00 -0.17502287394E+04  0.17502287394E+04  0.00000000000E+00 0.  1.
      99926    2    1    2    0    0  0.00000000000E+00  0.00000000000E+00 -0.17199861071E+04  0.17804713717E+04  0.46013704124E+03 0.  0.
      99925    2    3    3    0    0 -0.36001846319E+02 -0.86150401478E+02 -0.79928793768E+03  0.84663484856E+03  0.26308047223E+03 0.  0.
         25    1    3    3    0    0  0.36001846319E+02  0.86150401478E+02 -0.92069816946E+03  0.93383652315E+03  0.12509000000E+03 0.  0.
         25    1    4    4    0    0 -0.31634877552E+02 -0.77470071636E+02 -0.49865211447E+03  0.52086832966E+03  0.12509000000E+03 0.  0.
         25    1    4    4    0    0 -0.43669687671E+01 -0.86803298422E+01 -0.30063582321E+03  0.32576651890E+03  0.12509000000E+03 0.  0.
<mgrwt>
<rscale>  2 0.46013704E+03</rscale>
<asrwt>0</asrwt>
<pdfrwt beam="1">  1       21 0.44474466E-02 0.46013704E+03</pdfrwt>
<pdfrwt beam="2">  1       21 0.25738654E+00 0.46013704E+03</pdfrwt>
<totfact> 0.16951526E+04</totfact>
</mgrwt>
</event>
<event>
 7    0  0.4725730E-002  0.4443649E+03  0.7546771E-02  0.1029416E+00
         21   -1    0    0  502  501  0.00000000000E+00  0.00000000000E+00  0.34130750739E+03  0.34130750739E+03  0.00000000000E+00 0. -1.
         21   -1    0    0  501  502 -0.00000000000E+00 -0.00000000000E+00 -0.14463509262E+03  0.14463509262E+03  0.00000000000E+00 0. -1.
      99926    2    1    2    0    0  0.00000000000E+00  0.17763568394E-14  0.19667241476E+03  0.48594260001E+03  0.44436490835E+03 0.  0.
      99925    2    3    3    0    0 -0.73868471327E+02  0.13856452061E+02  0.20180025862E+03  0.33992083724E+03  0.26301003572E+03 0.  0.
         25    1    4    4    0    0 -0.40016430024E+02  0.56067526487E+01  0.15171905808E+03  0.20074593652E+03  0.12509000000E+03 0.  0.
         25    1    4    4    0    0 -0.33852041303E+02  0.82496994126E+01  0.50081200540E+02  0.13917490071E+03  0.12509000000E+03 0.  0.
         25    1    3    3    0    0  0.73868471327E+02 -0.13856452061E+02 -0.51278438523E+01  0.14602176277E+03  0.12509000000E+03 0.  0.
<mgrwt>
<rscale>  2 0.44436491E+03</rscale>
<asrwt>0</asrwt>
<pdfrwt beam="1">  1       21 0.50192281E-01 0.44436491E+03</pdfrwt>
<pdfrwt beam="2">  1       21 0.21269867E-01 0.44436491E+03</pdfrwt>
<totfact> 0.72173702E+04</totfact>
</mgrwt>
</event>
<event>
 7    0  0.4725730E-002  0.4587274E+03  0.7546771E-02  0.1025151E+00
         21   -1    0    0  502  501  0.00000000000E+00  0.00000000000E+00  0.17117751152E+03  0.17117751152E+03  0.00000000000E+00 0. -1.
         21   -1    0    0  501  502 -0.00000000000E+00 -0.00000000000E+00 -0.30732834108E+03  0.30732834108E+03  0.00000000000E+00 0. -1.
      99926    2    1    2    0    0  0.00000000000E+00  0.00000000000E+00 -0.13615082955E+03  0.47850585260E+03  0.45872737283E+03 0.  0.
      99925    2    3    3    0    0  0.44044551576E+02  0.66654405721E+02  0.32437218176E+01  0.27488590913E+03  0.26300001708E+03 0.  0.
         25    1    3    3    0    0 -0.44044551576E+02 -0.66654405721E+02 -0.13939455137E+03  0.20361994347E+03  0.12509000000E+03 0.  0.
         25    1    4    4    0    0 -0.77922724446E+01  0.57257816478E+02  0.15207474296E+02  0.13862882973E+03  0.12509000000E+03 0.  0.
         25    1    4    4    0    0  0.51836824021E+02  0.93965892426E+01 -0.11963752478E+02  0.13625707940E+03  0.12509000000E+03 0.  0.
<mgrwt>
<rscale>  2 0.45872737E+03</rscale>
<asrwt>0</asrwt>
<pdfrwt beam="1">  1       21 0.25173164E-01 0.45872737E+03</pdfrwt>
<pdfrwt beam="2">  1       21 0.45195344E-01 0.45872737E+03</pdfrwt>
<totfact> 0.64868758E+04</totfact>
</mgrwt>
</event>
<event>
 7    0  0.4725730E-002  0.4552858E+03  0.7546771E-02  0.1026157E+00
         21   -1    0    0  502  501  0.00000000000E+00  0.00000000000E+00  0.14180344121E+03  0.14180344121E+03  0.00000000000E+00 0. -1.
         21   -1    0    0  501  502 -0.00000000000E+00 -0.00000000000E+00 -0.36544448376E+03  0.36544448376E+03  0.00000000000E+00 0. -1.
      99926    2    1    2    0    0  0.00000000000E+00  0.00000000000E+00 -0.22364104255E+03  0.50724792497E+03  0.45528578000E+03 0.  0.
      99925    2    3    3    0    0 -0.10684333845E+03 -0.38058087595E+02 -0.14430620694E+03  0.32068576041E+03  0.26296607874E+03 0.  0.
         25    1    3    3    0    0  0.10684333845E+03  0.38058087595E+02 -0.79334835603E+02  0.18656216455E+03  0.12509000000E+03 0.  0.
         25    1    4    4    0    0 -0.42453460427E+02 -0.92017937750E+01 -0.11211044538E+03  0.17350282238E+03  0.12509000000E+03 0.  0.
         25    1    4    4    0    0 -0.64389878024E+02 -0.28856293820E+02 -0.32195761563E+02  0.14718293803E+03  0.12509000000E+03 0.  0.
<mgrwt>
<rscale>  2 0.45528578E+03</rscale>
<asrwt>0</asrwt>
<pdfrwt beam="1">  1       21 0.20853448E-01 0.45528578E+03</pdfrwt>
<pdfrwt beam="2">  1       21 0.53741835E-01 0.45528578E+03</pdfrwt>
<totfact> 0.64617723E+04</totfact>
</mgrwt>
</event>
<event>
 7    0  0.4725730E-002  0.4610598E+03  0.7546771E-02  0.1024474E+00
         21   -1    0    0  502  501  0.00000000000E+00  0.00000000000E+00  0.10798857742E+04  0.10798857742E+04  0.00000000000E+00 0.  1.
         21   -1    0    0  501  502 -0.00000000000E+00 -0.00000000000E+00 -0.49212644146E+02  0.49212644146E+02  0.00000000000E+00 0.  1.
      99926    2    1    2    0    0  0.00000000000E+00 -0.35527136788E-14  0.10306731300E+04  0.11290984183E+04  0.46105979795E+03 0.  0.
      99925    2    3    3    0    0  0.10957360652E+03 -0.28530514827E+02  0.73300766822E+03  0.78693968209E+03  0.26297044712E+03 0.  0.
         25    1    3    3    0    0 -0.10957360652E+03  0.28530514827E+02  0.29766546180E+03  0.34215873622E+03  0.12509000000E+03 0.  0.
         25    1    4    4    0    0  0.47556907091E+02 -0.50116532401E+02  0.41648258669E+03  0.44031645364E+03  0.12509000000E+03 0.  0.
         25    1    4    4    0    0  0.62016699433E+02  0.21586017574E+02  0.31652508153E+03  0.34662322845E+03  0.12509000000E+03 0.  0.
<mgrwt>
<rscale>  2 0.46105980E+03</rscale>
<asrwt>0</asrwt>
<pdfrwt beam="1">  1       21 0.15880672E+00 0.46105980E+03</pdfrwt>
<pdfrwt beam="2">  1       21 0.72371542E-02 0.46105980E+03</pdfrwt>
<totfact> 0.32905821E+04</totfact>
</mgrwt>
</event>
<event>
 7    0  0.4725730E-002  0.4470568E+03  0.7546771E-02  0.1028603E+00
         21   -1    0    0  502  501  0.00000000000E+00  0.00000000000E+00  0.24026591114E+03  0.24026591114E+03  0.00000000000E+00 0.  1.
         21   -1    0    0  501  502 -0.00000000000E+00 -0.00000000000E+00 -0.20795686697E+03  0.20795686697E+03  0.00000000000E+00 0.  1.
      99926    2    1    2    0    0  0.00000000000E+00  0.35527136788E-14  0.32309044171E+02  0.44822277810E+03  0.44705680229E+03 0.  0.
      99925    2    3    3    0    0 -0.10500151356E+03 -0.11585149659E+02  0.23256704483E+02  0.28424416213E+03  0.26285801464E+03 0.  0.
         25    1    3    3    0    0  0.10500151356E+03  0.11585149659E+02  0.90523396877E+01  0.16397861597E+03  0.12509000000E+03 0.  0.
         25    1    4    4    0    0 -0.31629165509E+02  0.22855543552E+02  0.32159956048E+02  0.13492424117E+03  0.12509000000E+03 0.  0.
         25    1    4    4    0    0 -0.73372348052E+02 -0.34440693211E+02 -0.89032515645E+01  0.14931992096E+03  0.12509000000E+03 0.  0.
<mgrwt>
<rscale>  2 0.44705680E+03</rscale>
<asrwt>0</asrwt>
<pdfrwt beam="1">  1       21 0.35333222E-01 0.44705680E+03</pdfrwt>
<pdfrwt beam="2">  1       21 0.30581892E-01 0.44705680E+03</pdfrwt>
<totfact> 0.73600311E+04</totfact>
</mgrwt>
</event>
<event>
 7    0  0.4725730E-002  0.4380280E+03  0.7546771E-02  0.1031354E+00
         21   -1    0    0  502  501  0.00000000000E+00  0.00000000000E+00  0.19685304044E+03  0.19685304044E+03  0.00000000000E+00 0. -1.
         21   -1    0    0  501  502 -0.00000000000E+00 -0.00000000000E+00 -0.24366975854E+03  0.24366975854E+03  0.00000000000E+00 0. -1.
      99926    2    1    2    0    0 -0.35527136788E-14  0.00000000000E+00 -0.46816718105E+02  0.44052279898E+03  0.43802800291E+03 0.  0.
      99925    2    3    3    0    0 -0.23606564661E+02 -0.93196429958E+02 -0.22188602420E+02  0.28084532207E+03  0.26294280062E+03 0.  0.
         25    1    3    3    0    0  0.23606564661E+02  0.93196429958E+02 -0.24628115685E+02  0.15967747692E+03  0.12509000000E+03 0.  0.
         25    1    4    4    0    0 -0.45478034143E+02 -0.23666032459E+02 -0.11292820750E+02  0.13565901585E+03  0.12509000000E+03 0.  0.
         25    1    4    4    0    0  0.21871469482E+02 -0.69530397499E+02 -0.10895781670E+02  0.14518630621E+03  0.12509000000E+03 0.  0.
<mgrwt>
<rscale>  2 0.43802800E+03</rscale>
<asrwt>0</asrwt>
<pdfrwt beam="1">  1       21 0.28948977E-01 0.43802800E+03</pdfrwt>
<pdfrwt beam="2">  1       21 0.35833788E-01 0.43802800E+03</pdfrwt>
<totfact> 0.79903543E+04</totfact>
</mgrwt>
</event>
<event>
 7    0  0.4725730E-002  0.4571447E+03  0.7546771E-02  0.1025613E+00
         21   -1    0    0  502  501  0.00000000000E+00  0.00000000000E+00  0.36504329774E+03  0.36504329774E+03  0.00000000000E+00 0. -1.
         21   -1    0    0  501  502 -0.00000000000E+00 -0.00000000000E+00 -0.14312091265E+03  0.14312091265E+03  0.00000000000E+00 0. -1.
      99926    2    1    2    0    0  0.00000000000E+00  0.00000000000E+00  0.22192238508E+03  0.50816421039E+03  0.45714474701E+03 0.  0.
      99925    2    3    3    0    0  0.99864627656E+01 -0.93653832569E+02  0.21263199002E+03  0.35130570940E+03  0.26331078307E+03 0.  0.
         25    1    4    4    0    0  0.53123525909E+01 -0.34445443557E+02  0.15261935781E+03  0.20038684126E+03  0.12509000000E+03 0.  0.
         25    1    4    4    0    0  0.46741101747E+01 -0.59208389012E+02  0.60012632208E+02  0.15091886814E+03  0.12509000000E+03 0.  0.
         25    1    3    3    0    0 -0.99864627656E+01  0.93653832569E+02  0.92903950635E+01  0.15685850099E+03  0.12509000000E+03 0.  0.
<mgrwt>
<rscale>  2 0.45714475E+03</rscale>
<asrwt>0</asrwt>
<pdfrwt beam="1">  1       21 0.53682838E-01 0.45714475E+03</pdfrwt>
<pdfrwt beam="2">  1       21 0.21047193E-01 0.45714475E+03</pdfrwt>
<totfact> 0.63611074E+04</totfact>
</mgrwt>
</event>
<event>
 7    0  0.4725730E-002  0.4681416E+03  0.7546771E-02  0.1022446E+00
         21   -1    0    0  502  501  0.00000000000E+00  0.00000000000E+00  0.15817200240E+03  0.15817200240E+03  0.00000000000E+00 0.  1.
         21   -1    0    0  501  502 -0.00000000000E+00 -0.00000000000E+00 -0.34638956177E+03  0.34638956177E+03  0.00000000000E+00 0.  1.
      99926    2    1    2    0    0  0.71054273576E-14  0.00000000000E+00 -0.18821755937E+03  0.50456156417E+03  0.46814156233E+03 0.  0.
      99925    2    3    3    0    0  0.56792699736E+02  0.37807805871E+02 -0.23021146393E+03  0.35601582358E+03  0.26285948258E+03 0.  0.
         25    1    4    4    0    0  0.66638392771E+02  0.29860513494E+02 -0.10797731051E+03  0.18066248460E+03  0.12509000000E+03 0.  0.
         25    1    4    4    0    0 -0.98456930344E+01  0.79472923768E+01 -0.12223415342E+03  0.17535333898E+03  0.12509000000E+03 0.  0.
         25    1    3    3    0    0 -0.56792699736E+02 -0.37807805871E+02  0.41993904561E+02  0.14854574059E+03  0.12509000000E+03 0.  0.
<mgrwt>
<rscale>  2 0.46814156E+03</rscale>
<asrwt>0</asrwt>
<pdfrwt beam="1">  1       21 0.23260589E-01 0.46814156E+03</pdfrwt>
<pdfrwt beam="2">  1       21 0.50939640E-01 0.46814156E+03</pdfrwt>
<totfact> 0.58595812E+04</totfact>
</mgrwt>
</event>
<event>
 7    0  0.4725730E-002  0.4481177E+03  0.7546771E-02  0.1028285E+00
         21   -1    0    0  502  501  0.00000000000E+00  0.00000000000E+00  0.10998021603E+03  0.10998021603E+03  0.00000000000E+00 0.  1.
         21   -1    0    0  501  502 -0.00000000000E+00 -0.00000000000E+00 -0.45646721538E+03  0.45646721538E+03  0.00000000000E+00 0.  1.
      99926    2    1    2    0    0  0.00000000000E+00 -0.14210854715E-13 -0.34648699935E+03  0.56644743141E+03  0.44811767632E+03 0.  0.
      99925    2    3    3    0    0  0.23273799430E+02 -0.71498717972E+02 -0.12255032427E+03  0.29914820029E+03  0.26233056884E+03 0.  0.
         25    1    4    4    0    0  0.11611362590E+02 -0.45136919727E+01 -0.29690564414E+02  0.12916746832E+03  0.12509000000E+03 0.  0.
         25    1    4    4    0    0  0.11662436840E+02 -0.66985025999E+02 -0.92859759851E+02  0.16998073197E+03  0.12509000000E+03 0.  0.
         25    1    3    3    0    0 -0.23273799430E+02  0.71498717972E+02 -0.22393667508E+03  0.26729923112E+03  0.12509000000E+03 0.  0.
<mgrwt>
<rscale>  2 0.44811768E+03</rscale>
<asrwt>0</asrwt>
<pdfrwt beam="1">  1       21 0.16173561E-01 0.44811768E+03</pdfrwt>
<pdfrwt beam="2">  1       21 0.67127532E-01 0.44811768E+03</pdfrwt>
<totfact> 0.64217068E+04</totfact>
</mgrwt>
</event>
<event>
 7    0  0.4725730E-002  0.4619850E+03  0.7546771E-02  0.1024207E+00
         21   -1    0    0  502  501  0.00000000000E+00  0.00000000000E+00  0.53512844727E+03  0.53512844727E+03  0.00000000000E+00 0.  1.
         21   -1    0    0  501  502 -0.00000000000E+00 -0.00000000000E+00 -0.99709767296E+02  0.99709767296E+02  0.00000000000E+00 0.  1.
      99926    2    1    2    0    0  0.00000000000E+00  0.00000000000E+00  0.43541867998E+03  0.63483821457E+03  0.46198499089E+03 0.  0.
      99925    2    3    3    0    0 -0.10946263698E+03  0.36957995721E+02  0.22967624463E+03  0.36777002076E+03  0.26297461566E+03 0.  0.
         25    1    4    4    0    0 -0.61227684793E+02  0.22161687529E+02  0.66071995702E+02  0.15573370379E+03  0.12509000000E+03 0.  0.
         25    1    4    4    0    0 -0.48234952186E+02  0.14796308191E+02  0.16360424893E+03  0.21203631698E+03  0.12509000000E+03 0.  0.
         25    1    3    3    0    0  0.10946263698E+03 -0.36957995721E+02  0.20574243535E+03  0.26706819381E+03  0.12509000000E+03 0.  0.
<mgrwt>
<rscale>  2 0.46198499E+03</rscale>
<asrwt>0</asrwt>
<pdfrwt beam="1">  1       21 0.78695359E-01 0.46198499E+03</pdfrwt>
<pdfrwt beam="2">  1       21 0.14663201E-01 0.46198499E+03</pdfrwt>
<totfact> 0.53568404E+04</totfact>
</mgrwt>
</event>
<event>
 7    0  0.4725730E-002  0.4530898E+03  0.7546771E-02  0.1026805E+00
         21   -1    0    0  502  501  0.00000000000E+00  0.00000000000E+00  0.10130980220E+04  0.10130980220E+04  0.00000000000E+00 0.  1.
         21   -1    0    0  501  502 -0.00000000000E+00 -0.00000000000E+00 -0.50659065464E+02  0.50659065464E+02  0.00000000000E+00 0.  1.
      99926    2    1    2    0    0  0.00000000000E+00  0.00000000000E+00  0.96243895655E+03  0.10637570875E+04  0.45308983223E+03 0.  0.
      99925    2    3    3    0    0 -0.82124488707E+01  0.75820895277E+02  0.41388000488E+03  0.49597131447E+03  0.26243977187E+03 0.  0.
         25    1    4    4    0    0  0.18792768286E+02  0.35912736306E+02  0.26370530347E+03  0.29467081286E+03  0.12509000000E+03 0.  0.
         25    1    4    4    0    0 -0.27005217157E+02  0.39908158971E+02  0.15017470141E+03  0.20130050161E+03  0.12509000000E+03 0.  0.
         25    1    3    3    0    0  0.82124488707E+01 -0.75820895277E+02  0.54855895167E+03  0.56778577302E+03  0.12509000000E+03 0.  0.
<mgrwt>
<rscale>  2 0.45308983E+03</rscale>
<asrwt>0</asrwt>
<pdfrwt beam="1">  1       21 0.14898499E+00 0.45308983E+03</pdfrwt>
<pdfrwt beam="2">  1       21 0.74498632E-02 0.45308983E+03</pdfrwt>
<totfact> 0.37330006E+04</totfact>
</mgrwt>
</event>
<event>
 7    0  0.4725730E-002  0.4607446E+03  0.7546771E-02  0.1024565E+00
         21   -1    0    0  502  501  0.00000000000E+00  0.00000000000E+00  0.33963916250E+03  0.33963916250E+03  0.00000000000E+00 0.  1.
         21   -1    0    0  501  502 -0.00000000000E+00 -0.00000000000E+00 -0.15625820240E+03  0.15625820240E+03  0.00000000000E+00 0.  1.
      99926    2    1    2    0    0  0.71054273576E-14  0.14210854715E-13  0.18338096010E+03  0.49589736491E+03  0.46074463642E+03 0.  0.
      99925    2    3    3    0    0  0.62135089404E+02 -0.93785432994E+02  0.75006787073E+02  0.29577503668E+03  0.26305964616E+03 0.  0.
         25    1    4    4    0    0  0.61699473277E+01 -0.45216948930E+02  0.21988349873E+01  0.13317275884E+03  0.12509000000E+03 0.  0.
         25    1    3    3    0    0 -0.62135089404E+02  0.93785432994E+02  0.10837417303E+03  0.20012232823E+03  0.12509000000E+03 0.  0.
         25    1    4    4    0    0  0.55965142077E+02 -0.48568484064E+02  0.72807952085E+02  0.16260227784E+03  0.12509000000E+03 0.  0.
<mgrwt>
<rscale>  2 0.46074464E+03</rscale>
<asrwt>0</asrwt>
<pdfrwt beam="1">  1       21 0.49946936E-01 0.46074464E+03</pdfrwt>
<pdfrwt beam="2">  1       21 0.22979147E-01 0.46074464E+03</pdfrwt>
<totfact> 0.62653450E+04</totfact>
</mgrwt>
</event>
<event>
 7    0  0.4725730E-002  0.4527632E+03  0.7546771E-02  0.1026901E+00
         21   -1    0    0  502  501  0.00000000000E+00  0.00000000000E+00  0.19567518179E+03  0.19567518179E+03  0.00000000000E+00 0. -1.
         21   -1    0    0  501  502 -0.00000000000E+00 -0.00000000000E+00 -0.26190663064E+03  0.26190663064E+03  0.00000000000E+00 0. -1.
      99926    2    1    2    0    0  0.00000000000E+00  0.00000000000E+00 -0.66231448846E+02  0.45758181243E+03  0.45276319445E+03 0.  0.
      99925    2    3    3    0    0 -0.81179884114E+02 -0.22501833214E+02 -0.11486677615E+03  0.29912232472E+03  0.26302715221E+03 0.  0.
         25    1    4    4    0    0 -0.73926822988E+02  0.10076274073E+02 -0.73921516100E+02  0.16333586593E+03  0.12509000000E+03 0.  0.
         25    1    4    4    0    0 -0.72530611263E+01 -0.32578107287E+02 -0.40945260054E+02  0.13578645879E+03  0.12509000000E+03 0.  0.
         25    1    3    3    0    0  0.81179884114E+02  0.22501833214E+02  0.48635327308E+02  0.15845948771E+03  0.12509000000E+03 0.  0.
<mgrwt>
<rscale>  2 0.45276319E+03</rscale>
<asrwt>0</asrwt>
<pdfrwt beam="1">  1       21 0.28775762E-01 0.45276319E+03</pdfrwt>
<pdfrwt beam="2">  1       21 0.38515681E-01 0.45276319E+03</pdfrwt>
<totfact> 0.69590243E+04</totfact>
</mgrwt>
</event>
<event>
 7    0  0.4725730E-002  0.4415889E+03  0.7546771E-02  0.1030260E+00
         21   -1    0    0  502  501  0.00000000000E+00  0.00000000000E+00  0.20317895132E+03  0.20317895132E+03  0.00000000000E+00 0. -1.
         21   -1    0    0  501  502 -0.00000000000E+00 -0.00000000000E+00 -0.23993715250E+03  0.23993715250E+03  0.00000000000E+00 0. -1.
      99926    2    1    2    0    0  0.00000000000E+00  0.71054273576E-14 -0.36758201182E+02  0.44311610383E+03  0.44158885416E+03 0.  0.
      99925    2    3    3    0    0  0.70256777598E+02  0.60289040609E+02 -0.61523694588E+02  0.28553558162E+03  0.26301068449E+03 0.  0.
         25    1    4    4    0    0  0.74083339249E+02  0.46684949175E+02 -0.27709069542E+02  0.15518739082E+03  0.12509000000E+03 0.  0.
         25    1    3    3    0    0 -0.70256777598E+02 -0.60289040609E+02  0.24765493405E+02  0.15758052221E+03  0.12509000000E+03 0.  0.
         25    1    4    4    0    0 -0.38265616516E+01  0.13604091434E+02 -0.33814625046E+02  0.13034819080E+03  0.12509000000E+03 0.  0.
<mgrwt>
<rscale>  2 0.44158885E+03</rscale>
<asrwt>0</asrwt>
<pdfrwt beam="1">  1       21 0.29879258E-01 0.44158885E+03</pdfrwt>
<pdfrwt beam="2">  1       21 0.35284875E-01 0.44158885E+03</pdfrwt>
<totfact> 0.77379605E+04</totfact>
</mgrwt>
</event>
<event>
 6    0  0.4725730E-002  0.4498673E+03  0.7546771E-02  0.1027762E+00
         21   -1    0    0  502  501  0.00000000000E+00  0.00000000000E+00  0.11221625781E+03  0.11221625781E+03  0.00000000000E+00 0.  1.
         21   -1    0    0  501  502 -0.00000000000E+00 -0.00000000000E+00 -0.45087188768E+03  0.45087188768E+03  0.00000000000E+00 0.  1.
      99926    2    1    2    0    0  0.00000000000E+00  0.00000000000E+00 -0.33865562987E+03  0.56308814549E+03  0.44986734040E+03 0.  0.
         25    1    3    3    0    0  0.44768141782E+02  0.30259878600E+02 -0.14283785284E+03  0.19740822444E+03  0.12509000000E+03 0.  0.
         25    1    3    3    0    0 -0.24193912135E+01  0.49523348129E+01 -0.19166424666E+03  0.22893901071E+03  0.12509000000E+03 0.  0.
         25    1    3    3    0    0 -0.42348750568E+02 -0.35212213413E+02 -0.41535303586E+01  0.13674091035E+03  0.12509000000E+03 0.  0.
<mgrwt>
<rscale>  2 0.44986734E+03</rscale>
<asrwt>0</asrwt>
<pdfrwt beam="1">  1       21 0.16502391E-01 0.44986734E+03</pdfrwt>
<pdfrwt beam="2">  1       21 0.66304691E-01 0.44986734E+03</pdfrwt>
<totfact> 0.63550649E+04</totfact>
</mgrwt>
</event>
<event>
 7    0  0.4725730E-002  0.4651554E+03  0.7546771E-02  0.1023297E+00
         21   -1    0    0  502  501  0.00000000000E+00  0.00000000000E+00  0.71956028729E+02  0.71956028729E+02  0.00000000000E+00 0.  1.
         21   -1    0    0  501  502 -0.00000000000E+00 -0.00000000000E+00 -0.75174216057E+03  0.75174216057E+03  0.00000000000E+00 0.  1.
      99926    2    1    2    0    0  0.17763568394E-14  0.00000000000E+00 -0.67978613184E+03  0.82369818930E+03  0.46515537405E+03 0.  0.
      99925    2    3    3    0    0  0.12851659665E+02  0.32694045044E+02 -0.63160413642E+03  0.68512301649E+03  0.26312676951E+03 0.  0.
         25    1    4    4    0    0  0.30499613300E+02 -0.74234748393E+01 -0.37045908372E+03  0.39226620451E+03  0.12509000000E+03 0.  0.
         25    1    4    4    0    0 -0.17647953636E+02  0.40117519884E+02 -0.26114505270E+03  0.29285681197E+03  0.12509000000E+03 0.  0.
         25    1    3    3    0    0 -0.12851659665E+02 -0.32694045044E+02 -0.48181995417E+02  0.13857517281E+03  0.12509000000E+03 0.  0.
<mgrwt>
<rscale>  2 0.46515537E+03</rscale>
<asrwt>0</asrwt>
<pdfrwt beam="1">  1       21 0.10581769E-01 0.46515537E+03</pdfrwt>
<pdfrwt beam="2">  1       21 0.11055032E+00 0.46515537E+03</pdfrwt>
<totfact> 0.43101317E+04</totfact>
</mgrwt>
</event>
<event>
 7    0  0.4725730E-002  0.4558797E+03  0.7546771E-02  0.1025983E+00
         21   -1    0    0  502  501  0.00000000000E+00  0.00000000000E+00  0.10537834192E+03  0.10537834192E+03  0.00000000000E+00 0.  1.
         21   -1    0    0  501  502 -0.00000000000E+00 -0.00000000000E+00 -0.49304801218E+03  0.49304801218E+03  0.00000000000E+00 0.  1.
      99926    2    1    2    0    0  0.00000000000E+00 -0.14210854715E-13 -0.38766967027E+03  0.59842635410E+03  0.45587972979E+03 0.  0.
      99925    2    3    3    0    0  0.38422765605E+02 -0.77934003895E+02 -0.14694716791E+03  0.31356700438E+03  0.26302239106E+03 0.  0.
         25    1    4    4    0    0  0.15847814097E+02 -0.16413872669E+01 -0.89236541410E+02  0.15448144156E+03  0.12509000000E+03 0.  0.
         25    1    4    4    0    0  0.22574951508E+02 -0.76292616628E+02 -0.57710626499E+02  0.15908556282E+03  0.12509000000E+03 0.  0.
         25    1    3    3    0    0 -0.38422765605E+02  0.77934003895E+02 -0.24072250236E+03  0.28485934972E+03  0.12509000000E+03 0.  0.
<mgrwt>
<rscale>  2 0.45587973E+03</rscale>
<asrwt>0</asrwt>
<pdfrwt beam="1">  1       21 0.15496815E-01 0.45587973E+03</pdfrwt>
<pdfrwt beam="2">  1       21 0.72507059E-01 0.45587973E+03</pdfrwt>
<totfact> 0.58368437E+04</totfact>
</mgrwt>
</event>
<event>
 7    0  0.4725730E-002  0.4617114E+03  0.7546771E-02  0.1024286E+00
         21   -1    0    0  502  501  0.00000000000E+00  0.00000000000E+00  0.77084246691E+03  0.77084246691E+03  0.00000000000E+00 0. -1.
         21   -1    0    0  501  502 -0.00000000000E+00 -0.00000000000E+00 -0.69137788410E+02  0.69137788410E+02  0.00000000000E+00 0. -1.
      99926    2    1    2    0    0  0.14210854715E-13 -0.88817841970E-15  0.70170467850E+03  0.83998025532E+03  0.46171135301E+03 0.  0.
      99925    2    3    3    0    0  0.10291632805E+03 -0.74129705347E+01  0.54832707668E+03  0.61677873303E+03  0.26288153185E+03 0.  0.
         25    1    4    4    0    0  0.20386415843E+02  0.37015779476E+01  0.19232882265E+03  0.23036317360E+03  0.12509000000E+03 0.  0.
         25    1    3    3    0    0 -0.10291632805E+03  0.74129705347E+01  0.15337760182E+03  0.22320152229E+03  0.12509000000E+03 0.  0.
         25    1    4    4    0    0  0.82529912211E+02 -0.11114548482E+02  0.35599825403E+03  0.38641555943E+03  0.12509000000E+03 0.  0.
<mgrwt>
<rscale>  2 0.46171135E+03</rscale>
<asrwt>0</asrwt>
<pdfrwt beam="1">  1       21 0.11335918E+00 0.46171135E+03</pdfrwt>
<pdfrwt beam="2">  1       21 0.10167322E-01 0.46171135E+03</pdfrwt>
<totfact> 0.43552109E+04</totfact>
</mgrwt>
</event>
<event>
 7    0  0.4725730E-002  0.4586780E+03  0.7546771E-02  0.1025165E+00
         21   -1    0    0  502  501  0.00000000000E+00  0.00000000000E+00  0.37438994101E+03  0.37438994101E+03  0.00000000000E+00 0.  1.
         21   -1    0    0  501  502 -0.00000000000E+00 -0.00000000000E+00 -0.14048552057E+03  0.14048552057E+03  0.00000000000E+00 0.  1.
      99926    2    1    2    0    0  0.00000000000E+00  0.00000000000E+00  0.23390442044E+03  0.51487546158E+03  0.45867795133E+03 0.  0.
      99925    2    3    3    0    0  0.19772833931E+02 -0.11419810713E+03  0.13168545041E+03  0.31605796092E+03  0.26290569446E+03 0.  0.
         25    1    4    4    0    0  0.50329292378E+02 -0.60552751890E+02  0.66168442095E+02  0.16194271908E+03  0.12509000000E+03 0.  0.
         25    1    4    4    0    0 -0.30556458447E+02 -0.53645355237E+02  0.65517008314E+02  0.15411524185E+03  0.12509000000E+03 0.  0.
         25    1    3    3    0    0 -0.19772833931E+02  0.11419810713E+03  0.10221897003E+03  0.19881750065E+03  0.12509000000E+03 0.  0.
<mgrwt>
<rscale>  2 0.45867795E+03</rscale>
<asrwt>0</asrwt>
<pdfrwt beam="1">  1       21 0.55057344E-01 0.45867795E+03</pdfrwt>
<pdfrwt beam="2">  1       21 0.20659635E-01 0.45867795E+03</pdfrwt>
<totfact> 0.62396601E+04</totfact>
</mgrwt>
</event>
<event>
 7    0  0.4725730E-002  0.4617723E+03  0.7546771E-02  0.1024268E+00
         21   -1    0    0  502  501  0.00000000000E+00  0.00000000000E+00  0.99088544560E+03  0.99088544560E+03  0.00000000000E+00 0.  1.
         21   -1    0    0  501  502 -0.00000000000E+00 -0.00000000000E+00 -0.53798764577E+02  0.53798764577E+02  0.00000000000E+00 0.  1.
      99926    2    1    2    0    0  0.14210854715E-13  0.71054273576E-14  0.93708668102E+03  0.10446842102E+04  0.46177229371E+03 0.  0.
      99925    2    3    3    0    0  0.91375572879E+02  0.60704508457E+02  0.47996408426E+03  0.55822443873E+03  0.26308642905E+03 0.  0.
         25    1    4    4    0    0  0.61925883785E+02  0.59054372436E+02  0.20734708528E+03  0.25683176567E+03  0.12509000000E+03 0.  0.
         25    1    4    4    0    0  0.29449689095E+02  0.16501360212E+01  0.27261699898E+03  0.30139267306E+03  0.12509000000E+03 0.  0.
         25    1    3    3    0    0 -0.91375572879E+02 -0.60704508457E+02  0.45712259676E+03  0.48645977145E+03  0.12509000000E+03 0.  0.
<mgrwt>
<rscale>  2 0.46177229E+03</rscale>
<asrwt>0</asrwt>
<pdfrwt beam="1">  1       21 0.14571844E+00 0.46177229E+03</pdfrwt>
<pdfrwt beam="2">  1       21 0.79115836E-02 0.46177229E+03</pdfrwt>
<totfact> 0.35555944E+04</totfact>
</mgrwt>
</event>
<event>
 7    0  0.4725730E-002  0.4525234E+03  0.7546771E-02  0.1026972E+00
         21   -1    0    0  502  501  0.00000000000E+00  0.00000000000E+00  0.13035867416E+03  0.13035867416E+03  0.00000000000E+00 0. -1.
         21   -1    0    0  501  502 -0.00000000000E+00 -0.00000000000E+00 -0.39271917624E+03  0.39271917624E+03  0.00000000000E+00 0. -1.
      99926    2    1    2    0    0  0.00000000000E+00  0.00000000000E+00 -0.26236050208E+03  0.52307785041E+03  0.45252337457E+03 0.  0.
      99925    2    3    3    0    0  0.74232268157E+02 -0.82024613114E+02 -0.17338885502E+03  0.33386387399E+03  0.26298844940E+03 0.  0.
         25    1    3    3    0    0 -0.74232268157E+02  0.82024613114E+02 -0.88971647056E+02  0.18921397642E+03  0.12509000000E+03 0.  0.
         25    1    4    4    0    0  0.27911649880E+02 -0.65141296522E+02 -0.12640219583E+03  0.19143529435E+03  0.12509000000E+03 0.  0.
         25    1    4    4    0    0  0.46320618277E+02 -0.16883316592E+02 -0.46986659196E+02  0.14242857964E+03  0.12509000000E+03 0.  0.
<mgrwt>
<rscale>  2 0.45252337E+03</rscale>
<asrwt>0</asrwt>
<pdfrwt beam="1">  1       21 0.19170393E-01 0.45252337E+03</pdfrwt>
<pdfrwt beam="2">  1       21 0.57752820E-01 0.45252337E+03</pdfrwt>
<totfact> 0.64943230E+04</totfact>
</mgrwt>
</event>
<event>
 7    0  0.4725730E-002  0.4571068E+03  0.7546771E-02  0.1025624E+00
         21   -1    0    0  502  501  0.00000000000E+00  0.00000000000E+00  0.28866144293E+03  0.28866144293E+03  0.00000000000E+00 0.  1.
         21   -1    0    0  501  502 -0.00000000000E+00 -0.00000000000E+00 -0.18096169106E+03  0.18096169106E+03  0.00000000000E+00 0.  1.
      99926    2    1    2    0    0  0.00000000000E+00  0.00000000000E+00  0.10769975186E+03  0.46962313399E+03  0.45710682715E+03 0.  0.
      99925    2    3    3    0    0  0.40379775378E+02  0.81427386944E+02  0.14063631703E+03  0.31153053129E+03  0.26270088057E+03 0.  0.
         25    1    4    4    0    0  0.14293448747E+02  0.12663478379E+02  0.98710757155E+02  0.16048672232E+03  0.12509000000E+03 0.  0.
         25    1    4    4    0    0  0.26086326631E+02  0.68763908565E+02  0.41925559877E+02  0.15104380897E+03  0.12509000000E+03 0.  0.
         25    1    3    3    0    0 -0.40379775378E+02 -0.81427386944E+02 -0.32936565169E+02  0.15809260270E+03  0.12509000000E+03 0.  0.
<mgrwt>
<rscale>  2 0.45710683E+03</rscale>
<asrwt>0</asrwt>
<pdfrwt beam="1">  1       21 0.42450213E-01 0.45710683E+03</pdfrwt>
<pdfrwt beam="2">  1       21 0.26612013E-01 0.45710683E+03</pdfrwt>
<totfact> 0.66348117E+04</totfact>
</mgrwt>
</event>
<event>
 7    0  0.4725730E-002  0.4701815E+03  0.7546771E-02  0.1021869E+00
         21   -1    0    0  502  501  0.00000000000E+00  0.00000000000E+00  0.38274158802E+03  0.38274158802E+03  0.00000000000E+00 0.  1.
         21   -1    0    0  501  502 -0.00000000000E+00 -0.00000000000E+00 -0.14439942373E+03  0.14439942373E+03  0.00000000000E+00 0.  1.
      99926    2    1    2    0    0  0.00000000000E+00  0.00000000000E+00  0.23834216429E+03  0.52714101175E+03  0.47018151706E+03 0.  0.
      99925    2    3    3    0    0 -0.11976872238E+03 -0.10579770171E+02  0.10273043645E+03  0.30692628193E+03  0.26304699499E+03 0.  0.
         25    1    3    3    0    0  0.11976872238E+03  0.10579770171E+02  0.13561172784E+03  0.22021472981E+03  0.12509000000E+03 0.  0.
         25    1    4    4    0    0 -0.47039010027E+02 -0.63555610449E+01  0.82161043074E+01  0.13404504501E+03  0.12509000000E+03 0.  0.
         25    1    4    4    0    0 -0.72729712357E+02 -0.42242091263E+01  0.94514332140E+02  0.17288123693E+03  0.12509000000E+03 0.  0.
<mgrwt>
<rscale>  2 0.47018152E+03</rscale>
<asrwt>0</asrwt>
<pdfrwt beam="1">  1       21 0.56285528E-01 0.47018152E+03</pdfrwt>
<pdfrwt beam="2">  1       21 0.21235209E-01 0.47018152E+03</pdfrwt>
<totfact> 0.56308769E+04</totfact>
</mgrwt>
</event>
<event>
 7    0  0.4725730E-002  0.4519973E+03  0.7546771E-02  0.1027128E+00
         21   -1    0    0  502  501  0.00000000000E+00  0.00000000000E+00  0.46238374169E+03  0.46238374169E+03  0.00000000000E+00 0.  1.
         21   -1    0    0  501  502 -0.00000000000E+00 -0.00000000000E+00 -0.11046104228E+03  0.11046104228E+03  0.00000000000E+00 0.  1.
      99926    2    1    2    0    0 -0.14210854715E-13  0.00000000000E+00  0.35192269941E+03  0.57284478397E+03  0.45199730105E+03 0.  0.
      99925    2    3    3    0    0 -0.10518205871E+03  0.63030784593E+01  0.18077628735E+03  0.33611371981E+03  0.26303872777E+03 0.  0.
         25    1    3    3    0    0  0.10518205871E+03 -0.63030784593E+01  0.17114641206E+03  0.23673106415E+03  0.12509000000E+03 0.  0.
         25    1    4    4    0    0 -0.11378176614E+02  0.89913358500E+01  0.66314600375E+02  0.14232161237E+03  0.12509000000E+03 0.  0.
         25    1    4    4    0    0 -0.93803882098E+02 -0.26882573907E+01  0.11446168697E+03  0.19379210745E+03  0.12509000000E+03 0.  0.
<mgrwt>
<rscale>  2 0.45199730E+03</rscale>
<asrwt>0</asrwt>
<pdfrwt beam="1">  1       21 0.67997609E-01 0.45199730E+03</pdfrwt>
<pdfrwt beam="2">  1       21 0.16244271E-01 0.45199730E+03</pdfrwt>
<totfact> 0.61836826E+04</totfact>
</mgrwt>
</event>
<event>
 7    0  0.4725730E-002  0.4559820E+03  0.7546771E-02  0.1025953E+00
         21   -1    0    0  502  501  0.00000000000E+00  0.00000000000E+00  0.22834637075E+03  0.22834637075E+03  0.00000000000E+00 0. -1.
         21   -1    0    0  501  502 -0.00000000000E+00 -0.00000000000E+00 -0.22763614103E+03  0.22763614103E+03  0.00000000000E+00 0. -1.
      99926    2    1    2    0    0  0.71054273576E-14  0.00000000000E+00  0.71022971328E+00  0.45598251178E+03  0.45598195866E+03 0.  0.
      99925    2    3    3    0    0  0.62828074090E+02 -0.83767378030E+02  0.45671865513E+02  0.28676845412E+03  0.26303210158E+03 0.  0.
         25    1    4    4    0    0  0.39762764242E+02 -0.49034271033E+02 -0.16324108377E+02  0.14106531030E+03  0.12509000000E+03 0.  0.
         25    1    4    4    0    0  0.23065309848E+02 -0.34733106997E+02  0.61995973890E+02  0.14570314382E+03  0.12509000000E+03 0.  0.
         25    1    3    3    0    0 -0.62828074090E+02  0.83767378030E+02 -0.44961635800E+02  0.16921405766E+03  0.12509000000E+03 0.  0.
<mgrwt>
<rscale>  2 0.45598196E+03</rscale>
<asrwt>0</asrwt>
<pdfrwt beam="1">  1       21 0.33580349E-01 0.45598196E+03</pdfrwt>
<pdfrwt beam="2">  1       21 0.33475903E-01 0.45598196E+03</pdfrwt>
<totfact> 0.67939998E+04</totfact>
</mgrwt>
</event>
<event>
 7    0  0.4725730E-002  0.4542285E+03  0.7546771E-02  0.1026469E+00
         21   -1    0    0  502  501  0.00000000000E+00  0.00000000000E+00  0.31870992107E+03  0.31870992107E+03  0.00000000000E+00 0. -1.
         21   -1    0    0  501  502 -0.00000000000E+00 -0.00000000000E+00 -0.16184275317E+03  0.16184275317E+03  0.00000000000E+00 0. -1.
      99926    2    1    2    0    0  0.00000000000E+00 -0.71054273576E-14  0.15686716790E+03  0.48055267425E+03  0.45422853759E+03 0.  0.
      99925    2    3    3    0    0 -0.86946468468E+02 -0.61956581837E+02  0.13611463009E+03  0.31479235832E+03  0.26299948654E+03 0.  0.
         25    1    3    3    0    0  0.86946468468E+02  0.61956581837E+02  0.20752537808E+02  0.16576031593E+03  0.12509000000E+03 0.  0.
         25    1    4    4    0    0 -0.48597321539E+02 -0.65717624313E+02  0.47762733857E+02  0.15687349251E+03  0.12509000000E+03 0.  0.
         25    1    4    4    0    0 -0.38349146929E+02  0.37610424754E+01  0.88351896236E+02  0.15791886581E+03  0.12509000000E+03 0.  0.
<mgrwt>
<rscale>  2 0.45422854E+03</rscale>
<asrwt>0</asrwt>
<pdfrwt beam="1">  1       21 0.46869106E-01 0.45422854E+03</pdfrwt>
<pdfrwt beam="2">  1       21 0.23800405E-01 0.45422854E+03</pdfrwt>
<totfact> 0.67069659E+04</totfact>
</mgrwt>
</event>
<event>
 7    0  0.4725730E-002  0.4623310E+03  0.7546771E-02  0.1024107E+00
         21   -1    0    0  502  501  0.00000000000E+00  0.00000000000E+00  0.75763868239E+03  0.75763868239E+03  0.00000000000E+00 0. -1.
         21   -1    0    0  501  502 -0.00000000000E+00 -0.00000000000E+00 -0.70531640336E+02  0.70531640336E+02  0.00000000000E+00 0. -1.
      99926    2    1    2    0    0  0.22204460493E-15  0.00000000000E+00  0.68710704205E+03  0.82817032273E+03  0.46233104612E+03 0.  0.
      99925    2    3    3    0    0  0.18367739904E+01  0.65746935669E+01  0.64407054913E+03  0.69570807091E+03  0.26293772520E+03 0.  0.
         25    1    4    4    0    0  0.61082679813E+01 -0.36843926224E+02  0.32016019421E+03  0.34575257612E+03  0.12509000000E+03 0.  0.
         25    1    4    4    0    0 -0.42714939909E+01  0.43418619791E+02  0.32391035493E+03  0.34995549479E+03  0.12509000000E+03 0.  0.
         25    1    3    3    0    0 -0.18367739904E+01 -0.65746935669E+01  0.43036492922E+02  0.13246225182E+03  0.12509000000E+03 0.  0.
<mgrwt>
<rscale>  2 0.46233105E+03</rscale>
<asrwt>0</asrwt>
<pdfrwt beam="1">  1       21 0.11141745E+00 0.46233105E+03</pdfrwt>
<pdfrwt beam="2">  1       21 0.10372300E-01 0.46233105E+03</pdfrwt>
<totfact> 0.43854722E+04</totfact>
</mgrwt>
</event>
<event>
 6    0  0.4725730E-002  0.4486786E+03  0.7546771E-02  0.1028117E+00
         21   -1    0    0  502  501  0.00000000000E+00  0.00000000000E+00  0.93705359713E+03  0.93705359713E+03  0.00000000000E+00 0.  1.
         21   -1    0    0  501  502 -0.00000000000E+00 -0.00000000000E+00 -0.53708912957E+02  0.53708912957E+02  0.00000000000E+00 0.  1.
      99926    2    1    2    0    0  0.00000000000E+00 -0.17763568394E-14  0.88334468417E+03  0.99076251008E+03  0.44867863815E+03 0.  0.
         25    1    3    3    0    0  0.42468173108E+02 -0.13520398128E+02  0.24584960040E+03  0.27942061665E+03  0.12509000000E+03 0.  0.
         25    1    3    3    0    0  0.55107745984E+02  0.24911487682E+02  0.41647444625E+03  0.43903976855E+03  0.12509000000E+03 0.  0.
         25    1    3    3    0    0 -0.97575919092E+02 -0.11391089554E+02  0.22102063752E+03  0.27230212488E+03  0.12509000000E+03 0.  0.
<mgrwt>
<rscale>  2 0.44867864E+03</rscale>
<asrwt>0</asrwt>
<pdfrwt beam="1">  1       21 0.13780199E+00 0.44867864E+03</pdfrwt>
<pdfrwt beam="2">  1       21 0.78983701E-02 0.44867864E+03</pdfrwt>
<totfact> 0.41541470E+04</totfact>
</mgrwt>
</event>
<event>
 7    0  0.4725730E-002  0.4017762E+03  0.7546771E-02  0.1043166E+00
         21   -1    0    0  502  501  0.00000000000E+00  0.00000000000E+00  0.26429229818E+03  0.26429229818E+03  0.00000000000E+00 0. -1.
         21   -1    0    0  501  502 -0.00000000000E+00 -0.00000000000E+00 -0.15269468225E+03  0.15269468225E+03  0.00000000000E+00 0. -1.
      99926    2    1    2    0    0  0.00000000000E+00 -0.35527136788E-14  0.11159761593E+03  0.41698698043E+03  0.40177619886E+03 0.  0.
      99925    2    3    3    0    0  0.44658244302E+02  0.15053332169E+02  0.84409616233E+02  0.28057709435E+03  0.26339620530E+03 0.  0.
         25    1    3    3    0    0 -0.44658244302E+02 -0.15053332169E+02  0.27187999697E+02  0.13640988608E+03  0.12509000000E+03 0.  0.
         25    1    4    4    0    0  0.51040037075E+02  0.37686946256E+02  0.46601941965E+02  0.14779932475E+03  0.12509000000E+03 0.  0.
         25    1    4    4    0    0 -0.63817927724E+01 -0.22633614087E+02  0.37807674268E+02  0.13277776960E+03  0.12509000000E+03 0.  0.
<mgrwt>
<rscale>  2 0.40177620E+03</rscale>
<asrwt>0</asrwt>
<pdfrwt beam="1">  1       21 0.38866515E-01 0.40177620E+03</pdfrwt>
<pdfrwt beam="2">  1       21 0.22455100E-01 0.40177620E+03</pdfrwt>
<totfact> 0.11186849E+05</totfact>
</mgrwt>
</event>
<event>
 7    0  0.4725730E-002  0.4432532E+03  0.7546771E-02  0.1029753E+00
         21   -1    0    0  502  501  0.00000000000E+00  0.00000000000E+00  0.15726312530E+03  0.15726312530E+03  0.00000000000E+00 0. -1.
         21   -1    0    0  501  502 -0.00000000000E+00 -0.00000000000E+00 -0.31233220672E+03  0.31233220672E+03  0.00000000000E+00 0. -1.
      99926    2    1    2    0    0  0.00000000000E+00  0.00000000000E+00 -0.15506908142E+03  0.46959533202E+03  0.44325315097E+03 0.  0.
      99925    2    3    3    0    0  0.67138950979E+02 -0.49811794258E+02 -0.37142743262E+02  0.27843314194E+03  0.26297638214E+03 0.  0.
         25    1    3    3    0    0 -0.67138950979E+02  0.49811794258E+02 -0.11792633816E+03  0.19116219008E+03  0.12509000000E+03 0.  0.
         25    1    4    4    0    0  0.11046477966E+02 -0.32887919142E+02 -0.51293983917E+02  0.13957872613E+03  0.12509000000E+03 0.  0.
         25    1    4    4    0    0  0.56092473014E+02 -0.16923875116E+02  0.14151240655E+02  0.13885441581E+03  0.12509000000E+03 0.  0.
<mgrwt>
<rscale>  2 0.44325315E+03</rscale>
<asrwt>0</asrwt>
<pdfrwt beam="1">  1       21 0.23126931E-01 0.44325315E+03</pdfrwt>
<pdfrwt beam="2">  1       21 0.45931206E-01 0.44325315E+03</pdfrwt>
<totfact> 0.74140087E+04</totfact>
</mgrwt>
</event>
<event>
 7    0  0.4725730E-002  0.4546534E+03  0.7546771E-02  0.1026343E+00
         21   -1    0    0  502  501  0.00000000000E+00  0.00000000000E+00  0.39646797516E+02  0.39646797516E+02  0.00000000000E+00 0.  1.
         21   -1    0    0  501  502 -0.00000000000E+00 -0.00000000000E+00 -0.13034451765E+04  0.13034451765E+04  0.00000000000E+00 0.  1.
      99926    2    1    2    0    0  0.00000000000E+00  0.00000000000E+00 -0.12637983790E+04  0.13430919740E+04  0.45465339319E+03 0.  0.
      99925    2    3    3    0    0 -0.97257409974E+02  0.47585682444E+02 -0.70342524522E+03  0.75880697668E+03  0.26316829459E+03 0.  0.
         25    1    4    4    0    0 -0.54266893807E+02  0.20235459290E+02 -0.24754188764E+03  0.28333524986E+03  0.12509000000E+03 0.  0.
         25    1    4    4    0    0 -0.42990516167E+02  0.27350223154E+02 -0.45588335758E+03  0.47547172682E+03  0.12509000000E+03 0.  0.
         25    1    3    3    0    0  0.97257409974E+02 -0.47585682444E+02 -0.56037313376E+03  0.58428499734E+03  0.12509000000E+03 0.  0.
<mgrwt>
<rscale>  2 0.45465339E+03</rscale>
<asrwt>0</asrwt>
<pdfrwt beam="1">  1       21 0.58304121E-02 0.45465339E+03</pdfrwt>
<pdfrwt beam="2">  1       21 0.19168309E+00 0.45465339E+03</pdfrwt>
<totfact> 0.27963775E+04</totfact>
</mgrwt>
</event>
<event>
 7    0  0.4725730E-002  0.4568476E+03  0.7546771E-02  0.1025699E+00
         21   -1    0    0  502  501  0.00000000000E+00  0.00000000000E+00  0.65533508303E+03  0.65533508303E+03  0.00000000000E+00 0. -1.
         21   -1    0    0  501  502 -0.00000000000E+00 -0.00000000000E+00 -0.79619473854E+02  0.79619473854E+02  0.00000000000E+00 0. -1.
      99926    2    1    2    0    0  0.00000000000E+00  0.00000000000E+00  0.57571560917E+03  0.73495455688E+03  0.45684760920E+03 0.  0.
      99925    2    3    3    0    0  0.17401252699E+02  0.15299885055E+01  0.17784005429E+03  0.31751281276E+03  0.26245410436E+03 0.  0.
         25    1    4    4    0    0 -0.18158816713E+02 -0.23600323277E+02  0.68098390493E+02  0.14550469673E+03  0.12509000000E+03 0.  0.
         25    1    4    4    0    0  0.35560069412E+02  0.25130311782E+02  0.10974166379E+03  0.17200811603E+03  0.12509000000E+03 0.  0.
         25    1    3    3    0    0 -0.17401252699E+02 -0.15299885055E+01  0.39787555489E+03  0.41744174412E+03  0.12509000000E+03 0.  0.
<mgrwt>
<rscale>  2 0.45684761E+03</rscale>
<asrwt>0</asrwt>
<pdfrwt beam="1">  1       21 0.96372803E-01 0.45684761E+03</pdfrwt>
<pdfrwt beam="2">  1       21 0.11708747E-01 0.45684761E+03</pdfrwt>
<totfact> 0.50311066E+04</totfact>
</mgrwt>
</event>
<event>
 7    0  0.4725730E-002  0.4554978E+03  0.7546771E-02  0.1026095E+00
         21   -1    0    0  502  501  0.00000000000E+00  0.00000000000E+00  0.36420506045E+03  0.36420506045E+03  0.00000000000E+00 0.  1.
         21   -1    0    0  501  502 -0.00000000000E+00 -0.00000000000E+00 -0.14241857100E+03  0.14241857100E+03  0.00000000000E+00 0.  1.
      99926    2    1    2    0    0  0.00000000000E+00  0.00000000000E+00  0.22178648946E+03  0.50662363145E+03  0.45549781233E+03 0.  0.
      99925    2    3    3    0    0 -0.97931740892E+02 -0.36774166724E+02  0.90091937481E+02  0.29701941314E+03  0.26298480825E+03 0.  0.
         25    1    4    4    0    0 -0.48922871872E+02 -0.27938886509E+02  0.86792886824E+02  0.16234082073E+03  0.12509000000E+03 0.  0.
         25    1    3    3    0    0  0.97931740892E+02  0.36774166724E+02  0.13169455198E+03  0.20960421831E+03  0.12509000000E+03 0.  0.
         25    1    4    4    0    0 -0.49008869020E+02 -0.88352802149E+01  0.32990506566E+01  0.13467859241E+03  0.12509000000E+03 0.  0.
<mgrwt>
<rscale>  2 0.45549781E+03</rscale>
<asrwt>0</asrwt>
<pdfrwt beam="1">  1       21 0.53559568E-01 0.45549781E+03</pdfrwt>
<pdfrwt beam="2">  1       21 0.20943907E-01 0.45549781E+03</pdfrwt>
<totfact> 0.64552358E+04</totfact>
</mgrwt>
</event>
<event>
 7    0  0.4725730E-002  0.4534535E+03  0.7546771E-02  0.1026697E+00
         21   -1    0    0  502  501  0.00000000000E+00  0.00000000000E+00  0.28960443274E+03  0.28960443274E+03  0.00000000000E+00 0. -1.
         21   -1    0    0  501  502 -0.00000000000E+00 -0.00000000000E+00 -0.17750077789E+03  0.17750077789E+03  0.00000000000E+00 0. -1.
      99926    2    1    2    0    0  0.00000000000E+00  0.14210854715E-13  0.11210365485E+03  0.46710521062E+03  0.45345346879E+03 0.  0.
      99925    2    3    3    0    0 -0.65949687706E+02 -0.85012028016E+02  0.39485577214E+02  0.28683513680E+03  0.26294272890E+03 0.  0.
         25    1    3    3    0    0  0.65949687706E+02  0.85012028016E+02  0.72618077637E+02  0.18027007382E+03  0.12509000000E+03 0.  0.
         25    1    4    4    0    0 -0.40838630140E+02 -0.98615589153E+01  0.42802144068E+02  0.13872482003E+03  0.12509000000E+03 0.  0.
         25    1    4    4    0    0 -0.25111057566E+02 -0.75150469101E+02 -0.33165668541E+01  0.14811031677E+03  0.12509000000E+03 0.  0.
<mgrwt>
<rscale>  2 0.45345347E+03</rscale>
<asrwt>0</asrwt>
<pdfrwt beam="1">  1       21 0.42588887E-01 0.45345347E+03</pdfrwt>
<pdfrwt beam="2">  1       21 0.26103056E-01 0.45345347E+03</pdfrwt>
<totfact> 0.68488057E+04</totfact>
</mgrwt>
</event>
<event>
 7    0  0.4725730E-002  0.4591832E+03  0.7546771E-02  0.1025018E+00
         21   -1    0    0  502  501  0.00000000000E+00  0.00000000000E+00  0.69141342460E+02  0.69141342460E+02  0.00000000000E+00 0.  1.
         21   -1    0    0  501  502 -0.00000000000E+00 -0.00000000000E+00 -0.76238481710E+03  0.76238481710E+03  0.00000000000E+00 0.  1.
      99926    2    1    2    0    0  0.00000000000E+00  0.14210854715E-13 -0.69324347464E+03  0.83152615956E+03  0.45918323020E+03 0.  0.
      99925    2    3    3    0    0  0.57130569852E+02 -0.90643724536E+02 -0.34966876050E+03  0.45051267016E+03  0.26308408750E+03 0.  0.
         25    1    3    3    0    0 -0.57130569852E+02  0.90643724536E+02 -0.34357471414E+03  0.38101348940E+03  0.12509000000E+03 0.  0.
         25    1    4    4    0    0  0.30523485048E+02 -0.88307818266E+02 -0.18933236975E+03  0.24540621068E+03  0.12509000000E+03 0.  0.
         25    1    4    4    0    0  0.26607084804E+02 -0.23359062706E+01 -0.16033639075E+03  0.20510645948E+03  0.12509000000E+03 0.  0.
<mgrwt>
<rscale>  2 0.45918323E+03</rscale>
<asrwt>0</asrwt>
<pdfrwt beam="1">  1       21 0.10167844E-01 0.45918323E+03</pdfrwt>
<pdfrwt beam="2">  1       21 0.11211542E+00 0.45918323E+03</pdfrwt>
<totfact> 0.44789172E+04</totfact>
</mgrwt>
</event>
<event>
 7    0  0.4725730E-002  0.4553795E+03  0.7546771E-02  0.1026130E+00
         21   -1    0    0  502  501  0.00000000000E+00  0.00000000000E+00  0.56485036674E+03  0.56485036674E+03  0.00000000000E+00 0.  1.
         21   -1    0    0  501  502 -0.00000000000E+00 -0.00000000000E+00 -0.91781160651E+02  0.91781160651E+02  0.00000000000E+00 0.  1.
      99926    2    1    2    0    0 -0.14210854715E-13  0.00000000000E+00  0.47306920609E+03  0.65663152740E+03  0.45537949999E+03 0.  0.
      99925    2    3    3    0    0 -0.10249089768E+03 -0.41627715584E+02  0.33445307195E+03  0.43960804581E+03  0.26298122708E+03 0.  0.
         25    1    3    3    0    0  0.10249089768E+03  0.41627715584E+02  0.13861613414E+03  0.21702348158E+03  0.12509000000E+03 0.  0.
         25    1    4    4    0    0 -0.89475339013E+02 -0.27787097364E+02  0.21333422210E+03  0.26445596513E+03  0.12509000000E+03 0.  0.
         25    1    4    4    0    0 -0.13015558671E+02 -0.13840618220E+02  0.12111884985E+03  0.17515208068E+03  0.12509000000E+03 0.  0.
<mgrwt>
<rscale>  2 0.45537950E+03</rscale>
<asrwt>0</asrwt>
<pdfrwt beam="1">  1       21 0.83066229E-01 0.45537950E+03</pdfrwt>
<pdfrwt beam="2">  1       21 0.13497230E-01 0.45537950E+03</pdfrwt>
<totfact> 0.55155755E+04</totfact>
</mgrwt>
</event>
<event>
 7    0  0.4725730E-002  0.4411401E+03  0.7546771E-02  0.1030398E+00
         21   -1    0    0  502  501  0.00000000000E+00  0.00000000000E+00  0.38796471969E+03  0.38796471969E+03  0.00000000000E+00 0.  1.
         21   -1    0    0  501  502 -0.00000000000E+00 -0.00000000000E+00 -0.12540093017E+03  0.12540093017E+03  0.00000000000E+00 0.  1.
      99926    2    1    2    0    0  0.17763568394E-14  0.00000000000E+00  0.26256378952E+03  0.51336564986E+03  0.44114005360E+03 0.  0.
      99925    2    3    3    0    0  0.65194863614E+01 -0.19760193728E+02  0.53963407239E+02  0.26924560451E+03  0.26296041007E+03 0.  0.
         25    1    3    3    0    0 -0.65194863614E+01  0.19760193728E+02  0.20860038228E+03  0.24412004536E+03  0.12509000000E+03 0.  0.
         25    1    4    4    0    0  0.22915080079E+02  0.25566426772E+02  0.25306723373E+02  0.13216157316E+03  0.12509000000E+03 0.  0.
         25    1    4    4    0    0 -0.16395593718E+02 -0.45326620500E+02  0.28656683866E+02  0.13708403134E+03  0.12509000000E+03 0.  0.
<mgrwt>
<rscale>  2 0.44114005E+03</rscale>
<asrwt>0</asrwt>
<pdfrwt beam="1">  1       21 0.57053635E-01 0.44114005E+03</pdfrwt>
<pdfrwt beam="2">  1       21 0.18441313E-01 0.44114005E+03</pdfrwt>
<totfact> 0.71929520E+04</totfact>
</mgrwt>
</event>
<event>
 7    0  0.4725730E-002  0.4572836E+03  0.7546771E-02  0.1025572E+00
         21   -1    0    0  502  501  0.00000000000E+00  0.00000000000E+00  0.81596748949E+03  0.81596748949E+03  0.00000000000E+00 0. -1.
         21   -1    0    0  501  502 -0.00000000000E+00 -0.00000000000E+00 -0.64067581225E+02  0.64067581225E+02  0.00000000000E+00 0. -1.
      99926    2    1    2    0    0  0.00000000000E+00  0.17763568394E-14  0.75189990826E+03  0.88003507071E+03  0.45728355934E+03 0.  0.
      99925    2    3    3    0    0 -0.62478392661E+02 -0.54598502685E+01  0.65831462995E+03  0.71169294309E+03  0.26305005936E+03 0.  0.
         25    1    3    3    0    0  0.62478392661E+02  0.54598502685E+01  0.93585278311E+02  0.16834212762E+03  0.12509000000E+03 0.  0.
         25    1    4    4    0    0 -0.57953480254E+02  0.27891655133E+02  0.35729167775E+03  0.38398099092E+03  0.12509000000E+03 0.  0.
         25    1    4    4    0    0 -0.45249124066E+01 -0.33351505402E+02  0.30102295220E+03  0.32771195217E+03  0.12509000000E+03 0.  0.
<mgrwt>
<rscale>  2 0.45728356E+03</rscale>
<asrwt>0</asrwt>
<pdfrwt beam="1">  1       21 0.11999521E+00 0.45728356E+03</pdfrwt>
<pdfrwt beam="2">  1       21 0.94217036E-02 0.45728356E+03</pdfrwt>
<totfact> 0.43328072E+04</totfact>
</mgrwt>
</event>
<event>
 7    0  0.4725730E-002  0.4556276E+03  0.7546771E-02  0.1026057E+00
         21   -1    0    0  502  501  0.00000000000E+00  0.00000000000E+00  0.43921088407E+03  0.43921088407E+03  0.00000000000E+00 0. -1.
         21   -1    0    0  501  502 -0.00000000000E+00 -0.00000000000E+00 -0.11816446495E+03  0.11816446495E+03  0.00000000000E+00 0. -1.
      99926    2    1    2    0    0  0.00000000000E+00  0.00000000000E+00  0.32104641913E+03  0.55737534902E+03  0.45562756333E+03 0.  0.
      99925    2    3    3    0    0 -0.72553294117E+02  0.79950460739E+02  0.24575981880E+03  0.37579441129E+03  0.26299713755E+03 0.  0.
         25    1    3    3    0    0  0.72553294117E+02 -0.79950460739E+02  0.75286600324E+02  0.18158093773E+03  0.12509000000E+03 0.  0.
         25    1    4    4    0    0 -0.54435274390E+01  0.33982099557E+02  0.78443462419E+02  0.15160903660E+03  0.12509000000E+03 0.  0.
         25    1    4    4    0    0 -0.67109766678E+02  0.45968361183E+02  0.16731635638E+03  0.22418537469E+03  0.12509000000E+03 0.  0.
<mgrwt>
<rscale>  2 0.45562756E+03</rscale>
<asrwt>0</asrwt>
<pdfrwt beam="1">  1       21 0.64589835E-01 0.45562756E+03</pdfrwt>
<pdfrwt beam="2">  1       21 0.17377127E-01 0.45562756E+03</pdfrwt>
<totfact> 0.61077984E+04</totfact>
</mgrwt>
</event>
<event>
 7    0  0.4725730E-002  0.4573156E+03  0.7546771E-02  0.1025563E+00
         21   -1    0    0  502  501  0.00000000000E+00  0.00000000000E+00  0.14389790566E+04  0.14389790566E+04  0.00000000000E+00 0. -1.
         21   -1    0    0  501  502 -0.00000000000E+00 -0.00000000000E+00 -0.36334365279E+02  0.36334365279E+02  0.00000000000E+00 0. -1.
      99926    2    1    2    0    0  0.00000000000E+00  0.00000000000E+00  0.14026446913E+04  0.14753134219E+04  0.45731560512E+03 0.  0.
      99925    2    3    3    0    0 -0.20622141028E+02  0.58167894136E+02  0.56580239467E+03  0.62692594309E+03  0.26285930018E+03 0.  0.
         25    1    3    3    0    0  0.20622141028E+02 -0.58167894136E+02  0.83684229665E+03  0.84838747879E+03  0.12509000000E+03 0.  0.
         25    1    4    4    0    0 -0.33538058562E+01  0.62710890850E+02  0.24545925296E+03  0.28256265997E+03  0.12509000000E+03 0.  0.
         25    1    4    4    0    0 -0.17268335171E+02 -0.45429967139E+01  0.32034314171E+03  0.34436328312E+03  0.12509000000E+03 0.  0.
<mgrwt>
<rscale>  2 0.45731561E+03</rscale>
<asrwt>0</asrwt>
<pdfrwt beam="1">  1       21 0.21161453E+00 0.45731561E+03</pdfrwt>
<pdfrwt beam="2">  1       21 0.53432900E-02 0.45731561E+03</pdfrwt>
<totfact> 0.23956860E+04</totfact>
</mgrwt>
</event>
<event>
 7    0  0.4725730E-002  0.4636753E+03  0.7546771E-02  0.1023721E+00
         21   -1    0    0  502  501  0.00000000000E+00  0.00000000000E+00  0.72413223572E+02  0.72413223572E+02  0.00000000000E+00 0. -1.
         21   -1    0    0  501  502 -0.00000000000E+00 -0.00000000000E+00 -0.74224975727E+03  0.74224975727E+03  0.00000000000E+00 0. -1.
      99926    2    1    2    0    0  0.00000000000E+00  0.00000000000E+00 -0.66983653370E+03  0.81466298084E+03  0.46367530717E+03 0.  0.
      99925    2    3    3    0    0 -0.11656949195E+03  0.24085717600E+02 -0.45798546438E+03  0.54135554970E+03  0.26295736796E+03 0.  0.
         25    1    3    3    0    0  0.11656949195E+03 -0.24085717600E+02 -0.21185106932E+03  0.27330743114E+03  0.12509000000E+03 0.  0.
         25    1    4    4    0    0 -0.28931424197E+02  0.39403330147E+02 -0.23439696000E+03  0.27014642824E+03  0.12509000000E+03 0.  0.
         25    1    4    4    0    0 -0.87638067751E+02 -0.15317612547E+02 -0.22358850437E+03  0.27120912145E+03  0.12509000000E+03 0.  0.
<mgrwt>
<rscale>  2 0.46367531E+03</rscale>
<asrwt>0</asrwt>
<pdfrwt beam="1">  1       21 0.10649004E-01 0.46367531E+03</pdfrwt>
<pdfrwt beam="2">  1       21 0.10915437E+00 0.46367531E+03</pdfrwt>
<totfact> 0.43991686E+04</totfact>
</mgrwt>
</event>
<event>
 7    0  0.4725730E-002  0.4584449E+03  0.7546771E-02  0.1025233E+00
         21   -1    0    0  502  501  0.00000000000E+00  0.00000000000E+00  0.81228017767E+02  0.81228017767E+02  0.00000000000E+00 0.  1.
         21   -1    0    0  501  502 -0.00000000000E+00 -0.00000000000E+00 -0.64685731476E+03  0.64685731476E+03  0.00000000000E+00 0.  1.
      99926    2    1    2    0    0  0.00000000000E+00  0.00000000000E+00 -0.56562929700E+03  0.72808533253E+03  0.45844492562E+03 0.  0.
      99925    2    3    3    0    0 -0.33350207620E+02  0.43501721234E+02 -0.19211461445E+03  0.33038524166E+03  0.26313826541E+03 0.  0.
         25    1    4    4    0    0 -0.30061861634E+01  0.60424390766E+02 -0.10070360255E+03  0.17160672429E+03  0.12509000000E+03 0.  0.
         25    1    3    3    0    0  0.33350207620E+02 -0.43501721234E+02 -0.37351468255E+03  0.39770009087E+03  0.12509000000E+03 0.  0.
         25    1    4    4    0    0 -0.30344021456E+02 -0.16922669533E+02 -0.91411011899E+02  0.15877851737E+03  0.12509000000E+03 0.  0.
<mgrwt>
<rscale>  2 0.45844493E+03</rscale>
<asrwt>0</asrwt>
<pdfrwt beam="1">  1       21 0.11945297E-01 0.45844493E+03</pdfrwt>
<pdfrwt beam="2">  1       21 0.95126075E-01 0.45844493E+03</pdfrwt>
<totfact> 0.50035198E+04</totfact>
</mgrwt>
</event>
<event>
 7    0  0.4725730E-002  0.4520778E+03  0.7546771E-02  0.1027104E+00
         21   -1    0    0  502  501  0.00000000000E+00  0.00000000000E+00  0.21465609948E+03  0.21465609948E+03  0.00000000000E+00 0.  1.
         21   -1    0    0  501  502 -0.00000000000E+00 -0.00000000000E+00 -0.23802531668E+03  0.23802531668E+03  0.00000000000E+00 0.  1.
      99926    2    1    2    0    0 -0.35527136788E-14  0.00000000000E+00 -0.23369217200E+02  0.45268141617E+03  0.45207780772E+03 0.  0.
      99925    2    3    3    0    0 -0.20126776708E+02  0.10797054252E+03 -0.27251692460E+02  0.28617223652E+03  0.26284818626E+03 0.  0.
         25    1    3    3    0    0  0.20126776708E+02 -0.10797054252E+03  0.38824752596E+01  0.16650917965E+03  0.12509000000E+03 0.  0.
         25    1    4    4    0    0  0.27841545969E+02  0.67942533280E+02 -0.14007452552E+02  0.14572253202E+03  0.12509000000E+03 0.  0.
         25    1    4    4    0    0 -0.47968322678E+02  0.40028009238E+02 -0.13244239908E+02  0.14044970450E+03  0.12509000000E+03 0.  0.
<mgrwt>
<rscale>  2 0.45207781E+03</rscale>
<asrwt>0</asrwt>
<pdfrwt beam="1">  1       21 0.31567074E-01 0.45207781E+03</pdfrwt>
<pdfrwt beam="2">  1       21 0.35003723E-01 0.45207781E+03</pdfrwt>
<totfact> 0.70341834E+04</totfact>
</mgrwt>
</event>
<event>
 7    0  0.4725730E-002  0.4546469E+03  0.7546771E-02  0.1026345E+00
         21   -1    0    0  502  501  0.00000000000E+00  0.00000000000E+00  0.26153643125E+03  0.26153643125E+03  0.00000000000E+00 0.  1.
         21   -1    0    0  501  502 -0.00000000000E+00 -0.00000000000E+00 -0.19758601174E+03  0.19758601174E+03  0.00000000000E+00 0.  1.
      99926    2    1    2    0    0  0.00000000000E+00  0.00000000000E+00  0.63950419510E+02  0.45912244299E+03  0.45464685361E+03 0.  0.
      99925    2    3    3    0    0 -0.29574213640E+02  0.10888368018E+03  0.41511450615E+02  0.28917743616E+03  0.26300208959E+03 0.  0.
         25    1    4    4    0    0 -0.64186682646E+01  0.11960271391E+02  0.10442745245E+02  0.12625690643E+03  0.12509000000E+03 0.  0.
         25    1    3    3    0    0  0.29574213640E+02 -0.10888368018E+03  0.22438968895E+02  0.16994500683E+03  0.12509000000E+03 0.  0.
         25    1    4    4    0    0 -0.23155545375E+02  0.96923408784E+02  0.31068705370E+02  0.16292052972E+03  0.12509000000E+03 0.  0.
<mgrwt>
<rscale>  2 0.45464685E+03</rscale>
<asrwt>0</asrwt>
<pdfrwt beam="1">  1       21 0.38461240E-01 0.45464685E+03</pdfrwt>
<pdfrwt beam="2">  1       21 0.29056766E-01 0.45464685E+03</pdfrwt>
<totfact> 0.68437109E+04</totfact>
</mgrwt>
</event>
<event>
 7    0  0.4725730E-002  0.4606139E+03  0.7546771E-02  0.1024603E+00
         21   -1    0    0  502  501  0.00000000000E+00  0.00000000000E+00  0.40040964280E+03  0.40040964280E+03  0.00000000000E+00 0. -1.
         21   -1    0    0  501  502 -0.00000000000E+00 -0.00000000000E+00 -0.13246756539E+03  0.13246756539E+03  0.00000000000E+00 0. -1.
      99926    2    1    2    0    0  0.00000000000E+00  0.88817841970E-15  0.26794207741E+03  0.53287720819E+03  0.46061389706E+03 0.  0.
      99925    2    3    3    0    0  0.10460059887E+03  0.74963151631E+01  0.10384829835E+03  0.30142147495E+03  0.26281734431E+03 0.  0.
         25    1    4    4    0    0  0.80709164904E+02  0.40286314832E+00  0.23596130766E+02  0.15072629859E+03  0.12509000000E+03 0.  0.
         25    1    4    4    0    0  0.23891433964E+02  0.70934520148E+01  0.80252167586E+02  0.15069517637E+03  0.12509000000E+03 0.  0.
         25    1    3    3    0    0 -0.10460059887E+03 -0.74963151631E+01  0.16409377905E+03  0.23145573324E+03  0.12509000000E+03 0.  0.
<mgrwt>
<rscale>  2 0.46061390E+03</rscale>
<asrwt>0</asrwt>
<pdfrwt beam="1">  1       21 0.58883770E-01 0.46061390E+03</pdfrwt>
<pdfrwt beam="2">  1       21 0.19480525E-01 0.46061390E+03</pdfrwt>
<totfact> 0.60284731E+04</totfact>
</mgrwt>
</event>
<event>
 7    0  0.4725730E-002  0.4557020E+03  0.7546771E-02  0.1026035E+00
         21   -1    0    0  502  501  0.00000000000E+00  0.00000000000E+00  0.16341177669E+03  0.16341177669E+03  0.00000000000E+00 0. -1.
         21   -1    0    0  501  502 -0.00000000000E+00 -0.00000000000E+00 -0.31770089634E+03  0.31770089634E+03  0.00000000000E+00 0. -1.
      99926    2    1    2    0    0  0.00000000000E+00 -0.35527136788E-14 -0.15428911965E+03  0.48111267303E+03  0.45570195491E+03 0.  0.
      99925    2    3    3    0    0  0.52408478640E+02 -0.29944591129E+02 -0.19889276535E+03  0.33523491433E+03  0.26302241066E+03 0.  0.
         25    1    3    3    0    0 -0.52408478640E+02  0.29944591129E+02  0.44603645704E+02  0.14587775869E+03  0.12509000000E+03 0.  0.
         25    1    4    4    0    0  0.22289576673E+01 -0.47555216638E+02 -0.10303813533E+03  0.16891072291E+03  0.12509000000E+03 0.  0.
         25    1    4    4    0    0  0.50179520973E+02  0.17610625509E+02 -0.95854630022E+02  0.16632419142E+03  0.12509000000E+03 0.  0.
<mgrwt>
<rscale>  2 0.45570195E+03</rscale>
<asrwt>0</asrwt>
<pdfrwt beam="1">  1       21 0.24031144E-01 0.45570195E+03</pdfrwt>
<pdfrwt beam="2">  1       21 0.46720720E-01 0.45570195E+03</pdfrwt>
<totfact> 0.66249292E+04</totfact>
</mgrwt>
</event>
<event>
 7    0  0.4725730E-002  0.4569732E+03  0.7546771E-02  0.1025663E+00
         21   -1    0    0  502  501  0.00000000000E+00  0.00000000000E+00  0.36991002486E+03  0.36991002486E+03  0.00000000000E+00 0.  1.
         21   -1    0    0  501  502 -0.00000000000E+00 -0.00000000000E+00 -0.14113198753E+03  0.14113198753E+03  0.00000000000E+00 0.  1.
      99926    2    1    2    0    0  0.00000000000E+00  0.00000000000E+00  0.22877803733E+03  0.51104201239E+03  0.45697324655E+03 0.  0.
      99925    2    3    3    0    0 -0.67315842247E+02 -0.80849948479E+01  0.24757358066E+03  0.36752347593E+03  0.26302858734E+03 0.  0.
         25    1    4    4    0    0 -0.11281310529E+02 -0.15643941764E+02  0.75407630377E+02  0.14732895065E+03  0.12509000000E+03 0.  0.
         25    1    4    4    0    0 -0.56034531718E+02  0.75589469166E+01  0.17216595029E+03  0.22019452528E+03  0.12509000000E+03 0.  0.
         25    1    3    3    0    0  0.67315842247E+02  0.80849948479E+01 -0.18795543333E+02  0.14351853646E+03  0.12509000000E+03 0.  0.
<mgrwt>
<rscale>  2 0.45697325E+03</rscale>
<asrwt>0</asrwt>
<pdfrwt beam="1">  1       21 0.54398533E-01 0.45697325E+03</pdfrwt>
<pdfrwt beam="2">  1       21 0.20754704E-01 0.45697325E+03</pdfrwt>
<totfact> 0.63501388E+04</totfact>
</mgrwt>
</event>
<event>
 7    0  0.4725730E-002  0.4548840E+03  0.7546771E-02  0.1026276E+00
         21   -1    0    0  502  501  0.00000000000E+00  0.00000000000E+00  0.10332868563E+03  0.10332868563E+03  0.00000000000E+00 0.  1.
         21   -1    0    0  501  502 -0.00000000000E+00 -0.00000000000E+00 -0.50063412783E+03  0.50063412783E+03  0.00000000000E+00 0.  1.
      99926    2    1    2    0    0  0.00000000000E+00  0.00000000000E+00 -0.39730544220E+03  0.60396281346E+03  0.45488401338E+03 0.  0.
      99925    2    3    3    0    0 -0.89595055106E+02 -0.86458262350E+01 -0.15922432496E+03  0.32035718816E+03  0.26301011033E+03 0.  0.
         25    1    4    4    0    0 -0.77165333212E+02 -0.30841971415E+02 -0.80672414142E+02  0.17047364123E+03  0.12509000000E+03 0.  0.
         25    1    3    3    0    0  0.89595055106E+02  0.86458262350E+01 -0.23808111725E+03  0.28360562530E+03  0.12509000000E+03 0.  0.
         25    1    4    4    0    0 -0.12429721894E+02  0.22196145180E+02 -0.78551910814E+02  0.14988354693E+03  0.12509000000E+03 0.  0.
<mgrwt>
<rscale>  2 0.45488401E+03</rscale>
<asrwt>0</asrwt>
<pdfrwt beam="1">  1       21 0.15195395E-01 0.45488401E+03</pdfrwt>
<pdfrwt beam="2">  1       21 0.73622666E-01 0.45488401E+03</pdfrwt>
<totfact> 0.58488584E+04</totfact>
</mgrwt>
</event>
<event>
 7    0  0.4725730E-002  0.4555533E+03  0.7546771E-02  0.1026079E+00
         21   -1    0    0  502  501  0.00000000000E+00  0.00000000000E+00  0.87116673759E+03  0.87116673759E+03  0.00000000000E+00 0.  1.
         21   -1    0    0  501  502 -0.00000000000E+00 -0.00000000000E+00 -0.59554846530E+02  0.59554846530E+02  0.00000000000E+00 0.  1.
      99926    2    1    2    0    0  0.00000000000E+00  0.00000000000E+00  0.81161189106E+03  0.93072158412E+03  0.45555329593E+03 0.  0.
      99925    2    3    3    0    0 -0.69535013870E+02 -0.55996182955E+02  0.65426143472E+03  0.71077303361E+03  0.26300112108E+03 0.  0.
         25    1    4    4    0    0 -0.44970469238E+02 -0.68226875173E+02  0.33686143527E+03  0.36851103684E+03  0.12509000000E+03 0.  0.
         25    1    3    3    0    0  0.69535013870E+02  0.55996182955E+02  0.15735045634E+03  0.21994855051E+03  0.12509000000E+03 0.  0.
         25    1    4    4    0    0 -0.24564544632E+02  0.12230692218E+02  0.31739999945E+03  0.34226199677E+03  0.12509000000E+03 0.  0.
<mgrwt>
<rscale>  2 0.45555330E+03</rscale>
<asrwt>0</asrwt>
<pdfrwt beam="1">  1       21 0.12811275E+00 0.45555330E+03</pdfrwt>
<pdfrwt beam="2">  1       21 0.87580662E-02 0.45555330E+03</pdfrwt>
<totfact> 0.41750518E+04</totfact>
</mgrwt>
</event>
<event>
 7    0  0.4725730E-002  0.4679125E+03  0.7546771E-02  0.1022511E+00
         21   -1    0    0  502  501  0.00000000000E+00  0.00000000000E+00  0.31851417606E+03  0.31851417606E+03  0.00000000000E+00 0.  1.
         21   -1    0    0  501  502 -0.00000000000E+00 -0.00000000000E+00 -0.17184642985E+03  0.17184642985E+03  0.00000000000E+00 0.  1.
      99926    2    1    2    0    0 -0.14210854715E-13 -0.71054273576E-14  0.14666774621E+03  0.49036060591E+03  0.46791248760E+03 0.  0.
      99925    2    3    3    0    0  0.75790531639E+02  0.49878349140E+02  0.12192292579E+01  0.27814648389E+03  0.26292950687E+03 0.  0.
         25    1    4    4    0    0  0.15577660701E+02  0.20233212046E+02 -0.33526926006E+02  0.13199851988E+03  0.12509000000E+03 0.  0.
         25    1    4    4    0    0  0.60212870938E+02  0.29645137093E+02  0.34746155263E+02  0.14614796401E+03  0.12509000000E+03 0.  0.
         25    1    3    3    0    0 -0.75790531639E+02 -0.49878349140E+02  0.14544851696E+03  0.21221412202E+03  0.12509000000E+03 0.  0.
<mgrwt>
<rscale>  2 0.46791249E+03</rscale>
<asrwt>0</asrwt>
<pdfrwt beam="1">  1       21 0.46840320E-01 0.46791249E+03</pdfrwt>
<pdfrwt beam="2">  1       21 0.25271534E-01 0.46791249E+03</pdfrwt>
<totfact> 0.59605528E+04</totfact>
</mgrwt>
</event>
<event>
 7    0  0.4725730E-002  0.4679909E+03  0.7546771E-02  0.1022489E+00
         21   -1    0    0  502  501  0.00000000000E+00  0.00000000000E+00  0.12290658282E+04  0.12290658282E+04  0.00000000000E+00 0.  1.
         21   -1    0    0  501  502 -0.00000000000E+00 -0.00000000000E+00 -0.44549176154E+02  0.44549176154E+02  0.00000000000E+00 0.  1.
      99926    2    1    2    0    0  0.00000000000E+00 -0.17763568394E-14  0.11845166520E+04  0.12736150044E+04  0.46799089771E+03 0.  0.
      99925    2    3    3    0    0  0.11624188714E+03 -0.15075661244E+02  0.85857786299E+03  0.90534464959E+03  0.26220895453E+03 0.  0.
         25    1    3    3    0    0 -0.11624188714E+03  0.15075661244E+02  0.32593878905E+03  0.36827035476E+03  0.12509000000E+03 0.  0.
         25    1    4    4    0    0  0.28795884629E+02 -0.16572378773E+02  0.48034296082E+03  0.49747433584E+03  0.12509000000E+03 0.  0.
         25    1    4    4    0    0  0.87446002508E+02  0.14967175286E+01  0.37823490218E+03  0.40787031375E+03  0.12509000000E+03 0.  0.
<mgrwt>
<rscale>  2 0.46799090E+03</rscale>
<asrwt>0</asrwt>
<pdfrwt beam="1">  1       21 0.18074495E+00 0.46799090E+03</pdfrwt>
<pdfrwt beam="2">  1       21 0.65513502E-02 0.46799090E+03</pdfrwt>
<totfact> 0.27050519E+04</totfact>
</mgrwt>
</event>
<event>
 7    0  0.4725730E-002  0.4566758E+03  0.7546771E-02  0.1025750E+00
         21   -1    0    0  502  501  0.00000000000E+00  0.00000000000E+00  0.16840157921E+03  0.16840157921E+03  0.00000000000E+00 0. -1.
         21   -1    0    0  501  502 -0.00000000000E+00 -0.00000000000E+00 -0.30960636370E+03  0.30960636370E+03  0.00000000000E+00 0. -1.
      99926    2    1    2    0    0  0.00000000000E+00  0.00000000000E+00 -0.14120478449E+03  0.47800794291E+03  0.45667581754E+03 0.  0.
      99925    2    3    3    0    0 -0.96968471853E+02  0.18277225122E+02 -0.27487183184E+02  0.28226284735E+03  0.26302058524E+03 0.  0.
         25    1    4    4    0    0 -0.89378298462E+02  0.13629872380E+02 -0.23431867855E+01  0.15436078609E+03  0.12509000000E+03 0.  0.
         25    1    4    4    0    0 -0.75901733910E+01  0.46473527419E+01 -0.25143996398E+02  0.12790206126E+03  0.12509000000E+03 0.  0.
         25    1    3    3    0    0  0.96968471853E+02 -0.18277225122E+02 -0.11371760131E+03  0.19574509557E+03  0.12509000000E+03 0.  0.
<mgrwt>
<rscale>  2 0.45667582E+03</rscale>
<asrwt>0</asrwt>
<pdfrwt beam="1">  1       21 0.24764938E-01 0.45667582E+03</pdfrwt>
<pdfrwt beam="2">  1       21 0.45530348E-01 0.45667582E+03</pdfrwt>
<totfact> 0.65963682E+04</totfact>
</mgrwt>
</event>
<event>
 7    0  0.4725730E-002  0.4543859E+03  0.7546771E-02  0.1026422E+00
         21   -1    0    0  502  501  0.00000000000E+00  0.00000000000E+00  0.39857082759E+03  0.39857082759E+03  0.00000000000E+00 0.  1.
         21   -1    0    0  501  502 -0.00000000000E+00 -0.00000000000E+00 -0.12950430281E+03  0.12950430281E+03  0.00000000000E+00 0.  1.
      99926    2    1    2    0    0  0.00000000000E+00  0.00000000000E+00  0.26906652478E+03  0.52807513040E+03  0.45438590273E+03 0.  0.
      99925    2    3    3    0    0  0.16522341458E+02 -0.24701040275E+02  0.29531745911E+03  0.39685108988E+03  0.26342979468E+03 0.  0.
         25    1    4    4    0    0 -0.10162908183E+02 -0.36658299030E+02  0.19050253402E+03  0.23105375816E+03  0.12509000000E+03 0.  0.
         25    1    3    3    0    0 -0.16522341458E+02  0.24701040275E+02 -0.26250934331E+02  0.13122404052E+03  0.12509000000E+03 0.  0.
         25    1    4    4    0    0  0.26685249641E+02  0.11957258755E+02  0.10481492508E+03  0.16579733172E+03  0.12509000000E+03 0.  0.
<mgrwt>
<rscale>  2 0.45438590E+03</rscale>
<asrwt>0</asrwt>
<pdfrwt beam="1">  1       21 0.58613357E-01 0.45438590E+03</pdfrwt>
<pdfrwt beam="2">  1       21 0.19044750E-01 0.45438590E+03</pdfrwt>
<totfact> 0.63646268E+04</totfact>
</mgrwt>
</event>
<event>
 7    0  0.4725730E-002  0.4510548E+03  0.7546771E-02  0.1027408E+00
         21   -1    0    0  502  501  0.00000000000E+00  0.00000000000E+00  0.37706494911E+03  0.37706494911E+03  0.00000000000E+00 0. -1.
         21   -1    0    0  501  502 -0.00000000000E+00 -0.00000000000E+00 -0.13489084057E+03  0.13489084057E+03  0.00000000000E+00 0. -1.
      99926    2    1    2    0    0  0.00000000000E+00  0.35527136788E-14  0.24217410854E+03  0.51195578968E+03  0.45105479905E+03 0.  0.
      99925    2    3    3    0    0 -0.10274368407E+03 -0.24482292292E+02  0.12015719087E+03  0.30777135455E+03  0.26292548167E+03 0.  0.
         25    1    3    3    0    0  0.10274368407E+03  0.24482292292E+02  0.12201691766E+03  0.20418443513E+03  0.12509000000E+03 0.  0.
         25    1    4    4    0    0 -0.36434891221E+02 -0.78344309434E+01  0.98638081011E+02  0.16360274671E+03  0.12509000000E+03 0.  0.
         25    1    4    4    0    0 -0.66308792852E+02 -0.16647861349E+02  0.21519109863E+02  0.14416860784E+03  0.12509000000E+03 0.  0.
<mgrwt>
<rscale>  2 0.45105480E+03</rscale>
<asrwt>0</asrwt>
<pdfrwt beam="1">  1       21 0.55450728E-01 0.45105480E+03</pdfrwt>
<pdfrwt beam="2">  1       21 0.19836888E-01 0.45105480E+03</pdfrwt>
<totfact> 0.66496118E+04</totfact>
</mgrwt>
</event>
<event>
 7    0  0.4725730E-002  0.4529729E+03  0.7546771E-02  0.1026839E+00
         21   -1    0    0  502  501  0.00000000000E+00  0.00000000000E+00  0.32037381201E+03  0.32037381201E+03  0.00000000000E+00 0.  1.
         21   -1    0    0  501  502 -0.00000000000E+00 -0.00000000000E+00 -0.16011332853E+03  0.16011332853E+03  0.00000000000E+00 0.  1.
      99926    2    1    2    0    0  0.00000000000E+00  0.00000000000E+00  0.16026048349E+03  0.48048714054E+03  0.45297292376E+03 0.  0.
      99925    2    3    3    0    0 -0.24765780400E+02  0.94954732474E+02  0.15628431889E+03  0.32144921084E+03  0.26320156101E+03 0.  0.
         25    1    3    3    0    0  0.24765780400E+02 -0.94954732474E+02  0.39761645962E+01  0.15903792970E+03  0.12509000000E+03 0.  0.
         25    1    4    4    0    0 -0.36055936221E+02  0.14190701145E+02  0.62379078372E+02  0.14505193571E+03  0.12509000000E+03 0.  0.
         25    1    4    4    0    0  0.11290155822E+02  0.80764031330E+02  0.93905240518E+02  0.17639727513E+03  0.12509000000E+03 0.  0.
<mgrwt>
<rscale>  2 0.45297292E+03</rscale>
<asrwt>0</asrwt>
<pdfrwt beam="1">  1       21 0.47113796E-01 0.45297292E+03</pdfrwt>
<pdfrwt beam="2">  1       21 0.23546078E-01 0.45297292E+03</pdfrwt>
<totfact> 0.67748219E+04</totfact>
</mgrwt>
</event>
<event>
 7    0  0.4725730E-002  0.4490649E+03  0.7546771E-02  0.1028001E+00
         21   -1    0    0  502  501  0.00000000000E+00  0.00000000000E+00  0.12630146396E+03  0.12630146396E+03  0.00000000000E+00 0.  1.
         21   -1    0    0  501  502 -0.00000000000E+00 -0.00000000000E+00 -0.39916268533E+03  0.39916268533E+03  0.00000000000E+00 0.  1.
      99926    2    1    2    0    0  0.00000000000E+00 -0.71054273576E-14 -0.27286122137E+03  0.52546414929E+03  0.44906494637E+03 0.  0.
      99925    2    3    3    0    0  0.58888184921E+02  0.61363390628E+02 -0.96053911749E+02  0.29278063705E+03  0.26317458737E+03 0.  0.
         25    1    4    4    0    0  0.52272636989E+02  0.44165710908E+02 -0.16839359236E+02  0.14357614954E+03  0.12509000000E+03 0.  0.
         25    1    4    4    0    0  0.66155479320E+01  0.17197679721E+02 -0.79214552512E+02  0.14920448751E+03  0.12509000000E+03 0.  0.
         25    1    3    3    0    0 -0.58888184921E+02 -0.61363390628E+02 -0.17680730962E+03  0.23268351224E+03  0.12509000000E+03 0.  0.
<mgrwt>
<rscale>  2 0.44906495E+03</rscale>
<asrwt>0</asrwt>
<pdfrwt beam="1">  1       21 0.18573745E-01 0.44906495E+03</pdfrwt>
<pdfrwt beam="2">  1       21 0.58700395E-01 0.44906495E+03</pdfrwt>
<totfact> 0.66591742E+04</totfact>
</mgrwt>
</event>
<event>
 7    0  0.4725730E-002  0.4503238E+03  0.7546771E-02  0.1027626E+00
         21   -1    0    0  502  501  0.00000000000E+00  0.00000000000E+00  0.37113764042E+03  0.37113764042E+03  0.00000000000E+00 0. -1.
         21   -1    0    0  501  502 -0.00000000000E+00 -0.00000000000E+00 -0.13660132011E+03  0.13660132011E+03  0.00000000000E+00 0. -1.
      99926    2    1    2    0    0  0.00000000000E+00  0.10547118734E-14  0.23453632031E+03  0.50773896052E+03  0.45032384623E+03 0.  0.
      99925    2    3    3    0    0  0.91233085533E+02 -0.16951015074E+00  0.21489720720E+03  0.35167260446E+03  0.26300058258E+03 0.  0.
         25    1    4    4    0    0  0.71483543859E+02 -0.28948519516E+02  0.95492946081E+02  0.17525502753E+03  0.12509000000E+03 0.  0.
         25    1    3    3    0    0 -0.91233085533E+02  0.16951015074E+00  0.19639113110E+02  0.15606635606E+03  0.12509000000E+03 0.  0.
         25    1    4    4    0    0  0.19749541674E+02  0.28779009365E+02  0.11940426112E+03  0.17641757693E+03  0.12509000000E+03 0.  0.
<mgrwt>
<rscale>  2 0.45032385E+03</rscale>
<asrwt>0</asrwt>
<pdfrwt beam="1">  1       21 0.54579065E-01 0.45032385E+03</pdfrwt>
<pdfrwt beam="2">  1       21 0.20088430E-01 0.45032385E+03</pdfrwt>
<totfact> 0.67189368E+04</totfact>
</mgrwt>
</event>
<event>
 7    0  0.4725730E-002  0.4520749E+03  0.7546771E-02  0.1027105E+00
         21   -1    0    0  502  501  0.00000000000E+00  0.00000000000E+00  0.99722657852E+02  0.99722657852E+02  0.00000000000E+00 0.  1.
         21   -1    0    0  501  502 -0.00000000000E+00 -0.00000000000E+00 -0.51235013947E+03  0.51235013947E+03  0.00000000000E+00 0.  1.
      99926    2    1    2    0    0  0.00000000000E+00 -0.35527136788E-14 -0.41262748162E+03  0.61207279733E+03  0.45207485070E+03 0.  0.
      99925    2    3    3    0    0 -0.68440634764E+02 -0.19270086808E+02 -0.14575361892E+03  0.30888205962E+03  0.26288505587E+03 0.  0.
         25    1    4    4    0    0 -0.18073332317E+01  0.99118970612E+01 -0.87016666610E+02  0.15271188731E+03  0.12509000000E+03 0.  0.
         25    1    4    4    0    0 -0.66633301533E+02 -0.29181983869E+02 -0.58736952305E+02  0.15617017232E+03  0.12509000000E+03 0.  0.
         25    1    3    3    0    0  0.68440634764E+02  0.19270086808E+02 -0.26687386271E+03  0.30319073770E+03  0.12509000000E+03 0.  0.
<mgrwt>
<rscale>  2 0.45207485E+03</rscale>
<asrwt>0</asrwt>
<pdfrwt beam="1">  1       21 0.14665097E-01 0.45207485E+03</pdfrwt>
<pdfrwt beam="2">  1       21 0.75345608E-01 0.45207485E+03</pdfrwt>
<totfact> 0.59299452E+04</totfact>
</mgrwt>
</event>
<event>
 7    0  0.4725730E-002  0.4583264E+03  0.7546771E-02  0.1025268E+00
         21   -1    0    0  502  501  0.00000000000E+00  0.00000000000E+00  0.76448905840E+02  0.76448905840E+02  0.00000000000E+00 0. -1.
         21   -1    0    0  501  502 -0.00000000000E+00 -0.00000000000E+00 -0.68693949237E+03  0.68693949237E+03  0.00000000000E+00 0. -1.
      99926    2    1    2    0    0  0.00000000000E+00  0.00000000000E+00 -0.61049058653E+03  0.76338839821E+03  0.45832640146E+03 0.  0.
      99925    2    3    3    0    0  0.70540108123E+01 -0.11511086679E+03 -0.35886479714E+03  0.45963962585E+03  0.26302922330E+03 0.  0.
         25    1    3    3    0    0 -0.70540108123E+01  0.11511086679E+03 -0.25162578939E+03  0.30374877236E+03  0.12509000000E+03 0.  0.
         25    1    4    4    0    0 -0.69650181160E+01 -0.15513158780E+02 -0.17082278630E+03  0.21240786707E+03  0.12509000000E+03 0.  0.
         25    1    4    4    0    0  0.14019028928E+02 -0.99597708007E+02 -0.18804201084E+03  0.24723175878E+03  0.12509000000E+03 0.  0.
<mgrwt>
<rscale>  2 0.45832640E+03</rscale>
<asrwt>0</asrwt>
<pdfrwt beam="1">  1       21 0.11242485E-01 0.45832640E+03</pdfrwt>
<pdfrwt beam="2">  1       21 0.10102052E+00 0.45832640E+03</pdfrwt>
<totfact> 0.48312288E+04</totfact>
</mgrwt>
</event>
<event>
 7    0  0.4725730E-002  0.4586256E+03  0.7546771E-02  0.1025181E+00
         21   -1    0    0  502  501  0.00000000000E+00  0.00000000000E+00  0.22768259462E+03  0.22768259462E+03  0.00000000000E+00 0.  1.
         21   -1    0    0  501  502 -0.00000000000E+00 -0.00000000000E+00 -0.23095470639E+03  0.23095470639E+03  0.00000000000E+00 0.  1.
      99926    2    1    2    0    0  0.14210854715E-13 -0.71054273576E-14 -0.32721117778E+01  0.45863730101E+03  0.45862562855E+03 0.  0.
      99925    2    3    3    0    0  0.10374049467E+03  0.52118568821E+02  0.95055491836E+01  0.28749638781E+03  0.26284098252E+03 0.  0.
         25    1    3    3    0    0 -0.10374049467E+03 -0.52118568821E+02 -0.12777660961E+02  0.17114091320E+03  0.12509000000E+03 0.  0.
         25    1    4    4    0    0  0.83789559900E+02  0.42999747302E+02 -0.17822182397E+02  0.15759063075E+03  0.12509000000E+03 0.  0.
         25    1    4    4    0    0  0.19950934766E+02  0.91188215188E+01  0.27327731581E+02  0.12990575706E+03  0.12509000000E+03 0.  0.
<mgrwt>
<rscale>  2 0.45862563E+03</rscale>
<asrwt>0</asrwt>
<pdfrwt beam="1">  1       21 0.33482734E-01 0.45862563E+03</pdfrwt>
<pdfrwt beam="2">  1       21 0.33963927E-01 0.45862563E+03</pdfrwt>
<totfact> 0.66340134E+04</totfact>
</mgrwt>
</event>
<event>
 7    0  0.4725730E-002  0.4488669E+03  0.7546771E-02  0.1028060E+00
         21   -1    0    0  502  501  0.00000000000E+00  0.00000000000E+00  0.20507506697E+04  0.20507506697E+04  0.00000000000E+00 0. -1.
         21   -1    0    0  501  502 -0.00000000000E+00 -0.00000000000E+00 -0.24561915471E+02  0.24561915471E+02  0.00000000000E+00 0. -1.
      99926    2    1    2    0    0  0.00000000000E+00  0.00000000000E+00  0.20261887542E+04  0.20753125852E+04  0.44886686045E+03 0.  0.
      99925    2    3    3    0    0  0.27101861609E+02 -0.26876816670E+02  0.17457678018E+04  0.17658933019E+04  0.26309135649E+03 0.  0.
         25    1    3    3    0    0 -0.27101861609E+02  0.26876816670E+02  0.28042095249E+03  0.30941928329E+03  0.12509000000E+03 0.  0.
         25    1    4    4    0    0  0.51653648279E+02 -0.11520048949E+01  0.94210083300E+03  0.95177251176E+03  0.12509000000E+03 0.  0.
         25    1    4    4    0    0 -0.24551786671E+02 -0.25724811775E+02  0.80366696876E+03  0.81412079014E+03  0.12509000000E+03 0.  0.
<mgrwt>
<rscale>  2 0.44886686E+03</rscale>
<asrwt>0</asrwt>
<pdfrwt beam="1">  1       21 0.30158087E+00 0.44886686E+03</pdfrwt>
<pdfrwt beam="2">  1       21 0.36120478E-02 0.44886686E+03</pdfrwt>
<totfact> 0.13133360E+04</totfact>
</mgrwt>
</event>
<event>
 7    0  0.4725730E-002  0.4552542E+03  0.7546771E-02  0.1026167E+00
         21   -1    0    0  502  501  0.00000000000E+00  0.00000000000E+00  0.42393402181E+02  0.42393402181E+02  0.00000000000E+00 0.  1.
         21   -1    0    0  501  502 -0.00000000000E+00 -0.00000000000E+00 -0.12222206446E+04  0.12222206446E+04  0.00000000000E+00 0.  1.
      99926    2    1    2    0    0  0.00000000000E+00  0.00000000000E+00 -0.11798272424E+04  0.12646140468E+04  0.45525417665E+03 0.  0.
      99925    2    3    3    0    0 -0.43068147754E+02 -0.10151067338E+03 -0.81531716207E+03  0.86377194703E+03  0.26306010632E+03 0.  0.
         25    1    4    4    0    0 -0.27000572413E+02 -0.68033093523E+02 -0.31538906675E+03  0.34709552611E+03  0.12509000000E+03 0.  0.
         25    1    4    4    0    0 -0.16067575342E+02 -0.33477579859E+02 -0.49992809533E+03  0.51667642091E+03  0.12509000000E+03 0.  0.
         25    1    3    3    0    0  0.43068147754E+02  0.10151067338E+03 -0.36451008035E+03  0.40084209976E+03  0.12509000000E+03 0.  0.
<mgrwt>
<rscale>  2 0.45525418E+03</rscale>
<asrwt>0</asrwt>
<pdfrwt beam="1">  1       21 0.62343245E-02 0.45525418E+03</pdfrwt>
<pdfrwt beam="2">  1       21 0.17973831E+00 0.45525418E+03</pdfrwt>
<totfact> 0.30100349E+04</totfact>
</mgrwt>
</event>
<event>
 7    0  0.4725730E-002  0.4157847E+03  0.7546771E-02  0.1038447E+00
         21   -1    0    0  502  501  0.00000000000E+00  0.00000000000E+00  0.22881662394E+03  0.22881662394E+03  0.00000000000E+00 0. -1.
         21   -1    0    0  501  502 -0.00000000000E+00 -0.00000000000E+00 -0.18888148557E+03  0.18888148557E+03  0.00000000000E+00 0. -1.
      99926    2    1    2    0    0  0.17763568394E-14  0.00000000000E+00  0.39935138374E+02  0.41769810951E+03  0.41578467434E+03 0.  0.
      99925    2    3    3    0    0  0.12182125755E+02 -0.61438155392E+02  0.57863515225E+02  0.27665915772E+03  0.26319014425E+03 0.  0.
         25    1    3    3    0    0 -0.12182125755E+02  0.61438155392E+02 -0.17928376851E+02  0.14103895179E+03  0.12509000000E+03 0.  0.
         25    1    4    4    0    0  0.32211569399E+02 -0.33648422121E+02 -0.27246488654E+01  0.13350930052E+03  0.12509000000E+03 0.  0.
         25    1    4    4    0    0 -0.20029443644E+02 -0.27789733271E+02  0.60588164091E+02  0.14314985720E+03  0.12509000000E+03 0.  0.
<mgrwt>
<rscale>  2 0.41578467E+03</rscale>
<asrwt>0</asrwt>
<pdfrwt beam="1">  1       21 0.33649504E-01 0.41578467E+03</pdfrwt>
<pdfrwt beam="2">  1       21 0.27776689E-01 0.41578467E+03</pdfrwt>
<totfact> 0.98867718E+04</totfact>
</mgrwt>
</event>
<event>
 7    0  0.4725730E-002  0.4517758E+03  0.7546771E-02  0.1027194E+00
         21   -1    0    0  502  501  0.00000000000E+00  0.00000000000E+00  0.88795991642E+02  0.88795991642E+02  0.00000000000E+00 0.  1.
         21   -1    0    0  501  502 -0.00000000000E+00 -0.00000000000E+00 -0.57463567159E+03  0.57463567159E+03  0.00000000000E+00 0.  1.
      99926    2    1    2    0    0  0.00000000000E+00  0.00000000000E+00 -0.48583967995E+03  0.66343166323E+03  0.45177580410E+03 0.  0.
      99925    2    3    3    0    0  0.38150475852E+02  0.79353866275E+02 -0.20956532180E+03  0.34763501352E+03  0.26302088058E+03 0.  0.
         25    1    3    3    0    0 -0.38150475852E+02 -0.79353866275E+02 -0.27627435815E+03  0.31579664972E+03  0.12509000000E+03 0.  0.
         25    1    4    4    0    0  0.59174247223E+02  0.33635547800E+02 -0.10241580129E+03  0.17541221755E+03  0.12509000000E+03 0.  0.
         25    1    4    4    0    0 -0.21023771371E+02  0.45718318475E+02 -0.10714952051E+03  0.17222279597E+03  0.12509000000E+03 0.  0.
<mgrwt>
<rscale>  2 0.45177580E+03</rscale>
<asrwt>0</asrwt>
<pdfrwt beam="1">  1       21 0.13058234E-01 0.45177580E+03</pdfrwt>
<pdfrwt beam="2">  1       21 0.84505245E-01 0.45177580E+03</pdfrwt>
<totfact> 0.56352388E+04</totfact>
</mgrwt>
</event>
<event>
 7    0  0.4725730E-002  0.4834909E+03  0.7546771E-02  0.1018180E+00
         21   -1    0    0  502  501  0.00000000000E+00  0.00000000000E+00  0.10828982743E+04  0.10828982743E+04  0.00000000000E+00 0. -1.
         21   -1    0    0  501  502 -0.00000000000E+00 -0.00000000000E+00 -0.53967086789E+02  0.53967086789E+02  0.00000000000E+00 0. -1.
      99926    2    1    2    0    0  0.00000000000E+00 -0.14210854715E-13  0.10289311875E+04  0.11368653611E+04  0.48349091057E+03 0.  0.
      99925    2    3    3    0    0 -0.92594897913E+02 -0.97074225677E+02  0.70824410332E+03  0.76742668623E+03  0.26331879623E+03 0.  0.
         25    1    4    4    0    0 -0.11761341049E+02 -0.38472470380E+02  0.38346119228E+03  0.40534979241E+03  0.12509000000E+03 0.  0.
         25    1    4    4    0    0 -0.80833556864E+02 -0.58601755296E+02  0.32478291104E+03  0.36207689382E+03  0.12509000000E+03 0.  0.
         25    1    3    3    0    0  0.92594897913E+02  0.97074225677E+02  0.32068708417E+03  0.36943867484E+03  0.12509000000E+03 0.  0.
<mgrwt>
<rscale>  2 0.48349091E+03</rscale>
<asrwt>0</asrwt>
<pdfrwt beam="1">  1       21 0.15924973E+00 0.48349091E+03</pdfrwt>
<pdfrwt beam="2">  1       21 0.79363370E-02 0.48349091E+03</pdfrwt>
<totfact> 0.27572373E+04</totfact>
</mgrwt>
</event>
<event>
 7    0  0.4725730E-002  0.4560337E+03  0.7546771E-02  0.1025938E+00
         21   -1    0    0  502  501  0.00000000000E+00  0.00000000000E+00  0.37293801878E+03  0.37293801878E+03  0.00000000000E+00 0.  1.
         21   -1    0    0  501  502 -0.00000000000E+00 -0.00000000000E+00 -0.13941104563E+03  0.13941104563E+03  0.00000000000E+00 0.  1.
      99926    2    1    2    0    0  0.00000000000E+00  0.14210854715E-13  0.23352697315E+03  0.51234906441E+03  0.45603367925E+03 0.  0.
      99925    2    3    3    0    0 -0.31398854692E+02  0.99453358438E+02  0.94969676905E+02  0.29852088333E+03  0.26309431706E+03 0.  0.
         25    1    4    4    0    0 -0.22538435097E+02  0.85394317872E+02  0.28010727580E+02  0.15566720766E+03  0.12509000000E+03 0.  0.
         25    1    4    4    0    0 -0.88604195948E+01  0.14059040566E+02  0.66958949326E+02  0.14285367567E+03  0.12509000000E+03 0.  0.
         25    1    3    3    0    0  0.31398854692E+02 -0.99453358438E+02  0.13855729625E+03  0.21382818108E+03  0.12509000000E+03 0.  0.
<mgrwt>
<rscale>  2 0.45603368E+03</rscale>
<asrwt>0</asrwt>
<pdfrwt beam="1">  1       21 0.54843826E-01 0.45603368E+03</pdfrwt>
<pdfrwt beam="2">  1       21 0.20501625E-01 0.45603368E+03</pdfrwt>
<totfact> 0.63885844E+04</totfact>
</mgrwt>
</event>
<event>
 7    0  0.4725730E-002  0.4544848E+03  0.7546771E-02  0.1026393E+00
         21   -1    0    0  502  501  0.00000000000E+00  0.00000000000E+00  0.16573157672E+03  0.16573157672E+03  0.00000000000E+00 0.  1.
         21   -1    0    0  501  502 -0.00000000000E+00 -0.00000000000E+00 -0.31158283115E+03  0.31158283115E+03  0.00000000000E+00 0.  1.
      99926    2    1    2    0    0  0.00000000000E+00 -0.53290705182E-14 -0.14585125443E+03  0.47731440786E+03  0.45448482432E+03 0.  0.
      99925    2    3    3    0    0 -0.44149010274E+02  0.67218519180E+01 -0.20042594655E+03  0.33371697223E+03  0.26306299455E+03 0.  0.
         25    1    4    4    0    0 -0.17753504389E+02 -0.34023422127E+02 -0.79612697663E+02  0.15316158102E+03  0.12509000000E+03 0.  0.
         25    1    4    4    0    0 -0.26395505885E+02  0.40745274045E+02 -0.12081324888E+03  0.18055539121E+03  0.12509000000E+03 0.  0.
         25    1    3    3    0    0  0.44149010274E+02 -0.67218519180E+01  0.54574692117E+02  0.14359743564E+03  0.12509000000E+03 0.  0.
<mgrwt>
<rscale>  2 0.45448482E+03</rscale>
<asrwt>0</asrwt>
<pdfrwt beam="1">  1       21 0.24372291E-01 0.45448482E+03</pdfrwt>
<pdfrwt beam="2">  1       21 0.45821004E-01 0.45448482E+03</pdfrwt>
<totfact> 0.67170339E+04</totfact>
</mgrwt>
</event>
<event>
 7    0  0.4725730E-002  0.4555205E+03  0.7546771E-02  0.1026088E+00
         21   -1    0    0  502  501  0.00000000000E+00  0.00000000000E+00  0.57458095553E+03  0.57458095553E+03  0.00000000000E+00 0.  1.
         21   -1    0    0  501  502 -0.00000000000E+00 -0.00000000000E+00 -0.90282731544E+02  0.90282731544E+02  0.00000000000E+00 0.  1.
      99926    2    1    2    0    0  0.00000000000E+00  0.00000000000E+00  0.48429822399E+03  0.66486368708E+03  0.45552052932E+03 0.  0.
      99925    2    3    3    0    0  0.24279816830E+02  0.10022003415E+03  0.23235074516E+03  0.36526628232E+03  0.26229567948E+03 0.  0.
         25    1    4    4    0    0 -0.81155886574E+01  0.17520206376E+02  0.12598605460E+03  0.17858559423E+03  0.12509000000E+03 0.  0.
         25    1    4    4    0    0  0.32395405488E+02  0.82699827771E+02  0.10636469056E+03  0.18668068810E+03  0.12509000000E+03 0.  0.
         25    1    3    3    0    0 -0.24279816830E+02 -0.10022003415E+03  0.25194747883E+03  0.29959740476E+03  0.12509000000E+03 0.  0.
<mgrwt>
<rscale>  2 0.45552053E+03</rscale>
<asrwt>0</asrwt>
<pdfrwt beam="1">  1       21 0.84497198E-01 0.45552053E+03</pdfrwt>
<pdfrwt beam="2">  1       21 0.13276873E-01 0.45552053E+03</pdfrwt>
<totfact> 0.54627735E+04</totfact>
</mgrwt>
</event>
<event>
 7    0  0.4725730E-002  0.4530588E+03  0.7546771E-02  0.1026814E+00
         21   -1    0    0  502  501  0.00000000000E+00  0.00000000000E+00  0.12723353840E+03  0.12723353840E+03  0.00000000000E+00 0. -1.
         21   -1    0    0  501  502 -0.00000000000E+00 -0.00000000000E+00 -0.40331788413E+03  0.40331788413E+03  0.00000000000E+00 0. -1.
      99926    2    1    2    0    0  0.00000000000E+00  0.00000000000E+00 -0.27608434573E+03  0.53055142253E+03  0.45305876660E+03 0.  0.
      99925    2    3    3    0    0 -0.69243157309E+02  0.51478530834E+02 -0.25756695313E+03  0.37746629621E+03  0.26209810275E+03 0.  0.
         25    1    4    4    0    0 -0.15059632837E+02  0.56473343212E+02 -0.14888825954E+03  0.20305480286E+03  0.12509000000E+03 0.  0.
         25    1    4    4    0    0 -0.54183524472E+02 -0.49948123778E+01 -0.10867869359E+03  0.17441149336E+03  0.12509000000E+03 0.  0.
         25    1    3    3    0    0  0.69243157309E+02 -0.51478530834E+02 -0.18517392607E+02  0.15308512632E+03  0.12509000000E+03 0.  0.
<mgrwt>
<rscale>  2 0.45305877E+03</rscale>
<asrwt>0</asrwt>
<pdfrwt beam="1">  1       21 0.18710814E-01 0.45305877E+03</pdfrwt>
<pdfrwt beam="2">  1       21 0.59311454E-01 0.45305877E+03</pdfrwt>
<totfact> 0.64150363E+04</totfact>
</mgrwt>
</event>
<event>
 7    0  0.4725730E-002  0.4525363E+03  0.7546771E-02  0.1026968E+00
         21   -1    0    0  502  501  0.00000000000E+00  0.00000000000E+00  0.96121583703E+02  0.96121583703E+02  0.00000000000E+00 0. -1.
         21   -1    0    0  501  502 -0.00000000000E+00 -0.00000000000E+00 -0.53263040231E+03  0.53263040231E+03  0.00000000000E+00 0. -1.
      99926    2    1    2    0    0  0.71054273576E-14  0.00000000000E+00 -0.43650881860E+03  0.62875198601E+03  0.45253630925E+03 0.  0.
      99925    2    3    3    0    0  0.47397917007E+02 -0.16865801557E+02 -0.13812832345E+03  0.30132345062E+03  0.26303112051E+03 0.  0.
         25    1    4    4    0    0 -0.13566133648E+02  0.24906121467E+01 -0.49640472433E+02  0.13528461751E+03  0.12509000000E+03 0.  0.
         25    1    3    3    0    0 -0.47397917007E+02  0.16865801557E+02 -0.29838049516E+03  0.32742853539E+03  0.12509000000E+03 0.  0.
         25    1    4    4    0    0  0.60964050655E+02 -0.19356413704E+02 -0.88487851016E+02  0.16603883311E+03  0.12509000000E+03 0.  0.
<mgrwt>
<rscale>  2 0.45253631E+03</rscale>
<asrwt>0</asrwt>
<pdfrwt beam="1">  1       21 0.14135527E-01 0.45253631E+03</pdfrwt>
<pdfrwt beam="2">  1       21 0.78327999E-01 0.45253631E+03</pdfrwt>
<totfact> 0.58063570E+04</totfact>
</mgrwt>
</event>
<event>
 7    0  0.4725730E-002  0.4593610E+03  0.7546771E-02  0.1024967E+00
         21   -1    0    0  502  501  0.00000000000E+00  0.00000000000E+00  0.96344833697E+02  0.96344833697E+02  0.00000000000E+00 0. -1.
         21   -1    0    0  501  502 -0.00000000000E+00 -0.00000000000E+00 -0.54754507911E+03  0.54754507911E+03  0.00000000000E+00 0. -1.
      99926    2    1    2    0    0  0.00000000000E+00  0.14210854715E-13 -0.45120024541E+03  0.64388991280E+03  0.45936103269E+03 0.  0.
      99925    2    3    3    0    0 -0.52396529010E+02 -0.10166051519E+03 -0.24720937097E+03  0.37867294209E+03  0.26305981710E+03 0.  0.
         25    1    3    3    0    0  0.52396529010E+02  0.10166051519E+03 -0.20399087444E+03  0.26521697072E+03  0.12509000000E+03 0.  0.
         25    1    4    4    0    0 -0.24389260308E+02 -0.77600266977E+02 -0.17358656952E+03  0.22890269258E+03  0.12509000000E+03 0.  0.
         25    1    4    4    0    0 -0.28007268702E+02 -0.24060248210E+02 -0.73622801447E+02  0.14977024951E+03  0.12509000000E+03 0.  0.
<mgrwt>
<rscale>  2 0.45936103E+03</rscale>
<asrwt>0</asrwt>
<pdfrwt beam="1">  1       21 0.14168358E-01 0.45936103E+03</pdfrwt>
<pdfrwt beam="2">  1       21 0.80521336E-01 0.45936103E+03</pdfrwt>
<totfact> 0.54166673E+04</totfact>
</mgrwt>
</event>
<event>
 7    0  0.4725730E-002  0.4531252E+03  0.7546771E-02  0.1026794E+00
         21   -1    0    0  502  501  0.00000000000E+00  0.00000000000E+00  0.34996235197E+03  0.34996235197E+03  0.00000000000E+00 0.  1.
         21   -1    0    0  501  502 -0.00000000000E+00 -0.00000000000E+00 -0.14667467868E+03  0.14667467868E+03  0.00000000000E+00 0.  1.
      99926    2    1    2    0    0  0.00000000000E+00  0.00000000000E+00  0.20328767329E+03  0.49663703065E+03  0.45312521680E+03 0.  0.
      99925    2    3    3    0    0 -0.67484862007E+02  0.85502695062E+02  0.15310802355E+03  0.32334414906E+03  0.26314341031E+03 0.  0.
         25    1    4    4    0    0 -0.21521771682E+02  0.43526548654E+02  0.11939735756E+03  0.17961342986E+03  0.12509000000E+03 0.  0.
         25    1    3    3    0    0  0.67484862007E+02 -0.85502695062E+02  0.50179649739E+02  0.17329288159E+03  0.12509000000E+03 0.  0.
         25    1    4    4    0    0 -0.45963090325E+02  0.41976146408E+02  0.33710665990E+02  0.14373071920E+03  0.12509000000E+03 0.  0.
<mgrwt>
<rscale>  2 0.45312522E+03</rscale>
<asrwt>0</asrwt>
<pdfrwt beam="1">  1       21 0.51465052E-01 0.45312522E+03</pdfrwt>
<pdfrwt beam="2">  1       21 0.21569806E-01 0.45312522E+03</pdfrwt>
<totfact> 0.66491641E+04</totfact>
</mgrwt>
</event>
<event>
 7    0  0.4725730E-002  0.4623660E+03  0.7546771E-02  0.1024097E+00
         21   -1    0    0  502  501  0.00000000000E+00  0.00000000000E+00  0.72097154470E+02  0.72097154470E+02  0.00000000000E+00 0. -1.
         21   -1    0    0  501  502 -0.00000000000E+00 -0.00000000000E+00 -0.74129927509E+03  0.74129927509E+03  0.00000000000E+00 0. -1.
      99926    2    1    2    0    0 -0.14210854715E-13 -0.14210854715E-13 -0.66920212062E+03  0.81339642956E+03  0.46236595179E+03 0.  0.
      99925    2    3    3    0    0  0.77741321747E+02  0.89225008203E+02 -0.45270118197E+03  0.53676494232E+03  0.26300841802E+03 0.  0.
         25    1    4    4    0    0  0.50231751855E+01  0.44243283933E+02 -0.25688046894E+03  0.28916739768E+03  0.12509000000E+03 0.  0.
         25    1    3    3    0    0 -0.77741321747E+02 -0.89225008203E+02 -0.21650093864E+03  0.27663148723E+03  0.12509000000E+03 0.  0.
         25    1    4    4    0    0  0.72718146561E+02  0.44981724269E+02 -0.19582071304E+03  0.24759754464E+03  0.12509000000E+03 0.  0.
<mgrwt>
<rscale>  2 0.46236595E+03</rscale>
<asrwt>0</asrwt>
<pdfrwt beam="1">  1       21 0.10602522E-01 0.46236595E+03</pdfrwt>
<pdfrwt beam="2">  1       21 0.10901460E+00 0.46236595E+03</pdfrwt>
<totfact> 0.44495487E+04</totfact>
</mgrwt>
</event>
<event>
 7    0  0.4725730E-002  0.4473489E+03  0.7546771E-02  0.1028516E+00
         21   -1    0    0  502  501  0.00000000000E+00  0.00000000000E+00  0.58419321726E+03  0.58419321726E+03  0.00000000000E+00 0.  1.
         21   -1    0    0  501  502 -0.00000000000E+00 -0.00000000000E+00 -0.85639901103E+02  0.85639901103E+02  0.00000000000E+00 0.  1.
      99926    2    1    2    0    0 -0.44408920985E-15  0.00000000000E+00  0.49855331616E+03  0.66983311836E+03  0.44734885426E+03 0.  0.
      99925    2    3    3    0    0 -0.21375080076E+01 -0.37461760279E+02  0.46424567450E+03  0.53480543676E+03  0.26283998263E+03 0.  0.
         25    1    3    3    0    0  0.21375080076E+01  0.37461760279E+02  0.34307641652E+02  0.13502768160E+03  0.12509000000E+03 0.  0.
         25    1    4    4    0    0  0.92403133959E+01 -0.57929921676E+02  0.24818912741E+03  0.28405388623E+03  0.12509000000E+03 0.  0.
         25    1    4    4    0    0 -0.11377821403E+02  0.20468161396E+02  0.21605654709E+03  0.25075155053E+03  0.12509000000E+03 0.  0.
<mgrwt>
<rscale>  2 0.44734885E+03</rscale>
<asrwt>0</asrwt>
<pdfrwt beam="1">  1       21 0.85910765E-01 0.44734885E+03</pdfrwt>
<pdfrwt beam="2">  1       21 0.12594103E-01 0.44734885E+03</pdfrwt>
<totfact> 0.57989033E+04</totfact>
</mgrwt>
</event>
<event>
 7    0  0.4725730E-002  0.4271915E+03  0.7546771E-02  0.1034751E+00
         21   -1    0    0  502  501  0.00000000000E+00  0.00000000000E+00  0.96988840923E+03  0.96988840923E+03  0.00000000000E+00 0. -1.
         21   -1    0    0  501  502 -0.00000000000E+00 -0.00000000000E+00 -0.47039590241E+02  0.47039590241E+02  0.00000000000E+00 0. -1.
      99926    2    1    2    0    0  0.00000000000E+00  0.00000000000E+00  0.92284881899E+03  0.10169279995E+04  0.42719154181E+03 0.  0.
      99925    2    3    3    0    0 -0.34786696917E+02  0.51120481274E+02  0.73412213402E+03  0.78221820503E+03  0.26288133203E+03 0.  0.
         25    1    4    4    0    0 -0.74391443952E+00  0.62555509072E+02  0.38787176276E+03  0.41231754458E+03  0.12509000000E+03 0.  0.
         25    1    3    3    0    0  0.34786696917E+02 -0.51120481274E+02  0.18872668496E+03  0.23470979444E+03  0.12509000000E+03 0.  0.
         25    1    4    4    0    0 -0.34042782478E+02 -0.11435027798E+02  0.34625037126E+03  0.36990066045E+03  0.12509000000E+03 0.  0.
<mgrwt>
<rscale>  2 0.42719154E+03</rscale>
<asrwt>0</asrwt>
<pdfrwt beam="1">  1       21 0.14263064E+00 0.42719154E+03</pdfrwt>
<pdfrwt beam="2">  1       21 0.69175874E-02 0.42719154E+03</pdfrwt>
<totfact> 0.48150473E+04</totfact>
</mgrwt>
</event>
<event>
 7    0  0.4725730E-002  0.4546075E+03  0.7546771E-02  0.1026357E+00
         21   -1    0    0  502  501  0.00000000000E+00  0.00000000000E+00  0.46158556155E+02  0.46158556155E+02  0.00000000000E+00 0. -1.
         21   -1    0    0  501  502 -0.00000000000E+00 -0.00000000000E+00 -0.11193372047E+04  0.11193372047E+04  0.00000000000E+00 0. -1.
      99926    2    1    2    0    0  0.00000000000E+00  0.71054273576E-14 -0.10731786485E+04  0.11654957609E+04  0.45460747561E+03 0.  0.
      99925    2    3    3    0    0  0.10209274403E+03  0.47443430457E+02 -0.69587075998E+03  0.75235830388E+03  0.26293173135E+03 0.  0.
         25    1    4    4    0    0  0.22857984146E+02  0.49955242792E+02 -0.29820792680E+03  0.32801446527E+03  0.12509000000E+03 0.  0.
         25    1    4    4    0    0  0.79234759889E+02 -0.25118123359E+01 -0.39766283318E+03  0.42434383861E+03  0.12509000000E+03 0.  0.
         25    1    3    3    0    0 -0.10209274403E+03 -0.47443430457E+02 -0.37730788857E+03  0.41313745697E+03  0.12509000000E+03 0.  0.
<mgrwt>
<rscale>  2 0.45460748E+03</rscale>
<asrwt>0</asrwt>
<pdfrwt beam="1">  1       21 0.67880219E-02 0.45460748E+03</pdfrwt>
<pdfrwt beam="2">  1       21 0.16460844E+00 0.45460748E+03</pdfrwt>
<totfact> 0.33371140E+04</totfact>
</mgrwt>
</event>
<event>
 7    0  0.4725730E-002  0.5161643E+03  0.7546771E-02  0.1009644E+00
         21   -1    0    0  502  501  0.00000000000E+00  0.00000000000E+00  0.13434929406E+03  0.13434929406E+03  0.00000000000E+00 0. -1.
         21   -1    0    0  501  502 -0.00000000000E+00 -0.00000000000E+00 -0.49577026928E+03  0.49577026928E+03  0.00000000000E+00 0. -1.
      99926    2    1    2    0    0  0.28421709430E-13 -0.35527136788E-14 -0.36142097523E+03  0.63011956334E+03  0.51616425949E+03 0.  0.
      99925    2    3    3    0    0  0.15276202874E+03 -0.25152592633E+02 -0.28265587258E+03  0.41606270212E+03  0.26314433197E+03 0.  0.
         25    1    4    4    0    0  0.30161825735E+02 -0.12230980969E+02 -0.13075236040E+03  0.18385597754E+03  0.12509000000E+03 0.  0.
         25    1    3    3    0    0 -0.15276202874E+03  0.25152592633E+02 -0.78765102642E+02  0.21405686122E+03  0.12509000000E+03 0.  0.
         25    1    4    4    0    0  0.12260020301E+03 -0.12921611663E+02 -0.15190351218E+03  0.23220672458E+03  0.12509000000E+03 0.  0.
<mgrwt>
<rscale>  2 0.51616426E+03</rscale>
<asrwt>0</asrwt>
<pdfrwt beam="1">  1       21 0.19757249E-01 0.51616426E+03</pdfrwt>
<pdfrwt beam="2">  1       21 0.72907394E-01 0.51616426E+03</pdfrwt>
<totfact> 0.36034932E+04</totfact>
</mgrwt>
</event>
<event>
 7    0  0.4725730E-002  0.4553095E+03  0.7546771E-02  0.1026150E+00
         21   -1    0    0  502  501  0.00000000000E+00  0.00000000000E+00  0.57175314158E+03  0.57175314158E+03  0.00000000000E+00 0. -1.
         21   -1    0    0  501  502 -0.00000000000E+00 -0.00000000000E+00 -0.90645209137E+02  0.90645209137E+02  0.00000000000E+00 0. -1.
      99926    2    1    2    0    0  0.00000000000E+00 -0.14210854715E-13  0.48110793244E+03  0.66239835071E+03  0.45530949076E+03 0.  0.
      99925    2    3    3    0    0 -0.24189271692E+02  0.10875188730E+03  0.27509399962E+03  0.39687746175E+03  0.26348229004E+03 0.  0.
         25    1    4    4    0    0 -0.49589350656E+02  0.36633526422E+02  0.13328738584E+03  0.19290970499E+03  0.12509000000E+03 0.  0.
         25    1    3    3    0    0  0.24189271692E+02 -0.10875188730E+03  0.20601393282E+03  0.26552088896E+03  0.12509000000E+03 0.  0.
         25    1    4    4    0    0  0.25400078964E+02  0.72118360879E+02  0.14180661378E+03  0.20396775676E+03  0.12509000000E+03 0.  0.
<mgrwt>
<rscale>  2 0.45530949E+03</rscale>
<asrwt>0</asrwt>
<pdfrwt beam="1">  1       21 0.84081343E-01 0.45530949E+03</pdfrwt>
<pdfrwt beam="2">  1       21 0.13330178E-01 0.45530949E+03</pdfrwt>
<totfact> 0.54858139E+04</totfact>
</mgrwt>
</event>
<event>
 7    0  0.4725730E-002  0.4556935E+03  0.7546771E-02  0.1026038E+00
         21   -1    0    0  502  501  0.00000000000E+00  0.00000000000E+00  0.67100727999E+02  0.67100727999E+02  0.00000000000E+00 0. -1.
         21   -1    0    0  501  502 -0.00000000000E+00 -0.00000000000E+00 -0.77367490399E+03  0.77367490399E+03  0.00000000000E+00 0. -1.
      99926    2    1    2    0    0 -0.71054273576E-14  0.00000000000E+00 -0.70657417599E+03  0.84077563199E+03  0.45569353426E+03 0.  0.
      99925    2    3    3    0    0 -0.50773448687E+02  0.45421846051E+02 -0.27615781271E+03  0.38740289233E+03  0.26301478337E+03 0.  0.
         25    1    4    4    0    0 -0.34663028726E+02  0.23086877560E+02 -0.83520020544E+02  0.15606931603E+03  0.12509000000E+03 0.  0.
         25    1    4    4    0    0 -0.16110419961E+02  0.22334968491E+02 -0.19263779217E+03  0.23133357629E+03  0.12509000000E+03 0.  0.
         25    1    3    3    0    0  0.50773448687E+02 -0.45421846051E+02 -0.43041636328E+03  0.45337273966E+03  0.12509000000E+03 0.  0.
<mgrwt>
<rscale>  2 0.45569353E+03</rscale>
<asrwt>0</asrwt>
<pdfrwt beam="1">  1       21 0.98677546E-02 0.45569353E+03</pdfrwt>
<pdfrwt beam="2">  1       21 0.11377572E+00 0.45569353E+03</pdfrwt>
<totfact> 0.45606228E+04</totfact>
</mgrwt>
</event>
<event>
 7    0  0.4725730E-002  0.4523152E+03  0.7546771E-02  0.1027034E+00
         21   -1    0    0  502  501  0.00000000000E+00  0.00000000000E+00  0.45534722321E+03  0.45534722321E+03  0.00000000000E+00 0.  1.
         21   -1    0    0  501  502 -0.00000000000E+00 -0.00000000000E+00 -0.11232581778E+03  0.11232581778E+03  0.00000000000E+00 0.  1.
      99926    2    1    2    0    0  0.00000000000E+00  0.00000000000E+00  0.34302140543E+03  0.56767304099E+03  0.45231515217E+03 0.  0.
      99925    2    3    3    0    0 -0.10480562138E+03 -0.28677796399E+02  0.19010514701E+03  0.34220125901E+03  0.26297357370E+03 0.  0.
         25    1    4    4    0    0 -0.60359006431E+02 -0.44788748743E+02  0.67543859180E+02  0.16080709774E+03  0.12509000000E+03 0.  0.
         25    1    4    4    0    0 -0.44446614952E+02  0.16110952344E+02  0.12256128783E+03  0.18139416126E+03  0.12509000000E+03 0.  0.
         25    1    3    3    0    0  0.10480562138E+03  0.28677796399E+02  0.15291625842E+03  0.22547178198E+03  0.12509000000E+03 0.  0.
<mgrwt>
<rscale>  2 0.45231515E+03</rscale>
<asrwt>0</asrwt>
<pdfrwt beam="1">  1       21 0.66962827E-01 0.45231515E+03</pdfrwt>
<pdfrwt beam="2">  1       21 0.16518503E-01 0.45231515E+03</pdfrwt>
<totfact> 0.62019932E+04</totfact>
</mgrwt>
</event>
<event>
 7    0  0.4725730E-002  0.4628562E+03  0.7546771E-02  0.1023956E+00
         21   -1    0    0  502  501  0.00000000000E+00  0.00000000000E+00  0.67395165470E+02  0.67395165470E+02  0.00000000000E+00 0.  1.
         21   -1    0    0  501  502 -0.00000000000E+00 -0.00000000000E+00 -0.79470046061E+03  0.79470046061E+03  0.00000000000E+00 0.  1.
      99926    2    1    2    0    0  0.00000000000E+00  0.14210854715E-13 -0.72730529514E+03  0.86209562608E+03  0.46285621543E+03 0.  0.
      99925    2    3    3    0    0 -0.78969406758E+02  0.87768339312E+02 -0.49868392771E+03  0.57599304599E+03  0.26295033881E+03 0.  0.
         25    1    4    4    0    0 -0.76894223362E+02  0.33770873873E+02 -0.28913578260E+03  0.32603711812E+03  0.12509000000E+03 0.  0.
         25    1    4    4    0    0 -0.20751833958E+01  0.53997465439E+02 -0.20954814511E+03  0.24995592787E+03  0.12509000000E+03 0.  0.
         25    1    3    3    0    0  0.78969406758E+02 -0.87768339312E+02 -0.22862136743E+03  0.28610258009E+03  0.12509000000E+03 0.  0.
<mgrwt>
<rscale>  2 0.46285622E+03</rscale>
<asrwt>0</asrwt>
<pdfrwt beam="1">  1       21 0.99110530E-02 0.46285622E+03</pdfrwt>
<pdfrwt beam="2">  1       21 0.11686772E+00 0.46285622E+03</pdfrwt>
<totfact> 0.42239409E+04</totfact>
</mgrwt>
</event>
<event>
 7    0  0.4725730E-002  0.4565890E+03  0.7546771E-02  0.1025775E+00
         21   -1    0    0  502  501  0.00000000000E+00  0.00000000000E+00  0.80515235281E+03  0.80515235281E+03  0.00000000000E+00 0. -1.
         21   -1    0    0  501  502 -0.00000000000E+00 -0.00000000000E+00 -0.64731069912E+02  0.64731069912E+02  0.00000000000E+00 0. -1.
      99926    2    1    2    0    0 -0.14210854715E-13  0.00000000000E+00  0.74042128290E+03  0.86988342272E+03  0.45658897595E+03 0.  0.
      99925    2    3    3    0    0 -0.79462720478E+02  0.55642037809E+02  0.58126969172E+03  0.64541271774E+03  0.26319719110E+03 0.  0.
         25    1    3    3    0    0  0.79462720478E+02 -0.55642037809E+02  0.15915159118E+03  0.22447070498E+03  0.12509000000E+03 0.  0.
         25    1    4    4    0    0 -0.80571396634E+02  0.21669446666E+02  0.33160906753E+03  0.36410629855E+03  0.12509000000E+03 0.  0.
         25    1    4    4    0    0  0.11086761568E+01  0.33972591143E+02  0.24966062419E+03  0.28130641920E+03  0.12509000000E+03 0.  0.
<mgrwt>
<rscale>  2 0.45658898E+03</rscale>
<asrwt>0</asrwt>
<pdfrwt beam="1">  1       21 0.11840475E+00 0.45658898E+03</pdfrwt>
<pdfrwt beam="2">  1       21 0.95192755E-02 0.45658898E+03</pdfrwt>
<totfact> 0.44011084E+04</totfact>
</mgrwt>
</event>
<event>
 7    0  0.4725730E-002  0.4452519E+03  0.7546771E-02  0.1029147E+00
         21   -1    0    0  502  501  0.00000000000E+00  0.00000000000E+00  0.64555994566E+03  0.64555994566E+03  0.00000000000E+00 0.  1.
         21   -1    0    0  501  502 -0.00000000000E+00 -0.00000000000E+00 -0.76774151811E+02  0.76774151811E+02  0.00000000000E+00 0.  1.
      99926    2    1    2    0    0 -0.14210854715E-13  0.71054273576E-14  0.56878579385E+03  0.72233409747E+03  0.44525191643E+03 0.  0.
      99925    2    3    3    0    0 -0.79145858512E+02 -0.37526815885E+02  0.45132376879E+03  0.52967594358E+03  0.26304207287E+03 0.  0.
         25    1    4    4    0    0 -0.18598261151E+02  0.17008007470E+02  0.19479226159E+03  0.23286627259E+03  0.12509000000E+03 0.  0.
         25    1    3    3    0    0  0.79145858512E+02  0.37526815885E+02  0.11746202506E+03  0.19265815389E+03  0.12509000000E+03 0.  0.
         25    1    4    4    0    0 -0.60547597361E+02 -0.54534823355E+02  0.25653150720E+03  0.29680967099E+03  0.12509000000E+03 0.  0.
<mgrwt>
<rscale>  2 0.44525192E+03</rscale>
<asrwt>0</asrwt>
<pdfrwt beam="1">  1       21 0.94935283E-01 0.44525192E+03</pdfrwt>
<pdfrwt beam="2">  1       21 0.11290317E-01 0.44525192E+03</pdfrwt>
<totfact> 0.55868877E+04</totfact>
</mgrwt>
</event>
<event>
 7    0  0.4725730E-002  0.4538377E+03  0.7546771E-02  0.1026584E+00
         21   -1    0    0  502  501  0.00000000000E+00  0.00000000000E+00  0.66380566563E+03  0.66380566563E+03  0.00000000000E+00 0. -1.
         21   -1    0    0  501  502 -0.00000000000E+00 -0.00000000000E+00 -0.77571156072E+02  0.77571156072E+02  0.00000000000E+00 0. -1.
      99926    2    1    2    0    0 -0.71054273576E-14  0.14210854715E-13  0.58623450956E+03  0.74137682170E+03  0.45383773704E+03 0.  0.
      99925    2    3    3    0    0 -0.37652303488E+02  0.10371189335E+03  0.33727561971E+03  0.44170718741E+03  0.26301433988E+03 0.  0.
         25    1    4    4    0    0 -0.13063551671E+02  0.17643367867E+02  0.11455363043E+03  0.17103212317E+03  0.12509000000E+03 0.  0.
         25    1    4    4    0    0 -0.24588751816E+02  0.86068525478E+02  0.22272198928E+03  0.27067506424E+03  0.12509000000E+03 0.  0.
         25    1    3    3    0    0  0.37652303488E+02 -0.10371189335E+03  0.24895888985E+03  0.29966963429E+03  0.12509000000E+03 0.  0.
<mgrwt>
<rscale>  2 0.45383774E+03</rscale>
<asrwt>0</asrwt>
<pdfrwt beam="1">  1       21 0.97618477E-01 0.45383774E+03</pdfrwt>
<pdfrwt beam="2">  1       21 0.11407523E-01 0.45383774E+03</pdfrwt>
<totfact> 0.51179384E+04</totfact>
</mgrwt>
</event>
<event>
 7    0  0.4725730E-002  0.4555161E+03  0.7546771E-02  0.1026090E+00
         21   -1    0    0  502  501  0.00000000000E+00  0.00000000000E+00  0.22612276312E+03  0.22612276312E+03  0.00000000000E+00 0.  1.
         21   -1    0    0  501  502 -0.00000000000E+00 -0.00000000000E+00 -0.22940519960E+03  0.22940519960E+03  0.00000000000E+00 0.  1.
      99926    2    1    2    0    0  0.14210854715E-13 -0.14210854715E-13 -0.32824364798E+01  0.45552796272E+03  0.45551613630E+03 0.  0.
      99925    2    3    3    0    0  0.90539201415E+02  0.69425236490E+02 -0.99148704804E+01  0.28609152114E+03  0.26216949357E+03 0.  0.
         25    1    4    4    0    0  0.22117624607E+02  0.19887983907E+01 -0.17172272928E+02  0.12820116885E+03  0.12509000000E+03 0.  0.
         25    1    3    3    0    0 -0.90539201415E+02 -0.69425236490E+02  0.66324340006E+01  0.16943644158E+03  0.12509000000E+03 0.  0.
         25    1    4    4    0    0  0.68421576808E+02  0.67436438100E+02  0.72574024481E+01  0.15789035229E+03  0.12509000000E+03 0.  0.
<mgrwt>
<rscale>  2 0.45551614E+03</rscale>
<asrwt>0</asrwt>
<pdfrwt beam="1">  1       21 0.33253348E-01 0.45551614E+03</pdfrwt>
<pdfrwt beam="2">  1       21 0.33736058E-01 0.45551614E+03</pdfrwt>
<totfact> 0.68225727E+04</totfact>
</mgrwt>
</event>
<event>
 7    0  0.4725730E-002  0.4552623E+03  0.7546771E-02  0.1026164E+00
         21   -1    0    0  502  501  0.00000000000E+00  0.00000000000E+00  0.61988956057E+02  0.61988956057E+02  0.00000000000E+00 0.  1.
         21   -1    0    0  501  502 -0.00000000000E+00 -0.00000000000E+00 -0.83588969155E+03  0.83588969155E+03  0.00000000000E+00 0.  1.
      99926    2    1    2    0    0  0.00000000000E+00  0.00000000000E+00 -0.77390073549E+03  0.89787864760E+03  0.45526225127E+03 0.  0.
      99925    2    3    3    0    0 -0.70373730387E+02 -0.75435257938E+02 -0.58097099536E+03  0.64586211482E+03  0.26261689558E+03 0.  0.
         25    1    4    4    0    0 -0.70287191757E+02 -0.23546892021E+02 -0.26947398780E+03  0.30620007127E+03  0.12509000000E+03 0.  0.
         25    1    3    3    0    0  0.70373730387E+02  0.75435257938E+02 -0.19292974013E+03  0.25201653278E+03  0.12509000000E+03 0.  0.
         25    1    4    4    0    0 -0.86538629662E-01 -0.51888365917E+02 -0.31149700756E+03  0.33966204355E+03  0.12509000000E+03 0.  0.
<mgrwt>
<rscale>  2 0.45526225E+03</rscale>
<asrwt>0</asrwt>
<pdfrwt beam="1">  1       21 0.91160237E-02 0.45526225E+03</pdfrwt>
<pdfrwt beam="2">  1       21 0.12292494E+00 0.45526225E+03</pdfrwt>
<totfact> 0.43236684E+04</totfact>
</mgrwt>
</event>
<event>
 7    0  0.4725730E-002  0.4548524E+03  0.7546771E-02  0.1026285E+00
         21   -1    0    0  502  501  0.00000000000E+00  0.00000000000E+00  0.12652955031E+03  0.12652955031E+03  0.00000000000E+00 0. -1.
         21   -1    0    0  501  502 -0.00000000000E+00 -0.00000000000E+00 -0.40877950591E+03  0.40877950591E+03  0.00000000000E+00 0. -1.
      99926    2    1    2    0    0  0.35527136788E-14  0.14210854715E-13 -0.28224995560E+03  0.53530905623E+03  0.45485244667E+03 0.  0.
      99925    2    3    3    0    0  0.19014921169E+02  0.10677633938E+03 -0.21533598401E+03  0.35673766554E+03  0.26292474613E+03 0.  0.
         25    1    4    4    0    0  0.10800686295E+02  0.99306277766E+01 -0.91837343812E+02  0.15587455858E+03  0.12509000000E+03 0.  0.
         25    1    4    4    0    0  0.82142348737E+01  0.96845711599E+02 -0.12349864019E+03  0.20086310696E+03  0.12509000000E+03 0.  0.
         25    1    3    3    0    0 -0.19014921169E+02 -0.10677633938E+03 -0.66913971595E+02  0.17857139069E+03  0.12509000000E+03 0.  0.
<mgrwt>
<rscale>  2 0.45485245E+03</rscale>
<asrwt>0</asrwt>
<pdfrwt beam="1">  1       21 0.18607287E-01 0.45485245E+03</pdfrwt>
<pdfrwt beam="2">  1       21 0.60114634E-01 0.45485245E+03</pdfrwt>
<totfact> 0.62921315E+04</totfact>
</mgrwt>
</event>
<event>
 7    0  0.4725730E-002  0.4554821E+03  0.7546771E-02  0.1026100E+00
         21   -1    0    0  502  501  0.00000000000E+00  0.00000000000E+00  0.96887658739E+03  0.96887658739E+03  0.00000000000E+00 0.  1.
         21   -1    0    0  501  502 -0.00000000000E+00 -0.00000000000E+00 -0.53532080674E+02  0.53532080674E+02  0.00000000000E+00 0.  1.
      99926    2    1    2    0    0  0.14210854715E-13  0.00000000000E+00  0.91534450672E+03  0.10224086681E+04  0.45548207271E+03 0.  0.
      99925    2    3    3    0    0  0.91786115112E+02  0.69481693086E+01  0.72512500380E+03  0.77684007199E+03  0.26306132050E+03 0.  0.
         25    1    4    4    0    0  0.86159171290E+02  0.23744994704E+01  0.43693846971E+03  0.46259245071E+03  0.12509000000E+03 0.  0.
         25    1    4    4    0    0  0.56269438217E+01  0.45736698382E+01  0.28818653409E+03  0.31424762129E+03  0.12509000000E+03 0.  0.
         25    1    3    3    0    0 -0.91786115112E+02 -0.69481693086E+01  0.19021950292E+03  0.24556859607E+03  0.12509000000E+03 0.  0.
<mgrwt>
<rscale>  2 0.45548207E+03</rscale>
<asrwt>0</asrwt>
<pdfrwt beam="1">  1       21 0.14248184E+00 0.45548207E+03</pdfrwt>
<pdfrwt beam="2">  1       21 0.78723655E-02 0.45548207E+03</pdfrwt>
<totfact> 0.38162523E+04</totfact>
</mgrwt>
</event>
<event>
 7    0  0.4725730E-002  0.4524259E+03  0.7546771E-02  0.1027001E+00
         21   -1    0    0  502  501  0.00000000000E+00  0.00000000000E+00  0.34891170469E+02  0.34891170469E+02  0.00000000000E+00 0. -1.
         21   -1    0    0  501  502 -0.00000000000E+00 -0.00000000000E+00 -0.14666261261E+04  0.14666261261E+04  0.00000000000E+00 0. -1.
      99926    2    1    2    0    0  0.00000000000E+00  0.00000000000E+00 -0.14317349556E+04  0.15015172966E+04  0.45242591517E+03 0.  0.
      99925    2    3    3    0    0  0.41332451059E+02 -0.10154081003E+03 -0.84927713621E+03  0.89577516734E+03  0.26291175085E+03 0.  0.
         25    1    4    4    0    0 -0.17163030462E+02 -0.33211585367E+02 -0.40734366631E+03  0.42775454363E+03  0.12509000000E+03 0.  0.
         25    1    4    4    0    0  0.58495481520E+02 -0.68329224661E+02 -0.44193346990E+03  0.46802062371E+03  0.12509000000E+03 0.  0.
         25    1    3    3    0    0 -0.41332451059E+02  0.10154081003E+03 -0.58245781941E+03  0.60574212921E+03  0.12509000000E+03 0.  0.
<mgrwt>
<rscale>  2 0.45242592E+03</rscale>
<asrwt>0</asrwt>
<pdfrwt beam="1">  1       21 0.51310556E-02 0.45242592E+03</pdfrwt>
<pdfrwt beam="2">  1       21 0.21568027E+00 0.45242592E+03</pdfrwt>
<totfact> 0.24222658E+04</totfact>
</mgrwt>
</event>
<event>
 7    0  0.4725730E-002  0.4572785E+03  0.7546771E-02  0.1025573E+00
         21   -1    0    0  502  501  0.00000000000E+00  0.00000000000E+00  0.48978238749E+02  0.48978238749E+02  0.00000000000E+00 0. -1.
         21   -1    0    0  501  502 -0.00000000000E+00 -0.00000000000E+00 -0.10673293232E+04  0.10673293232E+04  0.00000000000E+00 0. -1.
      99926    2    1    2    0    0  0.00000000000E+00  0.00000000000E+00 -0.10183510844E+04  0.11163075619E+04  0.45727851651E+03 0.  0.
      99925    2    3    3    0    0  0.34388645845E+02 -0.21325196154E+02 -0.90309766827E+03  0.94146992013E+03  0.26295031682E+03 0.  0.
         25    1    3    3    0    0 -0.34388645845E+02  0.21325196154E+02 -0.11525341616E+03  0.17483764180E+03  0.12509000000E+03 0.  0.
         25    1    4    4    0    0 -0.44924621744E+01  0.22487102254E+02 -0.46818907404E+03  0.48515396436E+03  0.12509000000E+03 0.  0.
         25    1    4    4    0    0  0.38881108020E+02 -0.43812298409E+02 -0.43490859423E+03  0.45631595577E+03  0.12509000000E+03 0.  0.
<mgrwt>
<rscale>  2 0.45727852E+03</rscale>
<asrwt>0</asrwt>
<pdfrwt beam="1">  1       21 0.72026822E-02 0.45727852E+03</pdfrwt>
<pdfrwt beam="2">  1       21 0.15696019E+00 0.45727852E+03</pdfrwt>
<totfact> 0.34313735E+04</totfact>
</mgrwt>
</event>
<event>
 7    0  0.4725730E-002  0.4557336E+03  0.7546771E-02  0.1026026E+00
         21   -1    0    0  502  501  0.00000000000E+00  0.00000000000E+00  0.38658637693E+03  0.38658637693E+03  0.00000000000E+00 0.  1.
         21   -1    0    0  501  502 -0.00000000000E+00 -0.00000000000E+00 -0.13431221814E+03  0.13431221814E+03  0.00000000000E+00 0.  1.
      99926    2    1    2    0    0 -0.14210854715E-13 -0.71054273576E-14  0.25227415879E+03  0.52089859507E+03  0.45573357914E+03 0.  0.
      99925    2    3    3    0    0  0.98189698822E+02  0.55701554414E+02  0.17530528794E+03  0.33565390474E+03  0.26303558631E+03 0.  0.
         25    1    4    4    0    0  0.65682425271E+02  0.51165183186E+02  0.58053522482E+02  0.16108934332E+03  0.12509000000E+03 0.  0.
         25    1    4    4    0    0  0.32507273550E+02  0.45363712284E+01  0.11725176546E+03  0.17456456141E+03  0.12509000000E+03 0.  0.
         25    1    3    3    0    0 -0.98189698822E+02 -0.55701554414E+02  0.76968870843E+02  0.18524469034E+03  0.12509000000E+03 0.  0.
<mgrwt>
<rscale>  2 0.45573358E+03</rscale>
<asrwt>0</asrwt>
<pdfrwt beam="1">  1       21 0.56850937E-01 0.45573358E+03</pdfrwt>
<pdfrwt beam="2">  1       21 0.19751797E-01 0.45573358E+03</pdfrwt>
<totfact> 0.63455964E+04</totfact>
</mgrwt>
</event>
<event>
 7    0  0.4725730E-002  0.4583396E+03  0.7546771E-02  0.1025264E+00
         21   -1    0    0  502  501  0.00000000000E+00  0.00000000000E+00  0.27770582251E+03  0.27770582251E+03  0.00000000000E+00 0. -1.
         21   -1    0    0  501  502 -0.00000000000E+00 -0.00000000000E+00 -0.18911663246E+03  0.18911663246E+03  0.00000000000E+00 0. -1.
      99926    2    1    2    0    0  0.00000000000E+00  0.14210854715E-13  0.88589190049E+02  0.46682245497E+03  0.45833956830E+03 0.  0.
      99925    2    3    3    0    0  0.89413950473E+02 -0.71638729278E+02  0.75474834847E+02  0.29668587312E+03  0.26305720773E+03 0.  0.
         25    1    3    3    0    0 -0.89413950473E+02  0.71638729278E+02  0.13114355203E+02  0.17013658185E+03  0.12509000000E+03 0.  0.
         25    1    4    4    0    0  0.83582794108E+02 -0.54865774452E+02  0.33982424214E+02  0.16370293196E+03  0.12509000000E+03 0.  0.
         25    1    4    4    0    0  0.58311563652E+01 -0.16772954826E+02  0.41492410633E+02  0.13298294116E+03  0.12509000000E+03 0.  0.
<mgrwt>
<rscale>  2 0.45833957E+03</rscale>
<asrwt>0</asrwt>
<pdfrwt beam="1">  1       21 0.40839092E-01 0.45833957E+03</pdfrwt>
<pdfrwt beam="2">  1       21 0.27811269E-01 0.45833957E+03</pdfrwt>
<totfact> 0.65908010E+04</totfact>
</mgrwt>
</event>
<event>
 7    0  0.4725730E-002  0.4553307E+03  0.7546771E-02  0.1026144E+00
         21   -1    0    0  502  501  0.00000000000E+00  0.00000000000E+00  0.22935411654E+03  0.22935411654E+03  0.00000000000E+00 0. -1.
         21   -1    0    0  501  502 -0.00000000000E+00 -0.00000000000E+00 -0.22598899154E+03  0.22598899154E+03  0.00000000000E+00 0. -1.
      99926    2    1    2    0    0 -0.35527136788E-14  0.00000000000E+00  0.33651249945E+01  0.45534310808E+03  0.45533067326E+03 0.  0.
      99925    2    3    3    0    0  0.16418649152E+02  0.62716847644E+01 -0.11004337522E+03  0.28558474425E+03  0.26294523318E+03 0.  0.
         25    1    3    3    0    0 -0.16418649152E+02 -0.62716847644E+01  0.11340850021E+03  0.16975836383E+03  0.12509000000E+03 0.  0.
         25    1    4    4    0    0 -0.29837973600E+02  0.13000092361E+02 -0.43445777601E+02  0.13636110428E+03  0.12509000000E+03 0.  0.
         25    1    4    4    0    0  0.46256622752E+02 -0.67284075970E+01 -0.66597597614E+02  0.14922363997E+03  0.12509000000E+03 0.  0.
<mgrwt>
<rscale>  2 0.45533067E+03</rscale>
<asrwt>0</asrwt>
<pdfrwt beam="1">  1       21 0.33728547E-01 0.45533067E+03</pdfrwt>
<pdfrwt beam="2">  1       21 0.33233675E-01 0.45533067E+03</pdfrwt>
<totfact> 0.68340173E+04</totfact>
</mgrwt>
</event>
<event>
 7    0  0.4725730E-002  0.4467658E+03  0.7546771E-02  0.1028691E+00
         21   -1    0    0  502  501  0.00000000000E+00  0.00000000000E+00  0.94787603388E+03  0.94787603388E+03  0.00000000000E+00 0.  1.
         21   -1    0    0  501  502 -0.00000000000E+00 -0.00000000000E+00 -0.52643919015E+02  0.52643919015E+02  0.00000000000E+00 0.  1.
      99926    2    1    2    0    0  0.00000000000E+00  0.00000000000E+00  0.89523211486E+03  0.10005199529E+04  0.44676575143E+03 0.  0.
      99925    2    3    3    0    0 -0.45609816503E+02  0.84558833792E+02  0.47230304748E+03  0.54913657275E+03  0.26315462211E+03 0.  0.
         25    1    4    4    0    0 -0.17055570255E+02  0.19148301312E+02  0.15605016824E+03  0.20163509870E+03  0.12509000000E+03 0.  0.
         25    1    3    3    0    0  0.45609816503E+02 -0.84558833792E+02  0.42292906738E+03  0.45138338014E+03  0.12509000000E+03 0.  0.
         25    1    4    4    0    0 -0.28554246248E+02  0.65410532480E+02  0.31625287924E+03  0.34750147405E+03  0.12509000000E+03 0.  0.
<mgrwt>
<rscale>  2 0.44676575E+03</rscale>
<asrwt>0</asrwt>
<pdfrwt beam="1">  1       21 0.13939352E+00 0.44676575E+03</pdfrwt>
<pdfrwt beam="2">  1       21 0.77417534E-02 0.44676575E+03</pdfrwt>
<totfact> 0.41768626E+04</totfact>
</mgrwt>
</event>
<event>
 7    0  0.4725730E-002  0.4591887E+03  0.7546771E-02  0.1025017E+00
         21   -1    0    0  502  501  0.00000000000E+00  0.00000000000E+00  0.56839421134E+03  0.56839421134E+03  0.00000000000E+00 0. -1.
         21   -1    0    0  501  502 -0.00000000000E+00 -0.00000000000E+00 -0.92741224390E+02  0.92741224390E+02  0.00000000000E+00 0. -1.
      99926    2    1    2    0    0 -0.71054273576E-14  0.00000000000E+00  0.47565298695E+03  0.66113543573E+03  0.45918874157E+03 0.  0.
      99925    2    3    3    0    0  0.41091075922E+02  0.70974800650E+02  0.41835513415E+03  0.50095912386E+03  0.26308387762E+03 0.  0.
         25    1    4    4    0    0  0.79222622470E+01  0.31209476673E+02  0.27474917467E+03  0.30359744853E+03  0.12509000000E+03 0.  0.
         25    1    3    3    0    0 -0.41091075922E+02 -0.70974800650E+02  0.57297852801E+02  0.16017631187E+03  0.12509000000E+03 0.  0.
         25    1    4    4    0    0  0.33168813675E+02  0.39765323977E+02  0.14360595948E+03  0.19736167533E+03  0.12509000000E+03 0.  0.
<mgrwt>
<rscale>  2 0.45918874E+03</rscale>
<asrwt>0</asrwt>
<pdfrwt beam="1">  1       21 0.83587383E-01 0.45918874E+03</pdfrwt>
<pdfrwt beam="2">  1       21 0.13638416E-01 0.45918874E+03</pdfrwt>
<totfact> 0.53282087E+04</totfact>
</mgrwt>
</event>
<event>
 7    0  0.4725730E-002  0.4350117E+03  0.7546771E-02  0.1032288E+00
         21   -1    0    0  502  501  0.00000000000E+00  0.00000000000E+00  0.33715391659E+03  0.33715391659E+03  0.00000000000E+00 0. -1.
         21   -1    0    0  501  502 -0.00000000000E+00 -0.00000000000E+00 -0.14031806543E+03  0.14031806543E+03  0.00000000000E+00 0. -1.
      99926    2    1    2    0    0  0.00000000000E+00  0.00000000000E+00  0.19683585116E+03  0.47747198202E+03  0.43501165652E+03 0.  0.
      99925    2    3    3    0    0 -0.16301259100E+02  0.76799802749E+02  0.70710477071E+02  0.28325803082E+03  0.26281400211E+03 0.  0.
         25    1    4    4    0    0  0.16350299447E+01  0.10278704924E+01  0.48831780506E+02  0.13429735935E+03  0.12509000000E+03 0.  0.
         25    1    3    3    0    0  0.16301259100E+02 -0.76799802749E+02  0.12612537409E+03  0.19421395120E+03  0.12509000000E+03 0.  0.
         25    1    4    4    0    0 -0.17936289044E+02  0.75771932257E+02  0.21878696565E+02  0.14896067147E+03  0.12509000000E+03 0.  0.
<mgrwt>
<rscale>  2 0.43501166E+03</rscale>
<asrwt>0</asrwt>
<pdfrwt beam="1">  1       21 0.49581458E-01 0.43501166E+03</pdfrwt>
<pdfrwt beam="2">  1       21 0.20635010E-01 0.43501166E+03</pdfrwt>
<totfact> 0.78641698E+04</totfact>
</mgrwt>
</event>
<event>
 7    0  0.4725730E-002  0.4501326E+03  0.7546771E-02  0.1027683E+00
         21   -1    0    0  502  501  0.00000000000E+00  0.00000000000E+00  0.27751621020E+03  0.27751621020E+03  0.00000000000E+00 0. -1.
         21   -1    0    0  501  502 -0.00000000000E+00 -0.00000000000E+00 -0.18252930007E+03  0.18252930007E+03  0.00000000000E+00 0. -1.
      99926    2    1    2    0    0  0.00000000000E+00  0.00000000000E+00  0.94986910129E+02  0.46004551026E+03  0.45013260093E+03 0.  0.
      99925    2    3    3    0    0 -0.47748816182E+02  0.93781932350E+02  0.87258826642E+02  0.29639273254E+03  0.26298203131E+03 0.  0.
         25    1    4    4    0    0  0.13596021572E+02  0.45947348057E+02  0.59140173267E+02  0.14642772548E+03  0.12509000000E+03 0.  0.
         25    1    3    3    0    0  0.47748816182E+02 -0.93781932350E+02  0.77280834873E+01  0.16365277772E+03  0.12509000000E+03 0.  0.
         25    1    4    4    0    0 -0.61344837754E+02  0.47834584293E+02  0.28118653375E+02  0.14996500706E+03  0.12509000000E+03 0.  0.
<mgrwt>
<rscale>  2 0.45013260E+03</rscale>
<asrwt>0</asrwt>
<pdfrwt beam="1">  1       21 0.40811208E-01 0.45013260E+03</pdfrwt>
<pdfrwt beam="2">  1       21 0.26842544E-01 0.45013260E+03</pdfrwt>
<totfact> 0.70881249E+04</totfact>
</mgrwt>
</event>
<event>
 7    0  0.4725730E-002  0.4451454E+03  0.7546771E-02  0.1029180E+00
         21   -1    0    0  502  501  0.00000000000E+00  0.00000000000E+00  0.18522578658E+03  0.18522578658E+03  0.00000000000E+00 0.  1.
         21   -1    0    0  501  502 -0.00000000000E+00 -0.00000000000E+00 -0.26744983942E+03  0.26744983942E+03  0.00000000000E+00 0.  1.
      99926    2    1    2    0    0  0.00000000000E+00  0.00000000000E+00 -0.82224052834E+02  0.45267562600E+03  0.44514540042E+03 0.  0.
      99925    2    3    3    0    0 -0.70598267200E+02  0.19193803980E+02 -0.12690925640E+03  0.30102869079E+03  0.26298250108E+03 0.  0.
         25    1    3    3    0    0  0.70598267200E+02 -0.19193803980E+02  0.44685203566E+02  0.15164693522E+03  0.12509000000E+03 0.  0.
         25    1    4    4    0    0 -0.28625803462E+02  0.48486362801E+02 -0.53664921885E+02  0.14730171738E+03  0.12509000000E+03 0.  0.
         25    1    4    4    0    0 -0.41972463738E+02 -0.29292558821E+02 -0.73244334515E+02  0.15372697341E+03  0.12509000000E+03 0.  0.
<mgrwt>
<rscale>  2 0.44514540E+03</rscale>
<asrwt>0</asrwt>
<pdfrwt beam="1">  1       21 0.27239086E-01 0.44514540E+03</pdfrwt>
<pdfrwt beam="2">  1       21 0.39330859E-01 0.44514540E+03</pdfrwt>
<totfact> 0.74393803E+04</totfact>
</mgrwt>
</event>
<event>
 7    0  0.4725730E-002  0.4369716E+03  0.7546771E-02  0.1031680E+00
         21   -1    0    0  502  501  0.00000000000E+00  0.00000000000E+00  0.63518758918E+02  0.63518758918E+02  0.00000000000E+00 0.  1.
         21   -1    0    0  501  502 -0.00000000000E+00 -0.00000000000E+00 -0.75152688313E+03  0.75152688313E+03  0.00000000000E+00 0.  1.
      99926    2    1    2    0    0  0.00000000000E+00  0.71054273576E-14 -0.68800812421E+03  0.81504564204E+03  0.43697164626E+03 0.  0.
      99925    2    3    3    0    0  0.68975351885E+02 -0.49737857355E+02 -0.36019297375E+03  0.45401692492E+03  0.26298466904E+03 0.  0.
         25    1    4    4    0    0  0.95887535617E+01  0.77382483456E+01 -0.18122449827E+03  0.22054852427E+03  0.12509000000E+03 0.  0.
         25    1    4    4    0    0  0.59386598324E+02 -0.57476105700E+02 -0.17896847548E+03  0.23346840065E+03  0.12509000000E+03 0.  0.
         25    1    3    3    0    0 -0.68975351885E+02  0.49737857355E+02 -0.32781515045E+03  0.36102871713E+03  0.12509000000E+03 0.  0.
<mgrwt>
<rscale>  2 0.43697165E+03</rscale>
<asrwt>0</asrwt>
<pdfrwt beam="1">  1       21 0.93409952E-02 0.43697165E+03</pdfrwt>
<pdfrwt beam="2">  1       21 0.11051864E+00 0.43697165E+03</pdfrwt>
<totfact> 0.54333989E+04</totfact>
</mgrwt>
</event>
<event>
 7    0  0.4725730E-002  0.4559142E+03  0.7546771E-02  0.1025973E+00
         21   -1    0    0  502  501  0.00000000000E+00  0.00000000000E+00  0.20696891525E+03  0.20696891525E+03  0.00000000000E+00 0. -1.
         21   -1    0    0  501  502 -0.00000000000E+00 -0.00000000000E+00 -0.25107362588E+03  0.25107362588E+03  0.00000000000E+00 0. -1.
      99926    2    1    2    0    0  0.00000000000E+00  0.00000000000E+00 -0.44104710628E+02  0.45804254112E+03  0.45591418489E+03 0.  0.
      99925    2    3    3    0    0 -0.79564651877E+02  0.12387946657E+02  0.53413684004E+02  0.28016241171E+03  0.26297140575E+03 0.  0.
         25    1    4    4    0    0 -0.61658170697E+02  0.35004055547E+01  0.63108026952E+02  0.15311470869E+03  0.12509000000E+03 0.  0.
         25    1    4    4    0    0 -0.17906481180E+02  0.88875411022E+01 -0.96943429488E+01  0.12704770301E+03  0.12509000000E+03 0.  0.
         25    1    3    3    0    0  0.79564651877E+02 -0.12387946657E+02 -0.97518394631E+02  0.17788012942E+03  0.12509000000E+03 0.  0.
<mgrwt>
<rscale>  2 0.45591418E+03</rscale>
<asrwt>0</asrwt>
<pdfrwt beam="1">  1       21 0.30436605E-01 0.45591418E+03</pdfrwt>
<pdfrwt beam="2">  1       21 0.36922592E-01 0.45591418E+03</pdfrwt>
<totfact> 0.67827394E+04</totfact>
</mgrwt>
</event>
<event>
 7    0  0.4725730E-002  0.4560843E+03  0.7546771E-02  0.1025923E+00
         21   -1    0    0  502  501  0.00000000000E+00  0.00000000000E+00  0.14142337790E+03  0.14142337790E+03  0.00000000000E+00 0.  1.
         21   -1    0    0  501  502 -0.00000000000E+00 -0.00000000000E+00 -0.36771308427E+03  0.36771308427E+03  0.00000000000E+00 0.  1.
      99926    2    1    2    0    0 -0.88817841970E-15  0.00000000000E+00 -0.22628970637E+03  0.50913646217E+03  0.45608431885E+03 0.  0.
      99925    2    3    3    0    0  0.72117291448E+01  0.11386193371E+03 -0.13541478366E+03  0.31698467669E+03  0.26291742552E+03 0.  0.
         25    1    3    3    0    0 -0.72117291448E+01 -0.11386193371E+03 -0.90874922715E+02  0.19215178548E+03  0.12509000000E+03 0.  0.
         25    1    4    4    0    0 -0.24132677076E+02  0.65077060928E+02 -0.37535581759E+02  0.14789806611E+03  0.12509000000E+03 0.  0.
         25    1    4    4    0    0  0.31344406220E+02  0.48784872780E+02 -0.97879201899E+02  0.16908661058E+03  0.12509000000E+03 0.  0.
<mgrwt>
<rscale>  2 0.45608432E+03</rscale>
<asrwt>0</asrwt>
<pdfrwt beam="1">  1       21 0.20797556E-01 0.45608432E+03</pdfrwt>
<pdfrwt beam="2">  1       21 0.54075454E-01 0.45608432E+03</pdfrwt>
<totfact> 0.64080205E+04</totfact>
</mgrwt>
</event>
<event>
 7    0  0.4725730E-002  0.4484641E+03  0.7546771E-02  0.1028181E+00
         21   -1    0    0  502  501  0.00000000000E+00  0.00000000000E+00  0.67837648295E+02  0.67837648295E+02  0.00000000000E+00 0. -1.
         21   -1    0    0  501  502 -0.00000000000E+00 -0.00000000000E+00 -0.74118157903E+03  0.74118157903E+03  0.00000000000E+00 0. -1.
      99926    2    1    2    0    0  0.00000000000E+00  0.00000000000E+00 -0.67334393073E+03  0.80901922732E+03  0.44846411353E+03 0.  0.
      99925    2    3    3    0    0  0.10647080872E+03  0.89218428901E+01 -0.41906995767E+03  0.50616877930E+03  0.26300488841E+03 0.  0.
         25    1    3    3    0    0 -0.10647080872E+03 -0.89218428901E+01 -0.25427397306E+03  0.30285044802E+03  0.12509000000E+03 0.  0.
         25    1    4    4    0    0  0.55911151778E+02  0.56442270384E+00 -0.28268639378E+03  0.31414245303E+03  0.12509000000E+03 0.  0.
         25    1    4    4    0    0  0.50559656942E+02  0.83574201862E+01 -0.13638356389E+03  0.19202632627E+03  0.12509000000E+03 0.  0.
<mgrwt>
<rscale>  2 0.44846411E+03</rscale>
<asrwt>0</asrwt>
<pdfrwt beam="1">  1       21 0.99761242E-02 0.44846411E+03</pdfrwt>
<pdfrwt beam="2">  1       21 0.10899730E+00 0.44846411E+03</pdfrwt>
<totfact> 0.49839108E+04</totfact>
</mgrwt>
</event>
<event>
 7    0  0.4725730E-002  0.4432339E+03  0.7546771E-02  0.1029759E+00
         21   -1    0    0  502  501  0.00000000000E+00  0.00000000000E+00  0.70039198835E+02  0.70039198835E+02  0.00000000000E+00 0. -1.
         21   -1    0    0  501  502 -0.00000000000E+00 -0.00000000000E+00 -0.70123699937E+03  0.70123699937E+03  0.00000000000E+00 0. -1.
      99926    2    1    2    0    0  0.00000000000E+00 -0.71054273576E-14 -0.63119780053E+03  0.77127619820E+03  0.44323392302E+03 0.  0.
      99925    2    3    3    0    0 -0.40872960035E+02 -0.43930718152E+02 -0.54449568276E+03  0.60767524409E+03  0.26304590261E+03 0.  0.
         25    1    4    4    0    0  0.11868022761E+02 -0.58210599072E+01 -0.30228914957E+03  0.32741559638E+03  0.12509000000E+03 0.  0.
         25    1    4    4    0    0 -0.52740982796E+02 -0.38109658245E+02 -0.24220653319E+03  0.28025964772E+03  0.12509000000E+03 0.  0.
         25    1    3    3    0    0  0.40872960035E+02  0.43930718152E+02 -0.86702117773E+02  0.16360095411E+03  0.12509000000E+03 0.  0.
<mgrwt>
<rscale>  2 0.44323392E+03</rscale>
<asrwt>0</asrwt>
<pdfrwt beam="1">  1       21 0.10299882E-01 0.44323392E+03</pdfrwt>
<pdfrwt beam="2">  1       21 0.10312309E+00 0.44323392E+03</pdfrwt>
<totfact> 0.54003459E+04</totfact>
</mgrwt>
</event>
<event>
 7    0  0.4725730E-002  0.4613220E+03  0.7546771E-02  0.1024399E+00
         21   -1    0    0  502  501  0.00000000000E+00  0.00000000000E+00  0.35713320498E+03  0.35713320498E+03  0.00000000000E+00 0.  1.
         21   -1    0    0  501  502 -0.00000000000E+00 -0.00000000000E+00 -0.14897659128E+03  0.14897659128E+03  0.00000000000E+00 0.  1.
      99926    2    1    2    0    0  0.00000000000E+00  0.00000000000E+00  0.20815661371E+03  0.50610979626E+03  0.46132195920E+03 0.  0.
      99925    2    3    3    0    0  0.10094415714E+03 -0.26279198118E+02  0.67444452832E+02  0.29087099996E+03  0.26301495259E+03 0.  0.
         25    1    3    3    0    0 -0.10094415714E+03  0.26279198118E+02  0.14071216087E+03  0.21523879630E+03  0.12509000000E+03 0.  0.
         25    1    4    4    0    0  0.54623922340E+02  0.27174872632E+02  0.30041794031E+02  0.14238070123E+03  0.12509000000E+03 0.  0.
         25    1    4    4    0    0  0.46320234803E+02 -0.53454070750E+02  0.37402658801E+02  0.14849029873E+03  0.12509000000E+03 0.  0.
<mgrwt>
<rscale>  2 0.46132196E+03</rscale>
<asrwt>0</asrwt>
<pdfrwt beam="1">  1       21 0.52519589E-01 0.46132196E+03</pdfrwt>
<pdfrwt beam="2">  1       21 0.21908322E-01 0.46132196E+03</pdfrwt>
<totfact> 0.61689245E+04</totfact>
</mgrwt>
</event>
<event>
 7    0  0.4725730E-002  0.4590889E+03  0.7546771E-02  0.1025046E+00
         21   -1    0    0  502  501  0.00000000000E+00  0.00000000000E+00  0.90918546522E+02  0.90918546522E+02  0.00000000000E+00 0. -1.
         21   -1    0    0  501  502 -0.00000000000E+00 -0.00000000000E+00 -0.57953695082E+03  0.57953695082E+03  0.00000000000E+00 0. -1.
      99926    2    1    2    0    0  0.71054273576E-14  0.71054273576E-14 -0.48861840430E+03  0.67045549734E+03  0.45908891176E+03 0.  0.
      99925    2    3    3    0    0  0.61524072304E+02  0.51317155785E+02 -0.18168343979E+03  0.32946393955E+03  0.26290483681E+03 0.  0.
         25    1    4    4    0    0  0.23866513992E+02 -0.23103642833E-01 -0.12389583440E+03  0.17767187990E+03  0.12509000000E+03 0.  0.
         25    1    3    3    0    0 -0.61524072304E+02 -0.51317155785E+02 -0.30693496451E+03  0.34099155780E+03  0.12509000000E+03 0.  0.
         25    1    4    4    0    0  0.37657558312E+02  0.51340259428E+02 -0.57787605390E+02  0.15179205965E+03  0.12509000000E+03 0.  0.
<mgrwt>
<rscale>  2 0.45908891E+03</rscale>
<asrwt>0</asrwt>
<pdfrwt beam="1">  1       21 0.13370375E-01 0.45908891E+03</pdfrwt>
<pdfrwt beam="2">  1       21 0.85226022E-01 0.45908891E+03</pdfrwt>
<totfact> 0.52813599E+04</totfact>
</mgrwt>
</event>
<event>
 7    0  0.4725730E-002  0.4499291E+03  0.7546771E-02  0.1027743E+00
         21   -1    0    0  502  501  0.00000000000E+00  0.00000000000E+00  0.17027577867E+03  0.17027577867E+03  0.00000000000E+00 0. -1.
         21   -1    0    0  501  502 -0.00000000000E+00 -0.00000000000E+00 -0.29721807904E+03  0.29721807904E+03  0.00000000000E+00 0. -1.
      99926    2    1    2    0    0  0.00000000000E+00  0.71054273576E-14 -0.12694230037E+03  0.46749385772E+03  0.44992906038E+03 0.  0.
      99925    2    3    3    0    0 -0.69595246909E+02 -0.44888094721E+02 -0.75504140453E+01  0.27576391728E+03  0.26292639632E+03 0.  0.
         25    1    3    3    0    0  0.69595246909E+02  0.44888094721E+02 -0.11939188633E+03  0.19172994044E+03  0.12509000000E+03 0.  0.
         25    1    4    4    0    0 -0.41713516129E+02 -0.39673616718E+02  0.32322739567E+02  0.14144356077E+03  0.12509000000E+03 0.  0.
         25    1    4    4    0    0 -0.27881730780E+02 -0.52144780029E+01 -0.39873153612E+02  0.13432035650E+03  0.12509000000E+03 0.  0.
<mgrwt>
<rscale>  2 0.44992906E+03</rscale>
<asrwt>0</asrwt>
<pdfrwt beam="1">  1       21 0.25040556E-01 0.44992906E+03</pdfrwt>
<pdfrwt beam="2">  1       21 0.43708541E-01 0.44992906E+03</pdfrwt>
<totfact> 0.70412927E+04</totfact>
</mgrwt>
</event>
<event>
 7    0  0.4725730E-002  0.4558366E+03  0.7546771E-02  0.1025996E+00
         21   -1    0    0  502  501  0.00000000000E+00  0.00000000000E+00  0.66219126353E+02  0.66219126353E+02  0.00000000000E+00 0. -1.
         21   -1    0    0  501  502 -0.00000000000E+00 -0.00000000000E+00 -0.78446750122E+03  0.78446750122E+03  0.00000000000E+00 0. -1.
      99926    2    1    2    0    0 -0.14210854715E-13 -0.17763568394E-14 -0.71824837487E+03  0.85068662757E+03  0.45583660486E+03 0.  0.
      99925    2    3    3    0    0 -0.95811358143E+02  0.11709560425E+02 -0.56420006373E+03  0.63001646552E+03  0.26321494024E+03 0.  0.
         25    1    4    4    0    0 -0.37343335804E+02  0.29094360124E+02 -0.20472617563E+03  0.24454308742E+03  0.12509000000E+03 0.  0.
         25    1    3    3    0    0  0.95811358143E+02 -0.11709560425E+02 -0.15404831114E+03  0.22067016205E+03  0.12509000000E+03 0.  0.
         25    1    4    4    0    0 -0.58468022339E+02 -0.17384799699E+02 -0.35947388810E+03  0.38547337810E+03  0.12509000000E+03 0.  0.
<mgrwt>
<rscale>  2 0.45583660E+03</rscale>
<asrwt>0</asrwt>
<pdfrwt beam="1">  1       21 0.97381069E-02 0.45583660E+03</pdfrwt>
<pdfrwt beam="2">  1       21 0.11536287E+00 0.45583660E+03</pdfrwt>
<totfact> 0.45111889E+04</totfact>
</mgrwt>
</event>
<event>
 7    0  0.4725730E-002  0.4537673E+03  0.7546771E-02  0.1026605E+00
         21   -1    0    0  502  501  0.00000000000E+00  0.00000000000E+00  0.13280492863E+03  0.13280492863E+03  0.00000000000E+00 0. -1.
         21   -1    0    0  501  502 -0.00000000000E+00 -0.00000000000E+00 -0.38760744708E+03  0.38760744708E+03  0.00000000000E+00 0. -1.
      99926    2    1    2    0    0  0.00000000000E+00  0.00000000000E+00 -0.25480251845E+03  0.52041237571E+03  0.45376725023E+03 0.  0.
      99925    2    3    3    0    0 -0.33871613170E+02  0.51331782603E+02 -0.53298992021E+02  0.27539519805E+03  0.26309597959E+03 0.  0.
         25    1    4    4    0    0  0.11411281780E+02 -0.33498435481E+01 -0.34748064111E+02  0.13037014560E+03  0.12509000000E+03 0.  0.
         25    1    3    3    0    0  0.33871613170E+02 -0.51331782603E+02 -0.20150352642E+03  0.24501717765E+03  0.12509000000E+03 0.  0.
         25    1    4    4    0    0 -0.45282894950E+02  0.54681626151E+02 -0.18550927910E+02  0.14502505246E+03  0.12509000000E+03 0.  0.
<mgrwt>
<rscale>  2 0.45376725E+03</rscale>
<asrwt>0</asrwt>
<pdfrwt beam="1">  1       21 0.19530137E-01 0.45376725E+03</pdfrwt>
<pdfrwt beam="2">  1       21 0.57001094E-01 0.45376725E+03</pdfrwt>
<totfact> 0.64487554E+04</totfact>
</mgrwt>
</event>
<event>
 7    0  0.4725730E-002  0.4551027E+03  0.7546771E-02  0.1026211E+00
         21   -1    0    0  502  501  0.00000000000E+00  0.00000000000E+00  0.18344401228E+03  0.18344401228E+03  0.00000000000E+00 0.  1.
         21   -1    0    0  501  502 -0.00000000000E+00 -0.00000000000E+00 -0.28226385103E+03  0.28226385103E+03  0.00000000000E+00 0.  1.
      99926    2    1    2    0    0  0.26645352591E-14  0.00000000000E+00 -0.98819838757E+02  0.46570786331E+03  0.45510268447E+03 0.  0.
      99925    2    3    3    0    0  0.47475451083E+01  0.11271502882E+03 -0.52031456460E+02  0.29088258560E+03  0.26301746945E+03 0.  0.
         25    1    4    4    0    0  0.35946447063E+02  0.72655490856E+02 -0.44974829003E+02  0.15569589189E+03  0.12509000000E+03 0.  0.
         25    1    4    4    0    0 -0.31198901955E+02  0.40059537967E+02 -0.70566274574E+01  0.13518669371E+03  0.12509000000E+03 0.  0.
         25    1    3    3    0    0 -0.47475451083E+01 -0.11271502882E+03 -0.46788382297E+02  0.17482527771E+03  0.12509000000E+03 0.  0.
<mgrwt>
<rscale>  2 0.45510268E+03</rscale>
<asrwt>0</asrwt>
<pdfrwt beam="1">  1       21 0.26977061E-01 0.45510268E+03</pdfrwt>
<pdfrwt beam="2">  1       21 0.41509389E-01 0.45510268E+03</pdfrwt>
<totfact> 0.67701655E+04</totfact>
</mgrwt>
</event>
<event>
 7    0  0.4725730E-002  0.4211251E+03  0.7546771E-02  0.1036701E+00
         21   -1    0    0  502  501  0.00000000000E+00  0.00000000000E+00  0.32469375390E+03  0.32469375390E+03  0.00000000000E+00 0.  1.
         21   -1    0    0  501  502 -0.00000000000E+00 -0.00000000000E+00 -0.13654896776E+03  0.13654896776E+03  0.00000000000E+00 0.  1.
      99926    2    1    2    0    0  0.35527136788E-14  0.71054273576E-14  0.18814478614E+03  0.46124272165E+03  0.42112514497E+03 0.  0.
      99925    2    3    3    0    0 -0.16295721996E+02 -0.36340418589E+02  0.49893390354E+02  0.27059348060E+03  0.26295494816E+03 0.  0.
         25    1    4    4    0    0  0.30014310478E+01 -0.32394689818E+02  0.62061367797E+02  0.14337902911E+03  0.12509000000E+03 0.  0.
         25    1    4    4    0    0 -0.19297153044E+02 -0.39457287710E+01 -0.12167977443E+02  0.12721445148E+03  0.12509000000E+03 0.  0.
         25    1    3    3    0    0  0.16295721996E+02  0.36340418589E+02  0.13825139579E+03  0.19064924106E+03  0.12509000000E+03 0.  0.
<mgrwt>
<rscale>  2 0.42112514E+03</rscale>
<asrwt>0</asrwt>
<pdfrwt beam="1">  1       21 0.47749081E-01 0.42112514E+03</pdfrwt>
<pdfrwt beam="2">  1       21 0.20080731E-01 0.42112514E+03</pdfrwt>
<totfact> 0.89951466E+04</totfact>
</mgrwt>
</event>
<event>
 7    0  0.4725730E-002  0.4424810E+03  0.7546771E-02  0.1029988E+00
         21   -1    0    0  502  501  0.00000000000E+00  0.00000000000E+00  0.22532059053E+03  0.22532059053E+03  0.00000000000E+00 0. -1.
         21   -1    0    0  501  502 -0.00000000000E+00 -0.00000000000E+00 -0.21723425058E+03  0.21723425058E+03  0.00000000000E+00 0. -1.
      99926    2    1    2    0    0  0.00000000000E+00  0.00000000000E+00  0.80863399501E+01  0.44255484111E+03  0.44248095835E+03 0.  0.
      99925    2    3    3    0    0 -0.37914110739E+02 -0.35284295030E+02 -0.81608796626E+02  0.28015044803E+03  0.26294831540E+03 0.  0.
         25    1    4    4    0    0 -0.38654973101E+02 -0.23913460650E+02 -0.78471080837E+02  0.15450333062E+03  0.12509000000E+03 0.  0.
         25    1    4    4    0    0  0.74086236250E+00 -0.11370834380E+02 -0.31377157897E+01  0.12564711740E+03  0.12509000000E+03 0.  0.
         25    1    3    3    0    0  0.37914110739E+02  0.35284295030E+02  0.89695136576E+02  0.16240439309E+03  0.12509000000E+03 0.  0.
<mgrwt>
<rscale>  2 0.44248096E+03</rscale>
<asrwt>0</asrwt>
<pdfrwt beam="1">  1       21 0.33135381E-01 0.44248096E+03</pdfrwt>
<pdfrwt beam="2">  1       21 0.31946213E-01 0.44248096E+03</pdfrwt>
<totfact> 0.76862866E+04</totfact>
</mgrwt>
</event>
<event>
 7    0  0.4725730E-002  0.4499705E+03  0.7546771E-02  0.1027731E+00
         21   -1    0    0  502  501  0.00000000000E+00  0.00000000000E+00  0.30044071978E+03  0.30044071978E+03  0.00000000000E+00 0.  1.
         21   -1    0    0  501  502 -0.00000000000E+00 -0.00000000000E+00 -0.16848034494E+03  0.16848034494E+03  0.00000000000E+00 0.  1.
      99926    2    1    2    0    0 -0.35527136788E-14  0.00000000000E+00  0.13196037485E+03  0.46892106472E+03  0.44997047060E+03 0.  0.
      99925    2    3    3    0    0 -0.19125949029E+02  0.10663157975E+03  0.86303480392E+02  0.29725815132E+03  0.26301715167E+03 0.  0.
         25    1    3    3    0    0  0.19125949029E+02 -0.10663157975E+03  0.45656894455E+02  0.17166291340E+03  0.12509000000E+03 0.  0.
         25    1    4    4    0    0 -0.42796893416E+02  0.31264406427E+02  0.51378956831E+02  0.14524580028E+03  0.12509000000E+03 0.  0.
         25    1    4    4    0    0  0.23670944388E+02  0.75367173320E+02  0.34924523561E+02  0.15201235104E+03  0.12509000000E+03 0.  0.
<mgrwt>
<rscale>  2 0.44997047E+03</rscale>
<asrwt>0</asrwt>
<pdfrwt beam="1">  1       21 0.44182459E-01 0.44997047E+03</pdfrwt>
<pdfrwt beam="2">  1       21 0.24776521E-01 0.44997047E+03</pdfrwt>
<totfact> 0.70278896E+04</totfact>
</mgrwt>
</event>
<event>
 7    0  0.4725730E-002  0.4571537E+03  0.7546771E-02  0.1025610E+00
         21   -1    0    0  502  501  0.00000000000E+00  0.00000000000E+00  0.10083293325E+03  0.10083293325E+03  0.00000000000E+00 0.  1.
         21   -1    0    0  501  502 -0.00000000000E+00 -0.00000000000E+00 -0.51815792003E+03  0.51815792003E+03  0.00000000000E+00 0.  1.
      99926    2    1    2    0    0  0.00000000000E+00  0.71054273576E-14 -0.41732498678E+03  0.61899085327E+03  0.45715372890E+03 0.  0.
      99925    2    3    3    0    0  0.34386896305E+02 -0.39166821113E+02 -0.40116978740E+03  0.48251742333E+03  0.26300069768E+03 0.  0.
         25    1    3    3    0    0 -0.34386896305E+02  0.39166821113E+02 -0.16155199375E+02  0.13647342994E+03  0.12509000000E+03 0.  0.
         25    1    4    4    0    0 -0.16197592971E+02  0.33987339775E+01 -0.17520668311E+03  0.21591387940E+03  0.12509000000E+03 0.  0.
         25    1    4    4    0    0  0.50584489276E+02 -0.42565555091E+02 -0.22596310429E+03  0.26660354393E+03  0.12509000000E+03 0.  0.
<mgrwt>
<rscale>  2 0.45715373E+03</rscale>
<asrwt>0</asrwt>
<pdfrwt beam="1">  1       21 0.14828372E-01 0.45715373E+03</pdfrwt>
<pdfrwt beam="2">  1       21 0.76199696E-01 0.45715373E+03</pdfrwt>
<totfact> 0.56556249E+04</totfact>
</mgrwt>
</event>
<event>
 7    0  0.4725730E-002  0.4475036E+03  0.7546771E-02  0.1028469E+00
         21   -1    0    0  502  501  0.00000000000E+00  0.00000000000E+00  0.37279848516E+03  0.37279848516E+03  0.00000000000E+00 0. -1.
         21   -1    0    0  501  502 -0.00000000000E+00 -0.00000000000E+00 -0.13429470315E+03  0.13429470315E+03  0.00000000000E+00 0. -1.
      99926    2    1    2    0    0 -0.35527136788E-14  0.14210854715E-13  0.23850378200E+03  0.50709318831E+03  0.44750357272E+03 0.  0.
      99925    2    3    3    0    0 -0.17693886524E+02  0.98455250039E+02  0.11131107613E+03  0.30256445584E+03  0.26296118418E+03 0.  0.
         25    1    4    4    0    0  0.31534661145E+02  0.44055393738E+02  0.52790906671E+02  0.14618379013E+03  0.12509000000E+03 0.  0.
         25    1    4    4    0    0 -0.49228547669E+02  0.54399856301E+02  0.58520169462E+02  0.15638066570E+03  0.12509000000E+03 0.  0.
         25    1    3    3    0    0  0.17693886524E+02 -0.98455250039E+02  0.12719270587E+03  0.20452873247E+03  0.12509000000E+03 0.  0.
<mgrwt>
<rscale>  2 0.44750357E+03</rscale>
<asrwt>0</asrwt>
<pdfrwt beam="1">  1       21 0.54823306E-01 0.44750357E+03</pdfrwt>
<pdfrwt beam="2">  1       21 0.19749221E-01 0.44750357E+03</pdfrwt>
<totfact> 0.68776591E+04</totfact>
</mgrwt>
</event>
<event>
 7    0  0.4725730E-002  0.4568207E+03  0.7546771E-02  0.1025707E+00
         21   -1    0    0  502  501  0.00000000000E+00  0.00000000000E+00  0.10531735867E+04  0.10531735867E+04  0.00000000000E+00 0. -1.
         21   -1    0    0  501  502 -0.00000000000E+00 -0.00000000000E+00 -0.49537211517E+02  0.49537211517E+02  0.00000000000E+00 0. -1.
      99926    2    1    2    0    0  0.35527136788E-14 -0.14210854715E-13  0.10036363752E+04  0.11027107982E+04  0.45682067697E+03 0.  0.
      99925    2    3    3    0    0 -0.23744120686E+02  0.10005459644E+03  0.50744910962E+03  0.58076825718E+03  0.26308261850E+03 0.  0.
         25    1    3    3    0    0  0.23744120686E+02 -0.10005459644E+03  0.49618726553E+03  0.52194254101E+03  0.12509000000E+03 0.  0.
         25    1    4    4    0    0 -0.47936079415E+02  0.49782329018E+02  0.29822076531E+03  0.33069514807E+03  0.12509000000E+03 0.  0.
         25    1    4    4    0    0  0.24191958729E+02  0.50272267427E+02  0.20922834431E+03  0.25007310911E+03  0.12509000000E+03 0.  0.
<mgrwt>
<rscale>  2 0.45682068E+03</rscale>
<asrwt>0</asrwt>
<pdfrwt beam="1">  1       21 0.15487845E+00 0.45682068E+03</pdfrwt>
<pdfrwt beam="2">  1       21 0.72848847E-02 0.45682068E+03</pdfrwt>
<totfact> 0.34902004E+04</totfact>
</mgrwt>
</event>
<event>
 7    0  0.4725730E-002  0.4595199E+03  0.7546771E-02  0.1024921E+00
         21   -1    0    0  502  501  0.00000000000E+00  0.00000000000E+00  0.31922158489E+02  0.31922158489E+02  0.00000000000E+00 0.  1.
         21   -1    0    0  501  502 -0.00000000000E+00 -0.00000000000E+00 -0.16536991160E+04  0.16536991160E+04  0.00000000000E+00 0.  1.
      99926    2    1    2    0    0  0.35527136788E-14  0.00000000000E+00 -0.16217769575E+04  0.16856212745E+04  0.45951994636E+03 0.  0.
      99925    2    3    3    0    0 -0.58730463082E+01  0.57676758905E+02 -0.13907326333E+04  0.14165672111E+04  0.26299107392E+03 0.  0.
         25    1    4    4    0    0 -0.23283715449E+02  0.47730065096E+02 -0.56138023160E+03  0.57759463558E+03  0.12509000000E+03 0.  0.
         25    1    3    3    0    0  0.58730463082E+01 -0.57676758905E+02 -0.23104432418E+03  0.26905406339E+03  0.12509000000E+03 0.  0.
         25    1    4    4    0    0  0.17410669141E+02  0.99466938094E+01 -0.82935240174E+03  0.83897257552E+03  0.12509000000E+03 0.  0.
<mgrwt>
<rscale>  2 0.45951995E+03</rscale>
<asrwt>0</asrwt>
<pdfrwt beam="1">  1       21 0.46944354E-02 0.45951995E+03</pdfrwt>
<pdfrwt beam="2">  1       21 0.24319103E+00 0.45951995E+03</pdfrwt>
<totfact> 0.18890721E+04</totfact>
</mgrwt>
</event>
<event>
 7    0  0.4725730E-002  0.4551552E+03  0.7546771E-02  0.1026196E+00
         21   -1    0    0  502  501  0.00000000000E+00  0.00000000000E+00  0.13300140322E+04  0.13300140322E+04  0.00000000000E+00 0.  1.
         21   -1    0    0  501  502 -0.00000000000E+00 -0.00000000000E+00 -0.38940607394E+02  0.38940607394E+02  0.00000000000E+00 0.  1.
      99926    2    1    2    0    0  0.00000000000E+00  0.00000000000E+00  0.12910734248E+04  0.13689546396E+04  0.45515515709E+03 0.  0.
      99925    2    3    3    0    0 -0.81846816734E+02 -0.62095249636E+02  0.95618408540E+03  0.99699617527E+03  0.26298031654E+03 0.  0.
         25    1    4    4    0    0 -0.20058530510E+02 -0.53976436668E+01  0.53096013114E+03  0.54589160844E+03  0.12509000000E+03 0.  0.
         25    1    4    4    0    0 -0.61788286224E+02 -0.56697605969E+02  0.42522395426E+03  0.45110456683E+03  0.12509000000E+03 0.  0.
         25    1    3    3    0    0  0.81846816734E+02  0.62095249636E+02  0.33488933942E+03  0.37195846434E+03  0.12509000000E+03 0.  0.
<mgrwt>
<rscale>  2 0.45515516E+03</rscale>
<asrwt>0</asrwt>
<pdfrwt beam="1">  1       21 0.19559027E+00 0.45515516E+03</pdfrwt>
<pdfrwt beam="2">  1       21 0.57265608E-02 0.45515516E+03</pdfrwt>
<totfact> 0.27138453E+04</totfact>
</mgrwt>
</event>
<event>
 7    0  0.4725730E-002  0.4572535E+03  0.7546771E-02  0.1025581E+00
         21   -1    0    0  502  501  0.00000000000E+00  0.00000000000E+00  0.45053961526E+03  0.45053961526E+03  0.00000000000E+00 0. -1.
         21   -1    0    0  501  502 -0.00000000000E+00 -0.00000000000E+00 -0.11601687073E+03  0.11601687073E+03  0.00000000000E+00 0. -1.
      99926    2    1    2    0    0 -0.71054273576E-14  0.14210854715E-13  0.33452274453E+03  0.56655648599E+03  0.45725352400E+03 0.  0.
      99925    2    3    3    0    0 -0.37955071276E+02  0.74804961127E+02  0.30803429446E+03  0.41363325122E+03  0.26300374581E+03 0.  0.
         25    1    4    4    0    0 -0.69781989396E+01  0.54402160801E+02  0.20967346259E+03  0.25023740603E+03  0.12509000000E+03 0.  0.
         25    1    3    3    0    0  0.37955071276E+02 -0.74804961127E+02  0.26488450067E+02  0.15292323477E+03  0.12509000000E+03 0.  0.
         25    1    4    4    0    0 -0.30976872336E+02  0.20402800325E+02  0.98360831871E+02  0.16339584520E+03  0.12509000000E+03 0.  0.
<mgrwt>
<rscale>  2 0.45725352E+03</rscale>
<asrwt>0</asrwt>
<pdfrwt beam="1">  1       21 0.66255825E-01 0.45725352E+03</pdfrwt>
<pdfrwt beam="2">  1       21 0.17061305E-01 0.45725352E+03</pdfrwt>
<totfact> 0.59714149E+04</totfact>
</mgrwt>
</event>
<event>
 7    0  0.4725730E-002  0.4490439E+03  0.7546771E-02  0.1028008E+00
         21   -1    0    0  502  501  0.00000000000E+00  0.00000000000E+00  0.19672691060E+03  0.19672691060E+03  0.00000000000E+00 0. -1.
         21   -1    0    0  501  502 -0.00000000000E+00 -0.00000000000E+00 -0.25624404652E+03  0.25624404652E+03  0.00000000000E+00 0. -1.
      99926    2    1    2    0    0  0.14210854715E-13  0.71054273576E-14 -0.59517135925E+02  0.45297095712E+03  0.44904387150E+03 0.  0.
      99925    2    3    3    0    0  0.89965600929E+02  0.53131625218E+02 -0.63061723228E+02  0.28994687563E+03  0.26301260578E+03 0.  0.
         25    1    4    4    0    0  0.11020253932E+02  0.46059842380E+02 -0.16825914019E+02  0.13480940086E+03  0.12509000000E+03 0.  0.
         25    1    4    4    0    0  0.78945346997E+02  0.70717828388E+01 -0.46235809209E+02  0.15513747477E+03  0.12509000000E+03 0.  0.
         25    1    3    3    0    0 -0.89965600929E+02 -0.53131625218E+02  0.35445873024E+01  0.16302408150E+03  0.12509000000E+03 0.  0.
<mgrwt>
<rscale>  2 0.44904387E+03</rscale>
<asrwt>0</asrwt>
<pdfrwt beam="1">  1       21 0.28930428E-01 0.44904387E+03</pdfrwt>
<pdfrwt beam="2">  1       21 0.37682948E-01 0.44904387E+03</pdfrwt>
<totfact> 0.72058232E+04</totfact>
</mgrwt>
</event>
<event>
 7    0  0.4725730E-002  0.4577996E+03  0.7546771E-02  0.1025421E+00
         21   -1    0    0  502  501  0.00000000000E+00  0.00000000000E+00  0.30579258217E+03  0.30579258217E+03  0.00000000000E+00 0.  1.
         21   -1    0    0  501  502 -0.00000000000E+00 -0.00000000000E+00 -0.17134202966E+03  0.17134202966E+03  0.00000000000E+00 0.  1.
      99926    2    1    2    0    0  0.00000000000E+00  0.00000000000E+00  0.13445055251E+03  0.47713461183E+03  0.45779961417E+03 0.  0.
      99925    2    3    3    0    0  0.10111341793E+03  0.55598050032E+02  0.93820793258E+02  0.30216789531E+03  0.26303617480E+03 0.  0.
         25    1    4    4    0    0  0.22406455455E+02  0.51456314872E+02  0.64157952539E+02  0.15137223180E+03  0.12509000000E+03 0.  0.
         25    1    4    4    0    0  0.78706962479E+02  0.41417351599E+01  0.29662840719E+02  0.15079566351E+03  0.12509000000E+03 0.  0.
         25    1    3    3    0    0 -0.10111341793E+03 -0.55598050032E+02  0.40629759251E+02  0.17496671652E+03  0.12509000000E+03 0.  0.
<mgrwt>
<rscale>  2 0.45779961E+03</rscale>
<asrwt>0</asrwt>
<pdfrwt beam="1">  1       21 0.44969498E-01 0.45779961E+03</pdfrwt>
<pdfrwt beam="2">  1       21 0.25197357E-01 0.45779961E+03</pdfrwt>
<totfact> 0.65443149E+04</totfact>
</mgrwt>
</event>
<event>
 7    0  0.4725730E-002  0.4541225E+03  0.7546771E-02  0.1026500E+00
         21   -1    0    0  502  501  0.00000000000E+00  0.00000000000E+00  0.45608952244E+02  0.45608952244E+02  0.00000000000E+00 0.  1.
         21   -1    0    0  501  502 -0.00000000000E+00 -0.00000000000E+00 -0.11304098766E+04  0.11304098766E+04  0.00000000000E+00 0.  1.
      99926    2    1    2    0    0  0.00000000000E+00  0.44408920985E-15 -0.10848009244E+04  0.11760188289E+04  0.45412249484E+03 0.  0.
      99925    2    3    3    0    0  0.25807225314E+02 -0.39205243682E+01 -0.96618320313E+03  0.10016655803E+04  0.26294974687E+03 0.  0.
         25    1    4    4    0    0 -0.19562396188E+02 -0.24335122277E+02 -0.50897530398E+03  0.52505071534E+03  0.12509000000E+03 0.  0.
         25    1    3    3    0    0 -0.25807225314E+02  0.39205243682E+01 -0.11861772127E+03  0.17435324857E+03  0.12509000000E+03 0.  0.
         25    1    4    4    0    0  0.45369621502E+02  0.20414597908E+02 -0.45720789915E+03  0.47661486497E+03  0.12509000000E+03 0.  0.
<mgrwt>
<rscale>  2 0.45412249E+03</rscale>
<asrwt>0</asrwt>
<pdfrwt beam="1">  1       21 0.67071995E-02 0.45412249E+03</pdfrwt>
<pdfrwt beam="2">  1       21 0.16623673E+00 0.45412249E+03</pdfrwt>
<totfact> 0.33151518E+04</totfact>
</mgrwt>
</event>
<event>
 7    0  0.4725730E-002  0.4543433E+03  0.7546771E-02  0.1026435E+00
         21   -1    0    0  502  501  0.00000000000E+00  0.00000000000E+00  0.88796225157E+03  0.88796225157E+03  0.00000000000E+00 0. -1.
         21   -1    0    0  501  502 -0.00000000000E+00 -0.00000000000E+00 -0.58118424139E+02  0.58118424139E+02  0.00000000000E+00 0. -1.
      99926    2    1    2    0    0  0.53290705182E-14  0.00000000000E+00  0.82984382743E+03  0.94608067571E+03  0.45434333606E+03 0.  0.
      99925    2    3    3    0    0  0.95009934503E+01 -0.83800881191E+02  0.36747169063E+03  0.45971830304E+03  0.26304489762E+03 0.  0.
         25    1    4    4    0    0 -0.24398491976E+02 -0.24605506815E+02  0.21412872195E+03  0.25039835271E+03  0.12509000000E+03 0.  0.
         25    1    4    4    0    0  0.33899485427E+02 -0.59195374376E+02  0.15334296868E+03  0.20931995033E+03  0.12509000000E+03 0.  0.
         25    1    3    3    0    0 -0.95009934503E+01  0.83800881191E+02  0.46237213680E+03  0.48636237267E+03  0.12509000000E+03 0.  0.
<mgrwt>
<rscale>  2 0.45434334E+03</rscale>
<asrwt>0</asrwt>
<pdfrwt beam="1">  1       21 0.13058268E+00 0.45434334E+03</pdfrwt>
<pdfrwt beam="2">  1       21 0.85468276E-02 0.45434334E+03</pdfrwt>
<totfact> 0.41512681E+04</totfact>
</mgrwt>
</event>
<event>
 7    0  0.4725730E-002  0.4563058E+03  0.7546771E-02  0.1025858E+00
         21   -1    0    0  502  501  0.00000000000E+00  0.00000000000E+00  0.87861228060E+02  0.87861228060E+02  0.00000000000E+00 0.  1.
         21   -1    0    0  501  502 -0.00000000000E+00 -0.00000000000E+00 -0.59245411744E+03  0.59245411744E+03  0.00000000000E+00 0.  1.
      99926    2    1    2    0    0  0.00000000000E+00 -0.35527136788E-14 -0.50459288938E+03  0.68031534550E+03  0.45630580241E+03 0.  0.
      99925    2    3    3    0    0 -0.97523356231E+02 -0.25092334060E+02 -0.39803845172E+03  0.48759330077E+03  0.26300606015E+03 0.  0.
         25    1    3    3    0    0  0.97523356231E+02  0.25092334060E+02 -0.10655443767E+03  0.19272204473E+03  0.12509000000E+03 0.  0.
         25    1    4    4    0    0 -0.24488028865E+02 -0.27198730079E+02 -0.24069472545E+03  0.27371681248E+03  0.12509000000E+03 0.  0.
         25    1    4    4    0    0 -0.73035327366E+02  0.21063960185E+01 -0.15734372626E+03  0.21387648829E+03  0.12509000000E+03 0.  0.
<mgrwt>
<rscale>  2 0.45630580E+03</rscale>
<asrwt>0</asrwt>
<pdfrwt beam="1">  1       21 0.12920769E-01 0.45630580E+03</pdfrwt>
<pdfrwt beam="2">  1       21 0.87125605E-01 0.45630580E+03</pdfrwt>
<totfact> 0.53433641E+04</totfact>
</mgrwt>
</event>
<event>
 7    0  0.4725730E-002  0.4503986E+03  0.7546771E-02  0.1027603E+00
         21   -1    0    0  502  501  0.00000000000E+00  0.00000000000E+00  0.34722335413E+03  0.34722335413E+03  0.00000000000E+00 0. -1.
         21   -1    0    0  501  502 -0.00000000000E+00 -0.00000000000E+00 -0.14605792729E+03  0.14605792729E+03  0.00000000000E+00 0. -1.
      99926    2    1    2    0    0  0.00000000000E+00  0.00000000000E+00  0.20116542684E+03  0.49328128142E+03  0.45039859418E+03 0.  0.
      99925    2    3    3    0    0  0.16510828276E+02  0.99648386037E+02  0.17145713527E+03  0.32978052002E+03  0.26297382733E+03 0.  0.
         25    1    4    4    0    0  0.16121933352E+02  0.78062928679E+02  0.57141311879E+02  0.15895400339E+03  0.12509000000E+03 0.  0.
         25    1    3    3    0    0 -0.16510828276E+02 -0.99648386037E+02  0.29708291575E+02  0.16350076140E+03  0.12509000000E+03 0.  0.
         25    1    4    4    0    0  0.38889492410E+00  0.21585457358E+02  0.11431582339E+03  0.17082651663E+03  0.12509000000E+03 0.  0.
<mgrwt>
<rscale>  2 0.45039859E+03</rscale>
<asrwt>0</asrwt>
<pdfrwt beam="1">  1       21 0.51062258E-01 0.45039859E+03</pdfrwt>
<pdfrwt beam="2">  1       21 0.21479107E-01 0.45039859E+03</pdfrwt>
<totfact> 0.68202769E+04</totfact>
</mgrwt>
</event>
<event>
 7    0  0.4725730E-002  0.4462290E+03  0.7546771E-02  0.1028853E+00
         21   -1    0    0  502  501  0.00000000000E+00  0.00000000000E+00  0.24555155540E+04  0.24555155540E+04  0.00000000000E+00 0. -1.
         21   -1    0    0  501  502 -0.00000000000E+00 -0.00000000000E+00 -0.20272762029E+02  0.20272762029E+02  0.00000000000E+00 0. -1.
      99926    2    1    2    0    0 -0.71054273576E-14  0.17763568394E-14  0.24352427920E+04  0.24757883160E+04  0.44622901064E+03 0.  0.
      99925    2    3    3    0    0 -0.54373156787E+02  0.13367304022E+02  0.10556335012E+04  0.10893885078E+04  0.26319214855E+03 0.  0.
         25    1    3    3    0    0  0.54373156787E+02 -0.13367304022E+02  0.13796092908E+04  0.13863998083E+04  0.12509000000E+03 0.  0.
         25    1    4    4    0    0 -0.28434633896E+02  0.14755115459E+02  0.69250964857E+03  0.70444542961E+03  0.12509000000E+03 0.  0.
         25    1    4    4    0    0 -0.25938522890E+02 -0.13878114370E+01  0.36312385261E+03  0.38494307816E+03  0.12509000000E+03 0.  0.
<mgrwt>
<rscale>  2 0.44622901E+03</rscale>
<asrwt>0</asrwt>
<pdfrwt beam="1">  1       21 0.36110502E+00 0.44622901E+03</pdfrwt>
<pdfrwt beam="2">  1       21 0.29812902E-02 0.44622901E+03</pdfrwt>
<totfact> 0.79083756E+03</totfact>
</mgrwt>
</event>
<event>
 7    0  0.4725730E-002  0.4519002E+03  0.7546771E-02  0.1027157E+00
         21   -1    0    0  502  501  0.00000000000E+00  0.00000000000E+00  0.23508416173E+04  0.23508416173E+04  0.00000000000E+00 0.  1.
         21   -1    0    0  501  502 -0.00000000000E+00 -0.00000000000E+00 -0.21717096159E+02  0.21717096159E+02  0.00000000000E+00 0.  1.
      99926    2    1    2    0    0  0.00000000000E+00  0.35527136788E-14  0.23291245211E+04  0.23725587134E+04  0.45190022553E+03 0.  0.
      99925    2    3    3    0    0  0.83874614469E+02 -0.19434072797E+02  0.18322229142E+04  0.18529710412E+04  0.26277031390E+03 0.  0.
         25    1    4    4    0    0  0.43974253311E+02  0.25311819851E+02  0.10356825461E+04  0.10444425631E+04  0.12509000000E+03 0.  0.
         25    1    4    4    0    0  0.39900361158E+02 -0.44745892648E+02  0.79654036808E+03  0.80852847805E+03  0.12509000000E+03 0.  0.
         25    1    3    3    0    0 -0.83874614469E+02  0.19434072797E+02  0.49690160688E+03  0.51958767226E+03  0.12509000000E+03 0.  0.
<mgrwt>
<rscale>  2 0.45190023E+03</rscale>
<asrwt>0</asrwt>
<pdfrwt beam="1">  1       21 0.34571183E+00 0.45190023E+03</pdfrwt>
<pdfrwt beam="2">  1       21 0.31936922E-02 0.45190023E+03</pdfrwt>
<totfact> 0.87336514E+03</totfact>
</mgrwt>
</event>
<event>
 7    0  0.4725730E-002  0.4161326E+03  0.7546771E-02  0.1038332E+00
         21   -1    0    0  502  501  0.00000000000E+00  0.00000000000E+00  0.74159167378E+02  0.74159167378E+02  0.00000000000E+00 0. -1.
         21   -1    0    0  501  502 -0.00000000000E+00 -0.00000000000E+00 -0.58376583189E+03  0.58376583189E+03  0.00000000000E+00 0. -1.
      99926    2    1    2    0    0  0.00000000000E+00  0.00000000000E+00 -0.50960666451E+03  0.65792499927E+03  0.41613261365E+03 0.  0.
      99925    2    3    3    0    0 -0.17236208049E+02 -0.66573118478E+02 -0.34584209513E+03  0.44067995501E+03  0.26431610054E+03 0.  0.
         25    1    4    4    0    0  0.34028353223E+02 -0.35354552509E+02 -0.17042888297E+03  0.21702853604E+03  0.12509000000E+03 0.  0.
         25    1    3    3    0    0  0.17236208049E+02  0.66573118478E+02 -0.16376456938E+03  0.21724504426E+03  0.12509000000E+03 0.  0.
         25    1    4    4    0    0 -0.51264561272E+02 -0.31218565969E+02 -0.17541321216E+03  0.22365141896E+03  0.12509000000E+03 0.  0.
<mgrwt>
<rscale>  2 0.41613261E+03</rscale>
<asrwt>0</asrwt>
<pdfrwt beam="1">  1       21 0.10905760E-01 0.41613261E+03</pdfrwt>
<pdfrwt beam="2">  1       21 0.85847917E-01 0.41613261E+03</pdfrwt>
<totfact> 0.75977658E+04</totfact>
</mgrwt>
</event>
<event>
 7    0  0.4725730E-002  0.4717959E+03  0.7546771E-02  0.1021415E+00
         21   -1    0    0  502  501  0.00000000000E+00  0.00000000000E+00  0.18519860423E+03  0.18519860423E+03  0.00000000000E+00 0.  1.
         21   -1    0    0  501  502 -0.00000000000E+00 -0.00000000000E+00 -0.30047655515E+03  0.30047655515E+03  0.00000000000E+00 0.  1.
      99926    2    1    2    0    0  0.00000000000E+00  0.00000000000E+00 -0.11527795092E+03  0.48567515938E+03  0.47179588221E+03 0.  0.
      99925    2    3    3    0    0  0.57521482338E+02  0.85947410409E+02 -0.14982210589E+03  0.31973394983E+03  0.26284492952E+03 0.  0.
         25    1    4    4    0    0  0.20602732450E+02  0.56775696792E+02 -0.34302112049E+02  0.14308073008E+03  0.12509000000E+03 0.  0.
         25    1    4    4    0    0  0.36918749888E+02  0.29171713617E+02 -0.11551999384E+03  0.17665321974E+03  0.12509000000E+03 0.  0.
         25    1    3    3    0    0 -0.57521482338E+02 -0.85947410409E+02  0.34544154963E+02  0.16594120955E+03  0.12509000000E+03 0.  0.
<mgrwt>
<rscale>  2 0.47179588E+03</rscale>
<asrwt>0</asrwt>
<pdfrwt beam="1">  1       21 0.27235089E-01 0.47179588E+03</pdfrwt>
<pdfrwt beam="2">  1       21 0.44187729E-01 0.47179588E+03</pdfrwt>
<totfact> 0.58143895E+04</totfact>
</mgrwt>
</event>
<event>
 6    0  0.4725730E-002  0.4505402E+03  0.7546771E-02  0.1027561E+00
         21   -1    0    0  502  501  0.00000000000E+00  0.00000000000E+00  0.23481790743E+03  0.23481790743E+03  0.00000000000E+00 0. -1.
         21   -1    0    0  501  502 -0.00000000000E+00 -0.00000000000E+00 -0.21611047396E+03  0.21611047396E+03  0.00000000000E+00 0. -1.
      99926    2    1    2    0    0  0.00000000000E+00  0.35527136788E-14  0.18707433462E+02  0.45092838139E+03  0.45054016145E+03 0.  0.
         25    1    3    3    0    0 -0.17627031989E+02  0.94005381326E+01 -0.98575751751E+02  0.16051096320E+03  0.12509000000E+03 0.  0.
         25    1    3    3    0    0  0.34989516540E+02  0.17054596823E+02  0.88842805613E+02  0.15828985359E+03  0.12509000000E+03 0.  0.
         25    1    3    3    0    0 -0.17362484552E+02 -0.26455134956E+02  0.28440379601E+02  0.13212756460E+03  0.12509000000E+03 0.  0.
<mgrwt>
<rscale>  2 0.45054016E+03</rscale>
<asrwt>0</asrwt>
<pdfrwt beam="1">  1       21 0.34532045E-01 0.45054016E+03</pdfrwt>
<pdfrwt beam="2">  1       21 0.31780952E-01 0.45054016E+03</pdfrwt>
<totfact> 0.71350505E+04</totfact>
</mgrwt>
</event>
<event>
 7    0  0.4725730E-002  0.4195215E+03  0.7546771E-02  0.1037222E+00
         21   -1    0    0  502  501  0.00000000000E+00  0.00000000000E+00  0.95388399137E+02  0.95388399137E+02  0.00000000000E+00 0.  1.
         21   -1    0    0  501  502 -0.00000000000E+00 -0.00000000000E+00 -0.46126744236E+03  0.46126744236E+03  0.00000000000E+00 0.  1.
      99926    2    1    2    0    0  0.00000000000E+00  0.00000000000E+00 -0.36587904322E+03  0.55665584149E+03  0.41952145547E+03 0.  0.
      99925    2    3    3    0    0 -0.38792960386E+02  0.36278710269E+02 -0.30923968031E+03  0.40942621090E+03  0.26302015835E+03 0.  0.
         25    1    3    3    0    0  0.38792960386E+02 -0.36278710269E+02 -0.56639362913E+02  0.14722963060E+03  0.12509000000E+03 0.  0.
         25    1    4    4    0    0 -0.59039802458E+01 -0.16496557206E+02 -0.17382716347E+03  0.21487294907E+03  0.12509000000E+03 0.  0.
         25    1    4    4    0    0 -0.32888980140E+02  0.52775267475E+02 -0.13541251684E+03  0.19455326183E+03  0.12509000000E+03 0.  0.
<mgrwt>
<rscale>  2 0.41952146E+03</rscale>
<asrwt>0</asrwt>
<pdfrwt beam="1">  1       21 0.14027706E-01 0.41952146E+03</pdfrwt>
<pdfrwt beam="2">  1       21 0.67833448E-01 0.41952146E+03</pdfrwt>
<totfact> 0.82174568E+04</totfact>
</mgrwt>
</event>
<event>
 7    0  0.4725730E-002  0.4582822E+03  0.7546771E-02  0.1025281E+00
         21   -1    0    0  502  501  0.00000000000E+00  0.00000000000E+00  0.17101291297E+03  0.17101291297E+03  0.00000000000E+00 0.  1.
         21   -1    0    0  501  502 -0.00000000000E+00 -0.00000000000E+00 -0.30702730459E+03  0.30702730459E+03  0.00000000000E+00 0.  1.
      99926    2    1    2    0    0  0.00000000000E+00  0.00000000000E+00 -0.13601439161E+03  0.47804021756E+03  0.45828215640E+03 0.  0.
      99925    2    3    3    0    0 -0.66644593647E+02 -0.48455458513E+01 -0.18456245875E+03  0.32814223859E+03  0.26296206264E+03 0.  0.
         25    1    3    3    0    0  0.66644593647E+02  0.48455458513E+01  0.48548067140E+02  0.14989797897E+03  0.12509000000E+03 0.  0.
         25    1    4    4    0    0 -0.53357100564E+01 -0.15498926895E+01 -0.51246646875E+02  0.13529448949E+03  0.12509000000E+03 0.  0.
         25    1    4    4    0    0 -0.61308883591E+02 -0.32956531618E+01 -0.13331581188E+03  0.19284774910E+03  0.12509000000E+03 0.  0.
<mgrwt>
<rscale>  2 0.45828216E+03</rscale>
<asrwt>0</asrwt>
<pdfrwt beam="1">  1       21 0.25148958E-01 0.45828216E+03</pdfrwt>
<pdfrwt beam="2">  1       21 0.45151074E-01 0.45828216E+03</pdfrwt>
<totfact> 0.65129927E+04</totfact>
</mgrwt>
</event>
<event>
 7    0  0.4725730E-002  0.4597082E+03  0.7546771E-02  0.1024866E+00
         21   -1    0    0  502  501  0.00000000000E+00  0.00000000000E+00  0.40513244663E+03  0.40513244663E+03  0.00000000000E+00 0. -1.
         21   -1    0    0  501  502 -0.00000000000E+00 -0.00000000000E+00 -0.13040898487E+03  0.13040898487E+03  0.00000000000E+00 0. -1.
      99926    2    1    2    0    0  0.71054273576E-14  0.00000000000E+00  0.27472346176E+03  0.53554143149E+03  0.45970821660E+03 0.  0.
      99925    2    3    3    0    0 -0.56256485276E+02  0.34780456914E+02  0.58994250294E+02  0.27754710385E+03  0.26301635114E+03 0.  0.
         25    1    3    3    0    0  0.56256485276E+02 -0.34780456914E+02  0.21572921147E+03  0.25799432765E+03  0.12509000000E+03 0.  0.
         25    1    4    4    0    0 -0.44721618137E+02  0.29387459414E+01  0.64776450975E+02  0.14782474778E+03  0.12509000000E+03 0.  0.
         25    1    4    4    0    0 -0.11534867139E+02  0.31841710972E+02 -0.57822006807E+01  0.12972235606E+03  0.12509000000E+03 0.  0.
<mgrwt>
<rscale>  2 0.45970822E+03</rscale>
<asrwt>0</asrwt>
<pdfrwt beam="1">  1       21 0.59578301E-01 0.45970822E+03</pdfrwt>
<pdfrwt beam="2">  1       21 0.19177792E-01 0.45970822E+03</pdfrwt>
<totfact> 0.60542088E+04</totfact>
</mgrwt>
</event>
<event>
 7    0  0.4725730E-002  0.4316732E+03  0.7546771E-02  0.1033333E+00
         21   -1    0    0  502  501  0.00000000000E+00  0.00000000000E+00  0.30322336984E+03  0.30322336984E+03  0.00000000000E+00 0. -1.
         21   -1    0    0  501  502 -0.00000000000E+00 -0.00000000000E+00 -0.15363409185E+03  0.15363409185E+03  0.00000000000E+00 0. -1.
      99926    2    1    2    0    0 -0.14210854715E-13  0.00000000000E+00  0.14958927799E+03  0.45685746169E+03  0.43167324240E+03 0.  0.
      99925    2    3    3    0    0 -0.68016093506E+02 -0.58116963651E+02  0.10216777660E+03  0.29592245203E+03  0.26292217974E+03 0.  0.
         25    1    4    4    0    0 -0.46235904731E+02 -0.53786618830E+02  0.86761578603E+02  0.16794594033E+03  0.12509000000E+03 0.  0.
         25    1    3    3    0    0  0.68016093506E+02  0.58116963651E+02  0.47421501392E+02  0.16093500966E+03  0.12509000000E+03 0.  0.
         25    1    4    4    0    0 -0.21780188775E+02 -0.43303448209E+01  0.15406197997E+02  0.12797651170E+03  0.12509000000E+03 0.  0.
<mgrwt>
<rscale>  2 0.43167324E+03</rscale>
<asrwt>0</asrwt>
<pdfrwt beam="1">  1       21 0.44591672E-01 0.43167324E+03</pdfrwt>
<pdfrwt beam="2">  1       21 0.22593249E-01 0.43167324E+03</pdfrwt>
<totfact> 0.82705747E+04</totfact>
</mgrwt>
</event>
<event>
 7    0  0.4725730E-002  0.4525558E+03  0.7546771E-02  0.1026963E+00
         21   -1    0    0  502  501  0.00000000000E+00  0.00000000000E+00  0.71084767990E+02  0.71084767990E+02  0.00000000000E+00 0. -1.
         21   -1    0    0  501  502 -0.00000000000E+00 -0.00000000000E+00 -0.72029060358E+03  0.72029060358E+03  0.00000000000E+00 0. -1.
      99926    2    1    2    0    0  0.00000000000E+00  0.00000000000E+00 -0.64920583559E+03  0.79137537157E+03  0.45255581066E+03 0.  0.
      99925    2    3    3    0    0 -0.23682817621E+02  0.99549630483E+02 -0.48393055256E+03  0.56021648236E+03  0.26302608736E+03 0.  0.
         25    1    4    4    0    0 -0.12503320897E+02  0.93087159261E+02 -0.27346004249E+03  0.31503881537E+03  0.12509000000E+03 0.  0.
         25    1    3    3    0    0  0.23682817621E+02 -0.99549630483E+02 -0.16527528303E+03  0.23115888921E+03  0.12509000000E+03 0.  0.
         25    1    4    4    0    0 -0.11179496724E+02  0.64624712215E+01 -0.21047051007E+03  0.24517766699E+03  0.12509000000E+03 0.  0.
<mgrwt>
<rscale>  2 0.45255581E+03</rscale>
<asrwt>0</asrwt>
<pdfrwt beam="1">  1       21 0.10453643E-01 0.45255581E+03</pdfrwt>
<pdfrwt beam="2">  1       21 0.10592508E+00 0.45255581E+03</pdfrwt>
<totfact> 0.49120333E+04</totfact>
</mgrwt>
</event>
<event>
 7    0  0.4725730E-002  0.4610349E+03  0.7546771E-02  0.1024482E+00
         21   -1    0    0  502  501  0.00000000000E+00  0.00000000000E+00  0.31473607273E+03  0.31473607273E+03  0.00000000000E+00 0.  1.
         21   -1    0    0  501  502 -0.00000000000E+00 -0.00000000000E+00 -0.16883443404E+03  0.16883443404E+03  0.00000000000E+00 0.  1.
      99926    2    1    2    0    0  0.00000000000E+00  0.14210854715E-13  0.14590163869E+03  0.48357050677E+03  0.46103486511E+03 0.  0.
      99925    2    3    3    0    0 -0.33545198153E+02  0.10763141772E+03  0.52420679340E+02  0.29096728701E+03  0.26306697263E+03 0.  0.
         25    1    4    4    0    0  0.19929856363E+02  0.37080257324E+02  0.36241247005E+02  0.13686884504E+03  0.12509000000E+03 0.  0.
         25    1    4    4    0    0 -0.53475054517E+02  0.70551160393E+02  0.16179432336E+02  0.15409844197E+03  0.12509000000E+03 0.  0.
         25    1    3    3    0    0  0.33545198153E+02 -0.10763141772E+03  0.93480959348E+02  0.19260321975E+03  0.12509000000E+03 0.  0.
<mgrwt>
<rscale>  2 0.46103487E+03</rscale>
<asrwt>0</asrwt>
<pdfrwt beam="1">  1       21 0.46284717E-01 0.46103487E+03</pdfrwt>
<pdfrwt beam="2">  1       21 0.24828593E-01 0.46103487E+03</pdfrwt>
<totfact> 0.63351647E+04</totfact>
</mgrwt>
</event>
<event>
 7    0  0.4725730E-002  0.4573016E+03  0.7546771E-02  0.1025567E+00
         21   -1    0    0  502  501  0.00000000000E+00  0.00000000000E+00  0.43404741166E+03  0.43404741166E+03  0.00000000000E+00 0.  1.
         21   -1    0    0  501  502 -0.00000000000E+00 -0.00000000000E+00 -0.12045040535E+03  0.12045040535E+03  0.00000000000E+00 0.  1.
      99926    2    1    2    0    0 -0.14210854715E-13 -0.17763568394E-14  0.31359700631E+03  0.55449781701E+03  0.45730159271E+03 0.  0.
      99925    2    3    3    0    0 -0.11373030702E+03 -0.11012110351E+02  0.18027054565E+03  0.33890722695E+03  0.26325802844E+03 0.  0.
         25    1    4    4    0    0 -0.34092619214E+02  0.29375806500E+02  0.75212923883E+02  0.15274075000E+03  0.12509000000E+03 0.  0.
         25    1    3    3    0    0  0.11373030702E+03  0.11012110351E+02  0.13332646067E+03  0.21559059006E+03  0.12509000000E+03 0.  0.
         25    1    4    4    0    0 -0.79637687806E+02 -0.40387916851E+02  0.10505762177E+03  0.18616647694E+03  0.12509000000E+03 0.  0.
<mgrwt>
<rscale>  2 0.45730159E+03</rscale>
<asrwt>0</asrwt>
<pdfrwt beam="1">  1       21 0.63830501E-01 0.45730159E+03</pdfrwt>
<pdfrwt beam="2">  1       21 0.17713295E-01 0.45730159E+03</pdfrwt>
<totfact> 0.60461836E+04</totfact>
</mgrwt>
</event>
<event>
 7    0  0.4725730E-002  0.4556305E+03  0.7546771E-02  0.1026056E+00
         21   -1    0    0  502  501  0.00000000000E+00  0.00000000000E+00  0.92024362064E+03  0.92024362064E+03  0.00000000000E+00 0.  1.
         21   -1    0    0  501  502 -0.00000000000E+00 -0.00000000000E+00 -0.56397890580E+02  0.56397890580E+02  0.00000000000E+00 0.  1.
      99926    2    1    2    0    0  0.14210854715E-13  0.00000000000E+00  0.86384573006E+03  0.97664151122E+03  0.45563054781E+03 0.  0.
      99925    2    3    3    0    0  0.74313570329E+02 -0.36966177954E+02  0.37652605039E+03  0.46672290660E+03  0.26300076021E+03 0.  0.
         25    1    3    3    0    0 -0.74313570329E+02  0.36966177954E+02  0.48731967967E+03  0.50991860462E+03  0.12509000000E+03 0.  0.
         25    1    4    4    0    0  0.49151557738E+00 -0.29577007706E+02  0.20344806139E+03  0.24065257687E+03  0.12509000000E+03 0.  0.
         25    1    4    4    0    0  0.73822054751E+02 -0.73891702481E+01  0.17307798900E+03  0.22607032972E+03  0.12509000000E+03 0.  0.
<mgrwt>
<rscale>  2 0.45563055E+03</rscale>
<asrwt>0</asrwt>
<pdfrwt beam="1">  1       21 0.13532994E+00 0.45563055E+03</pdfrwt>
<pdfrwt beam="2">  1       21 0.82938080E-02 0.45563055E+03</pdfrwt>
<totfact> 0.39883414E+04</totfact>
</mgrwt>
</event>
<event>
 7    0  0.4725730E-002  0.4533736E+03  0.7546771E-02  0.1026721E+00
         21   -1    0    0  502  501  0.00000000000E+00  0.00000000000E+00  0.65963318475E+03  0.65963318475E+03  0.00000000000E+00 0. -1.
         21   -1    0    0  501  502 -0.00000000000E+00 -0.00000000000E+00 -0.77902242906E+02  0.77902242906E+02  0.00000000000E+00 0. -1.
      99926    2    1    2    0    0  0.00000000000E+00  0.00000000000E+00  0.58173094185E+03  0.73753542766E+03  0.45337359688E+03 0.  0.
      99925    2    3    3    0    0  0.75590268092E+02  0.50827719835E+02  0.26224483991E+03  0.38254778962E+03  0.26319785247E+03 0.  0.
         25    1    3    3    0    0 -0.75590268092E+02 -0.50827719835E+02  0.31948610193E+03  0.35498763804E+03  0.12509000000E+03 0.  0.
         25    1    4    4    0    0  0.70390603954E+02  0.29876718209E+02  0.17608165318E+03  0.22912815651E+03  0.12509000000E+03 0.  0.
         25    1    4    4    0    0  0.51996641377E+01  0.20951001625E+02  0.86163186729E+02  0.15341963311E+03  0.12509000000E+03 0.  0.
<mgrwt>
<rscale>  2 0.45337360E+03</rscale>
<asrwt>0</asrwt>
<pdfrwt beam="1">  1       21 0.97004877E-01 0.45337360E+03</pdfrwt>
<pdfrwt beam="2">  1       21 0.11456213E-01 0.45337360E+03</pdfrwt>
<totfact> 0.51568199E+04</totfact>
</mgrwt>
</event>
<event>
 7    0  0.4725730E-002  0.4565429E+03  0.7546771E-02  0.1025789E+00
         21   -1    0    0  502  501  0.00000000000E+00  0.00000000000E+00  0.41683659290E+03  0.41683659290E+03  0.00000000000E+00 0.  1.
         21   -1    0    0  501  502 -0.00000000000E+00 -0.00000000000E+00 -0.12500789513E+03  0.12500789513E+03  0.00000000000E+00 0.  1.
      99926    2    1    2    0    0  0.14210854715E-13 -0.47184478547E-15  0.29182869777E+03  0.54184448804E+03  0.45654294472E+03 0.  0.
      99925    2    3    3    0    0 -0.90378565901E+02  0.74474218472E-01  0.26707880381E+03  0.38554875530E+03  0.26296095632E+03 0.  0.
         25    1    4    4    0    0 -0.83999701793E+02  0.70825709894E+01  0.12404766299E+03  0.19529834486E+03  0.12509000000E+03 0.  0.
         25    1    4    4    0    0 -0.63788641081E+01 -0.70080967709E+01  0.14303114082E+03  0.19025041044E+03  0.12509000000E+03 0.  0.
         25    1    3    3    0    0  0.90378565901E+02 -0.74474218472E-01  0.24749893959E+02  0.15629573274E+03  0.12509000000E+03 0.  0.
<mgrwt>
<rscale>  2 0.45654294E+03</rscale>
<asrwt>0</asrwt>
<pdfrwt beam="1">  1       21 0.61299499E-01 0.45654294E+03</pdfrwt>
<pdfrwt beam="2">  1       21 0.18383514E-01 0.45654294E+03</pdfrwt>
<totfact> 0.61652429E+04</totfact>
</mgrwt>
</event>
<event>
 7    0  0.4725730E-002  0.4506577E+03  0.7546771E-02  0.1027526E+00
         21   -1    0    0  502  501  0.00000000000E+00  0.00000000000E+00  0.30462215016E+03  0.30462215016E+03  0.00000000000E+00 0. -1.
         21   -1    0    0  501  502 -0.00000000000E+00 -0.00000000000E+00 -0.16667562023E+03  0.16667562023E+03  0.00000000000E+00 0. -1.
      99926    2    1    2    0    0  0.00000000000E+00  0.00000000000E+00  0.13794652993E+03  0.47129777039E+03  0.45065767857E+03 0.  0.
      99925    2    3    3    0    0  0.82831141337E+02  0.70231239177E+02  0.97205724601E+02  0.30070836201E+03  0.26302688295E+03 0.  0.
         25    1    4    4    0    0  0.34069643687E+02  0.52605661421E+01  0.75120221857E+02  0.14992988364E+03  0.12509000000E+03 0.  0.
         25    1    3    3    0    0 -0.82831141337E+02 -0.70231239177E+02  0.40740805333E+02  0.17058940838E+03  0.12509000000E+03 0.  0.
         25    1    4    4    0    0  0.48761497650E+02  0.64970673035E+02  0.22085502744E+02  0.15077847837E+03  0.12509000000E+03 0.  0.
<mgrwt>
<rscale>  2 0.45065768E+03</rscale>
<asrwt>0</asrwt>
<pdfrwt beam="1">  1       21 0.44797375E-01 0.45065768E+03</pdfrwt>
<pdfrwt beam="2">  1       21 0.24511121E-01 0.45065768E+03</pdfrwt>
<totfact> 0.69710527E+04</totfact>
</mgrwt>
</event>
<event>
 7    0  0.4725730E-002  0.4557016E+03  0.7546771E-02  0.1026035E+00
         21   -1    0    0  502  501  0.00000000000E+00  0.00000000000E+00  0.28771703238E+03  0.28771703238E+03  0.00000000000E+00 0.  1.
         21   -1    0    0  501  502 -0.00000000000E+00 -0.00000000000E+00 -0.18044110332E+03  0.18044110332E+03  0.00000000000E+00 0.  1.
      99926    2    1    2    0    0  0.00000000000E+00  0.71054273576E-14  0.10727592906E+03  0.46815813570E+03  0.45570156360E+03 0.  0.
      99925    2    3    3    0    0  0.47074561787E+02  0.57077622306E+02 -0.21299816815E+02  0.27411406890E+03  0.26307978112E+03 0.  0.
         25    1    4    4    0    0  0.58891008689E+02  0.51399511828E+02 -0.12378779501E+02  0.14802298133E+03  0.12509000000E+03 0.  0.
         25    1    4    4    0    0 -0.11816446902E+02  0.56781104784E+01 -0.89210373141E+01  0.12609108756E+03  0.12509000000E+03 0.  0.
         25    1    3    3    0    0 -0.47074561787E+02 -0.57077622306E+02  0.12857574587E+03  0.19404406681E+03  0.12509000000E+03 0.  0.
<mgrwt>
<rscale>  2 0.45570156E+03</rscale>
<asrwt>0</asrwt>
<pdfrwt beam="1">  1       21 0.42311329E-01 0.45570156E+03</pdfrwt>
<pdfrwt beam="2">  1       21 0.26535456E-01 0.45570156E+03</pdfrwt>
<totfact> 0.67198383E+04</totfact>
</mgrwt>
</event>
<event>
 7    0  0.4725730E-002  0.4446096E+03  0.7546771E-02  0.1029342E+00
         21   -1    0    0  502  501  0.00000000000E+00  0.00000000000E+00  0.13420480200E+04  0.13420480200E+04  0.00000000000E+00 0. -1.
         21   -1    0    0  501  502 -0.00000000000E+00 -0.00000000000E+00 -0.36823879941E+02  0.36823879941E+02  0.00000000000E+00 0. -1.
      99926    2    1    2    0    0  0.00000000000E+00 -0.17763568394E-14  0.13052241401E+04  0.13788719000E+04  0.44460955979E+03 0.  0.
      99925    2    3    3    0    0  0.91615322382E+02 -0.12029193806E+02  0.68700455852E+03  0.74139168230E+03  0.26296063269E+03 0.  0.
         25    1    3    3    0    0 -0.91615322382E+02  0.12029193806E+02  0.61821958156E+03  0.63748021768E+03  0.12509000000E+03 0.  0.
         25    1    4    4    0    0  0.22073740115E+02 -0.38950107197E+02  0.34287592524E+03  0.36771696869E+03  0.12509000000E+03 0.  0.
         25    1    4    4    0    0  0.69541582267E+02  0.26920913392E+02  0.34412863329E+03  0.37367471361E+03  0.12509000000E+03 0.  0.
<mgrwt>
<rscale>  2 0.44460956E+03</rscale>
<asrwt>0</asrwt>
<pdfrwt beam="1">  1       21 0.19735997E+00 0.44460956E+03</pdfrwt>
<pdfrwt beam="2">  1       21 0.54152774E-02 0.44460956E+03</pdfrwt>
<totfact> 0.29187364E+04</totfact>
</mgrwt>
</event>
<event>
 7    0  0.4725730E-002  0.4511034E+03  0.7546771E-02  0.1027394E+00
         21   -1    0    0  502  501  0.00000000000E+00  0.00000000000E+00  0.29788449646E+03  0.29788449646E+03  0.00000000000E+00 0. -1.
         21   -1    0    0  501  502 -0.00000000000E+00 -0.00000000000E+00 -0.17078289288E+03  0.17078289288E+03  0.00000000000E+00 0. -1.
      99926    2    1    2    0    0  0.00000000000E+00  0.00000000000E+00  0.12710160358E+03  0.46866738934E+03  0.45110342960E+03 0.  0.
      99925    2    3    3    0    0  0.10133776189E+03  0.20445630295E+02  0.42366826177E+02  0.28559675711E+03  0.26283681997E+03 0.  0.
         25    1    4    4    0    0  0.69616150306E+02 -0.19740549445E+02  0.41793792583E+02  0.15043379565E+03  0.12509000000E+03 0.  0.
         25    1    4    4    0    0  0.31721611583E+02  0.40186179741E+02  0.57303359350E+00  0.13516296146E+03  0.12509000000E+03 0.  0.
         25    1    3    3    0    0 -0.10133776189E+03 -0.20445630295E+02  0.84734777405E+02  0.18307063223E+03  0.12509000000E+03 0.  0.
<mgrwt>
<rscale>  2 0.45110343E+03</rscale>
<asrwt>0</asrwt>
<pdfrwt beam="1">  1       21 0.43806544E-01 0.45110343E+03</pdfrwt>
<pdfrwt beam="2">  1       21 0.25115131E-01 0.45110343E+03</pdfrwt>
<totfact> 0.69663741E+04</totfact>
</mgrwt>
</event>
<event>
 7    0  0.4725730E-002  0.4566903E+03  0.7546771E-02  0.1025746E+00
         21   -1    0    0  502  501  0.00000000000E+00  0.00000000000E+00  0.12441481826E+03  0.12441481826E+03  0.00000000000E+00 0. -1.
         21   -1    0    0  501  502 -0.00000000000E+00 -0.00000000000E+00 -0.41909402391E+03  0.41909402391E+03  0.00000000000E+00 0. -1.
      99926    2    1    2    0    0  0.00000000000E+00  0.00000000000E+00 -0.29467920565E+03  0.54350884217E+03  0.45669029689E+03 0.  0.
      99925    2    3    3    0    0 -0.74452543133E+02  0.19569162883E+02 -0.83805229921E+02  0.28652348256E+03  0.26295675725E+03 0.  0.
         25    1    3    3    0    0  0.74452543133E+02 -0.19569162883E+02 -0.21087397573E+03  0.25698535961E+03  0.12509000000E+03 0.  0.
         25    1    4    4    0    0  0.12732990051E+01 -0.21589446858E+01 -0.50912437203E+02  0.13507726194E+03  0.12509000000E+03 0.  0.
         25    1    4    4    0    0 -0.75725842139E+02  0.21728107568E+02 -0.32892792718E+02  0.15144622062E+03  0.12509000000E+03 0.  0.
<mgrwt>
<rscale>  2 0.45669030E+03</rscale>
<asrwt>0</asrwt>
<pdfrwt beam="1">  1       21 0.18296297E-01 0.45669030E+03</pdfrwt>
<pdfrwt beam="2">  1       21 0.61631473E-01 0.45669030E+03</pdfrwt>
<totfact> 0.61471146E+04</totfact>
</mgrwt>
</event>
<event>
 7    0  0.4725730E-002  0.4527797E+03  0.7546771E-02  0.1026896E+00
         21   -1    0    0  502  501  0.00000000000E+00  0.00000000000E+00  0.65601938791E+03  0.65601938791E+03  0.00000000000E+00 0.  1.
         21   -1    0    0  501  502 -0.00000000000E+00 -0.00000000000E+00 -0.78126308803E+02  0.78126308803E+02  0.00000000000E+00 0.  1.
      99926    2    1    2    0    0  0.00000000000E+00  0.14210854715E-13  0.57789307911E+03  0.73414569671E+03  0.45277974019E+03 0.  0.
      99925    2    3    3    0    0  0.21307351928E+02  0.10410156555E+03  0.31516349565E+03  0.42436273831E+03  0.26356131255E+03 0.  0.
         25    1    4    4    0    0  0.29447222949E+02  0.45889524315E+02  0.10221851617E+03  0.17049668774E+03  0.12509000000E+03 0.  0.
         25    1    3    3    0    0 -0.21307351928E+02 -0.10410156555E+03  0.26272958345E+03  0.30978295841E+03  0.12509000000E+03 0.  0.
         25    1    4    4    0    0 -0.81398710209E+01  0.58212041237E+02  0.21294497948E+03  0.25386605057E+03  0.12509000000E+03 0.  0.
<mgrwt>
<rscale>  2 0.45277974E+03</rscale>
<asrwt>0</asrwt>
<pdfrwt beam="1">  1       21 0.96473436E-01 0.45277974E+03</pdfrwt>
<pdfrwt beam="2">  1       21 0.11489163E-01 0.45277974E+03</pdfrwt>
<totfact> 0.51989654E+04</totfact>
</mgrwt>
</event>
<event>
 7    0  0.4725730E-002  0.4599056E+03  0.7546771E-02  0.1024809E+00
         21   -1    0    0  502  501  0.00000000000E+00  0.00000000000E+00  0.64971203148E+02  0.64971203148E+02  0.00000000000E+00 0.  1.
         21   -1    0    0  501  502 -0.00000000000E+00 -0.00000000000E+00 -0.81387289535E+03  0.81387289535E+03  0.00000000000E+00 0.  1.
      99926    2    1    2    0    0  0.00000000000E+00 -0.17763568394E-14 -0.74890169220E+03  0.87884409850E+03  0.45990564780E+03 0.  0.
      99925    2    3    3    0    0  0.38078513469E+02  0.14526294737E+02 -0.25819671462E+03  0.37080879505E+03  0.26300690603E+03 0.  0.
         25    1    4    4    0    0 -0.21682130681E+02  0.23813566318E+01 -0.12201643879E+03  0.17610026997E+03  0.12509000000E+03 0.  0.
         25    1    3    3    0    0 -0.38078513469E+02 -0.14526294737E+02 -0.49070497758E+03  0.50803530345E+03  0.12509000000E+03 0.  0.
         25    1    4    4    0    0  0.59760644150E+02  0.12144938106E+02 -0.13618027583E+03  0.19470852507E+03  0.12509000000E+03 0.  0.
<mgrwt>
<rscale>  2 0.45990565E+03</rscale>
<asrwt>0</asrwt>
<pdfrwt beam="1">  1       21 0.95545895E-02 0.45990565E+03</pdfrwt>
<pdfrwt beam="2">  1       21 0.11968718E+00 0.45990565E+03</pdfrwt>
<totfact> 0.42504309E+04</totfact>
</mgrwt>
</event>
<event>
 7    0  0.4725730E-002  0.4552672E+03  0.7546771E-02  0.1026163E+00
         21   -1    0    0  502  501  0.00000000000E+00  0.00000000000E+00  0.34404236766E+03  0.34404236766E+03  0.00000000000E+00 0.  1.
         21   -1    0    0  501  502 -0.00000000000E+00 -0.00000000000E+00 -0.15061243648E+03  0.15061243648E+03  0.00000000000E+00 0.  1.
      99926    2    1    2    0    0 -0.14210854715E-13  0.00000000000E+00  0.19342993118E+03  0.49465480414E+03  0.45526721492E+03 0.  0.
      99925    2    3    3    0    0 -0.11069153013E+03  0.12823795906E+02  0.14504202250E+03  0.32028174891E+03  0.26291851553E+03 0.  0.
         25    1    4    4    0    0 -0.25802579149E+02  0.12703146701E+02  0.99478551034E+02  0.16239037300E+03  0.12509000000E+03 0.  0.
         25    1    4    4    0    0 -0.84888950978E+02  0.12064920507E+00  0.45563471464E+02  0.15789137591E+03  0.12509000000E+03 0.  0.
         25    1    3    3    0    0  0.11069153013E+03 -0.12823795906E+02  0.48387908687E+02  0.17437305523E+03  0.12509000000E+03 0.  0.
<mgrwt>
<rscale>  2 0.45526721E+03</rscale>
<asrwt>0</asrwt>
<pdfrwt beam="1">  1       21 0.50594466E-01 0.45526721E+03</pdfrwt>
<pdfrwt beam="2">  1       21 0.22148888E-01 0.45526721E+03</pdfrwt>
<totfact> 0.65508753E+04</totfact>
</mgrwt>
</event>
<event>
 7    0  0.4725730E-002  0.4627881E+03  0.7546771E-02  0.1023976E+00
         21   -1    0    0  502  501  0.00000000000E+00  0.00000000000E+00  0.63761532467E+02  0.63761532467E+02  0.00000000000E+00 0.  1.
         21   -1    0    0  501  502 -0.00000000000E+00 -0.00000000000E+00 -0.83974139990E+03  0.83974139990E+03  0.00000000000E+00 0.  1.
      99926    2    1    2    0    0  0.00000000000E+00 -0.14210854715E-13 -0.77597986743E+03  0.90350293236E+03  0.46278806611E+03 0.  0.
      99925    2    3    3    0    0 -0.65567624307E+02 -0.73059314639E+02 -0.34893556693E+03  0.44781540839E+03  0.26295595318E+03 0.  0.
         25    1    3    3    0    0  0.65567624307E+02  0.73059314639E+02 -0.42704430050E+03  0.45568752397E+03  0.12509000000E+03 0.  0.
         25    1    4    4    0    0 -0.20644819977E+02 -0.33867746794E+00 -0.18830282381E+03  0.22700613395E+03  0.12509000000E+03 0.  0.
         25    1    4    4    0    0 -0.44922804330E+02 -0.72720637171E+02 -0.16063274312E+03  0.22080927444E+03  0.12509000000E+03 0.  0.
<mgrwt>
<rscale>  2 0.46278807E+03</rscale>
<asrwt>0</asrwt>
<pdfrwt beam="1">  1       21 0.93766963E-02 0.46278807E+03</pdfrwt>
<pdfrwt beam="2">  1       21 0.12349138E+00 0.46278807E+03</pdfrwt>
<totfact> 0.40552792E+04</totfact>
</mgrwt>
</event>
<event>
 7    0  0.4725730E-002  0.4310792E+03  0.7546771E-02  0.1033520E+00
         21   -1    0    0  502  501  0.00000000000E+00  0.00000000000E+00  0.75792121192E+03  0.75792121192E+03  0.00000000000E+00 0. -1.
         21   -1    0    0  501  502 -0.00000000000E+00 -0.00000000000E+00 -0.61295715671E+02  0.61295715671E+02  0.00000000000E+00 0. -1.
      99926    2    1    2    0    0  0.00000000000E+00  0.00000000000E+00  0.69662549625E+03  0.81921692759E+03  0.43107921827E+03 0.  0.
      99925    2    3    3    0    0  0.86704792370E+02  0.18523671872E+02  0.45993061825E+03  0.53720128829E+03  0.26303650525E+03 0.  0.
         25    1    4    4    0    0  0.59647776892E+02  0.39820381065E+02  0.28509691679E+03  0.31948596229E+03  0.12509000000E+03 0.  0.
         25    1    3    3    0    0 -0.86704792370E+02 -0.18523671872E+02  0.23669487799E+03  0.28201563930E+03  0.12509000000E+03 0.  0.
         25    1    4    4    0    0  0.27057015478E+02 -0.21296709193E+02  0.17483370146E+03  0.21771532600E+03  0.12509000000E+03 0.  0.
<mgrwt>
<rscale>  2 0.43107922E+03</rscale>
<asrwt>0</asrwt>
<pdfrwt beam="1">  1       21 0.11145900E+00 0.43107922E+03</pdfrwt>
<pdfrwt beam="2">  1       21 0.90140763E-02 0.43107922E+03</pdfrwt>
<totfact> 0.56780017E+04</totfact>
</mgrwt>
</event>
<event>
 7    0  0.4725730E-002  0.4723769E+03  0.7546771E-02  0.1021251E+00
         21   -1    0    0  502  501  0.00000000000E+00  0.00000000000E+00  0.93259691309E+03  0.93259691309E+03  0.00000000000E+00 0. -1.
         21   -1    0    0  501  502 -0.00000000000E+00 -0.00000000000E+00 -0.59816812262E+02  0.59816812262E+02  0.00000000000E+00 0. -1.
      99926    2    1    2    0    0  0.00000000000E+00  0.00000000000E+00  0.87278010083E+03  0.99241372535E+03  0.47237686000E+03 0.  0.
      99925    2    3    3    0    0 -0.78296731746E+02  0.74689100420E+02  0.39357455005E+03  0.48546766518E+03  0.26280998377E+03 0.  0.
         25    1    4    4    0    0 -0.26391586974E+02  0.12804442380E+02  0.13023029544E+03  0.18294236130E+03  0.12509000000E+03 0.  0.
         25    1    4    4    0    0 -0.51905144771E+02  0.61884658040E+02  0.26334425461E+03  0.30252530388E+03  0.12509000000E+03 0.  0.
         25    1    3    3    0    0  0.78296731746E+02 -0.74689100420E+02  0.47920555077E+03  0.50694606016E+03  0.12509000000E+03 0.  0.
<mgrwt>
<rscale>  2 0.47237686E+03</rscale>
<asrwt>0</asrwt>
<pdfrwt beam="1">  1       21 0.13714660E+00 0.47237686E+03</pdfrwt>
<pdfrwt beam="2">  1       21 0.87965906E-02 0.47237686E+03</pdfrwt>
<totfact> 0.34532473E+04</totfact>
</mgrwt>
</event>
<event>
 7    0  0.4725730E-002  0.4474865E+03  0.7546771E-02  0.1028474E+00
         21   -1    0    0  502  501  0.00000000000E+00  0.00000000000E+00  0.51581033507E+02  0.51581033507E+02  0.00000000000E+00 0.  1.
         21   -1    0    0  501  502 -0.00000000000E+00 -0.00000000000E+00 -0.97053196748E+03  0.97053196748E+03  0.00000000000E+00 0.  1.
      99926    2    1    2    0    0  0.00000000000E+00  0.71054273576E-14 -0.91895093398E+03  0.10221130010E+04  0.44748650006E+03 0.  0.
      99925    2    3    3    0    0 -0.71678186878E+02  0.58182583245E+02 -0.70099644639E+03  0.75439179857E+03  0.26303610480E+03 0.  0.
         25    1    4    4    0    0 -0.44281615696E+02 -0.44891702811E+01 -0.39724845960E+03  0.41884944896E+03  0.12509000000E+03 0.  0.
         25    1    4    4    0    0 -0.27396571182E+02  0.62671753526E+02 -0.30374798679E+03  0.33554234961E+03  0.12509000000E+03 0.  0.
         25    1    3    3    0    0  0.71678186878E+02 -0.58182583245E+02 -0.21795448759E+03  0.26772120242E+03  0.12509000000E+03 0.  0.
<mgrwt>
<rscale>  2 0.44748650E+03</rscale>
<asrwt>0</asrwt>
<pdfrwt beam="1">  1       21 0.75854466E-02 0.44748650E+03</pdfrwt>
<pdfrwt beam="2">  1       21 0.14272528E+00 0.44748650E+03</pdfrwt>
<totfact> 0.40650365E+04</totfact>
</mgrwt>
</event>
<event>
 7    0  0.4725730E-002  0.4496516E+03  0.7546771E-02  0.1027826E+00
         21   -1    0    0  502  501  0.00000000000E+00  0.00000000000E+00  0.61234460094E+03  0.61234460094E+03  0.00000000000E+00 0.  1.
         21   -1    0    0  501  502 -0.00000000000E+00 -0.00000000000E+00 -0.82546068089E+02  0.82546068089E+02  0.00000000000E+00 0.  1.
      99926    2    1    2    0    0  0.00000000000E+00  0.00000000000E+00  0.52979853285E+03  0.69489066903E+03  0.44965159456E+03 0.  0.
      99925    2    3    3    0    0 -0.86182769045E+01  0.93433221871E+01  0.16910689642E+03  0.31291221799E+03  0.26297403177E+03 0.  0.
         25    1    4    4    0    0  0.16037839317E+02 -0.28976871175E+02  0.71559185636E+02  0.14786851085E+03  0.12509000000E+03 0.  0.
         25    1    4    4    0    0 -0.24656116222E+02  0.38320193362E+02  0.97547710781E+02  0.16504370714E+03  0.12509000000E+03 0.  0.
         25    1    3    3    0    0  0.86182769045E+01 -0.93433221871E+01  0.36069163644E+03  0.38197845104E+03  0.12509000000E+03 0.  0.
<mgrwt>
<rscale>  2 0.44965159E+03</rscale>
<asrwt>0</asrwt>
<pdfrwt beam="1">  1       21 0.90050674E-01 0.44965159E+03</pdfrwt>
<pdfrwt beam="2">  1       21 0.12139128E-01 0.44965159E+03</pdfrwt>
<totfact> 0.55480144E+04</totfact>
</mgrwt>
</event>
<event>
 7    0  0.4725730E-002  0.4555246E+03  0.7546771E-02  0.1026087E+00
         21   -1    0    0  502  501  0.00000000000E+00  0.00000000000E+00  0.29402848549E+03  0.29402848549E+03  0.00000000000E+00 0. -1.
         21   -1    0    0  501  502 -0.00000000000E+00 -0.00000000000E+00 -0.17643076737E+03  0.17643076737E+03  0.00000000000E+00 0. -1.
      99926    2    1    2    0    0 -0.14210854715E-13 -0.71054273576E-14  0.11759771812E+03  0.47045925285E+03  0.45552462644E+03 0.  0.
      99925    2    3    3    0    0  0.94446043949E+02  0.45527787386E+02  0.11939102506E+03  0.30723070544E+03  0.26295181091E+03 0.  0.
         25    1    4    4    0    0  0.51812318574E+02 -0.55919822025E+01  0.27292999929E+02  0.13823242227E+03  0.12509000000E+03 0.  0.
         25    1    3    3    0    0 -0.94446043949E+02 -0.45527787386E+02 -0.17933069378E+01  0.16322854742E+03  0.12509000000E+03 0.  0.
         25    1    4    4    0    0  0.42633725375E+02  0.51119769589E+02  0.92098025126E+02  0.16899828317E+03  0.12509000000E+03 0.  0.
<mgrwt>
<rscale>  2 0.45552463E+03</rscale>
<asrwt>0</asrwt>
<pdfrwt beam="1">  1       21 0.43239483E-01 0.45552463E+03</pdfrwt>
<pdfrwt beam="2">  1       21 0.25945701E-01 0.45552463E+03</pdfrwt>
<totfact> 0.67121784E+04</totfact>
</mgrwt>
</event>
<event>
 7    0  0.4725730E-002  0.4539546E+03  0.7546771E-02  0.1026549E+00
         21   -1    0    0  502  501  0.00000000000E+00  0.00000000000E+00  0.51711233273E+02  0.51711233273E+02  0.00000000000E+00 0. -1.
         21   -1    0    0  501  502 -0.00000000000E+00 -0.00000000000E+00 -0.99627684264E+03  0.99627684264E+03  0.00000000000E+00 0. -1.
      99926    2    1    2    0    0  0.71054273576E-14 -0.44408920985E-14 -0.94456560937E+03  0.10479880759E+04  0.45395464185E+03 0.  0.
      99925    2    3    3    0    0  0.50044304655E+02 -0.21776335326E+01 -0.82669134985E+03  0.86896007901E+03  0.26299022128E+03 0.  0.
         25    1    3    3    0    0 -0.50044304655E+02  0.21776335326E+01 -0.11787425952E+03  0.17902799690E+03  0.12509000000E+03 0.  0.
         25    1    4    4    0    0  0.41519731656E+02  0.31413906685E+02 -0.36373515512E+03  0.38815137875E+03  0.12509000000E+03 0.  0.
         25    1    4    4    0    0  0.85245729991E+01 -0.33591540217E+02 -0.46295619473E+03  0.48080870027E+03  0.12509000000E+03 0.  0.
<mgrwt>
<rscale>  2 0.45395464E+03</rscale>
<asrwt>0</asrwt>
<pdfrwt beam="1">  1       21 0.76045939E-02 0.45395464E+03</pdfrwt>
<pdfrwt beam="2">  1       21 0.14651129E+00 0.45395464E+03</pdfrwt>
<totfact> 0.37657627E+04</totfact>
</mgrwt>
</event>
<event>
 7    0  0.4725730E-002  0.4334670E+03  0.7546771E-02  0.1032770E+00
         21   -1    0    0  502  501  0.00000000000E+00  0.00000000000E+00  0.25414538852E+03  0.25414538852E+03  0.00000000000E+00 0.  1.
         21   -1    0    0  501  502 -0.00000000000E+00 -0.00000000000E+00 -0.18482886353E+03  0.18482886353E+03  0.00000000000E+00 0.  1.
      99926    2    1    2    0    0  0.00000000000E+00  0.00000000000E+00  0.69316524997E+02  0.43897425205E+03  0.43346696913E+03 0.  0.
      99925    2    3    3    0    0 -0.51458900600E+02  0.41398737992E+02  0.10870087081E+03  0.29213928090E+03  0.26299735012E+03 0.  0.
         25    1    4    4    0    0 -0.34089742730E+01  0.28578783540E+02  0.88757582921E+02  0.15605699151E+03  0.12509000000E+03 0.  0.
         25    1    3    3    0    0  0.51458900600E+02 -0.41398737992E+02 -0.39384345810E+02  0.14683497115E+03  0.12509000000E+03 0.  0.
         25    1    4    4    0    0 -0.48049926327E+02  0.12819954452E+02  0.19943287886E+02  0.13608228938E+03  0.12509000000E+03 0.  0.
<mgrwt>
<rscale>  2 0.43346697E+03</rscale>
<asrwt>0</asrwt>
<pdfrwt beam="1">  1       21 0.37374322E-01 0.43346697E+03</pdfrwt>
<pdfrwt beam="2">  1       21 0.27180715E-01 0.43346697E+03</pdfrwt>
<totfact> 0.83123250E+04</totfact>
</mgrwt>
</event>
<event>
 7    0  0.4725730E-002  0.4545665E+03  0.7546771E-02  0.1026369E+00
         21   -1    0    0  502  501  0.00000000000E+00  0.00000000000E+00  0.27866402905E+03  0.27866402905E+03  0.00000000000E+00 0. -1.
         21   -1    0    0  501  502 -0.00000000000E+00 -0.00000000000E+00 -0.18537617453E+03  0.18537617453E+03  0.00000000000E+00 0. -1.
      99926    2    1    2    0    0  0.00000000000E+00  0.00000000000E+00  0.93287854518E+02  0.46404020358E+03  0.45456648220E+03 0.  0.
      99925    2    3    3    0    0  0.69292109137E+02  0.79624077172E+02  0.99268666993E+02  0.30025782274E+03  0.26298118149E+03 0.  0.
         25    1    4    4    0    0  0.68849701238E+02  0.49349393877E+02  0.29730125376E+02  0.15397088196E+03  0.12509000000E+03 0.  0.
         25    1    4    4    0    0  0.44240789902E+00  0.30274683295E+02  0.69538541617E+02  0.14628694078E+03  0.12509000000E+03 0.  0.
         25    1    3    3    0    0 -0.69292109137E+02 -0.79624077172E+02 -0.59808124742E+01  0.16378238084E+03  0.12509000000E+03 0.  0.
<mgrwt>
<rscale>  2 0.45456648E+03</rscale>
<asrwt>0</asrwt>
<pdfrwt beam="1">  1       21 0.40980004E-01 0.45456648E+03</pdfrwt>
<pdfrwt beam="2">  1       21 0.27261202E-01 0.45456648E+03</pdfrwt>
<totfact> 0.68116011E+04</totfact>
</mgrwt>
</event>
<event>
 7    0  0.4725730E-002  0.4576785E+03  0.7546771E-02  0.1025457E+00
         21   -1    0    0  502  501  0.00000000000E+00  0.00000000000E+00  0.14548891843E+03  0.14548891843E+03  0.00000000000E+00 0.  1.
         21   -1    0    0  501  502 -0.00000000000E+00 -0.00000000000E+00 -0.35994087107E+03  0.35994087107E+03  0.00000000000E+00 0.  1.
      99926    2    1    2    0    0  0.17763568394E-14  0.00000000000E+00 -0.21445195265E+03  0.50542978950E+03  0.45767852486E+03 0.  0.
      99925    2    3    3    0    0 -0.15741679279E+02 -0.93679478380E+02 -0.20707417017E+03  0.34818607767E+03  0.26330626197E+03 0.  0.
         25    1    4    4    0    0 -0.91736263174E+01 -0.67437054183E+02 -0.15367105415E+03  0.20950945726E+03  0.12509000000E+03 0.  0.
         25    1    3    3    0    0  0.15741679279E+02  0.93679478380E+02 -0.73777824786E+01  0.15724371183E+03  0.12509000000E+03 0.  0.
         25    1    4    4    0    0 -0.65680529616E+01 -0.26242424197E+02 -0.53403116017E+02  0.13867662041E+03  0.12509000000E+03 0.  0.
<mgrwt>
<rscale>  2 0.45767852E+03</rscale>
<asrwt>0</asrwt>
<pdfrwt beam="1">  1       21 0.21395429E-01 0.45767852E+03</pdfrwt>
<pdfrwt beam="2">  1       21 0.52932481E-01 0.45767852E+03</pdfrwt>
<totfact> 0.63529399E+04</totfact>
</mgrwt>
</event>
<event>
 7    0  0.4725730E-002  0.4294599E+03  0.7546771E-02  0.1034031E+00
         21   -1    0    0  502  501  0.00000000000E+00  0.00000000000E+00  0.51316222636E+03  0.51316222636E+03  0.00000000000E+00 0. -1.
         21   -1    0    0  501  502 -0.00000000000E+00 -0.00000000000E+00 -0.89852572954E+02  0.89852572954E+02  0.00000000000E+00 0. -1.
      99926    2    1    2    0    0 -0.35527136788E-14  0.00000000000E+00  0.42330965341E+03  0.60301479932E+03  0.42945987650E+03 0.  0.
      99925    2    3    3    0    0 -0.29877473092E+02  0.38992244609E+02  0.37400083640E+03  0.45986478684E+03  0.26303219957E+03 0.  0.
         25    1    3    3    0    0  0.29877473092E+02 -0.38992244609E+02  0.49308817012E+02  0.14315001248E+03  0.12509000000E+03 0.  0.
         25    1    4    4    0    0 -0.53112266363E+02  0.34500978906E+02  0.20093579153E+03  0.24501822544E+03  0.12509000000E+03 0.  0.
         25    1    4    4    0    0  0.23234793270E+02  0.44912657032E+01  0.17306504487E+03  0.21484656139E+03  0.12509000000E+03 0.  0.
<mgrwt>
<rscale>  2 0.42945988E+03</rscale>
<asrwt>0</asrwt>
<pdfrwt beam="1">  1       21 0.75465032E-01 0.42945988E+03</pdfrwt>
<pdfrwt beam="2">  1       21 0.13213614E-01 0.42945988E+03</pdfrwt>
<totfact> 0.71946563E+04</totfact>
</mgrwt>
</event>
<event>
 7    0  0.4725730E-002  0.4565758E+03  0.7546771E-02  0.1025779E+00
         21   -1    0    0  502  501  0.00000000000E+00  0.00000000000E+00  0.11465503389E+04  0.11465503389E+04  0.00000000000E+00 0. -1.
         21   -1    0    0  501  502 -0.00000000000E+00 -0.00000000000E+00 -0.45454048687E+02  0.45454048687E+02  0.00000000000E+00 0. -1.
      99926    2    1    2    0    0  0.00000000000E+00  0.14210854715E-13  0.11010962902E+04  0.11920043876E+04  0.45657575462E+03 0.  0.
      99925    2    3    3    0    0 -0.90112902359E+02 -0.70623403296E+02  0.67324532945E+03  0.73177406156E+03  0.26291824450E+03 0.  0.
         25    1    4    4    0    0 -0.32981005627E+02 -0.37291114352E+01  0.37323069648E+03  0.39503204161E+03  0.12509000000E+03 0.  0.
         25    1    4    4    0    0 -0.57131896732E+02 -0.66894291861E+02  0.30001463297E+03  0.33674201996E+03  0.12509000000E+03 0.  0.
         25    1    3    3    0    0  0.90112902359E+02  0.70623403296E+02  0.42785096078E+03  0.46023032604E+03  0.12509000000E+03 0.  0.
<mgrwt>
<rscale>  2 0.45657575E+03</rscale>
<asrwt>0</asrwt>
<pdfrwt beam="1">  1       21 0.16861032E+00 0.45657575E+03</pdfrwt>
<pdfrwt beam="2">  1       21 0.66844197E-02 0.45657575E+03</pdfrwt>
<totfact> 0.32015562E+04</totfact>
</mgrwt>
</event>
<event>
 7    0  0.4725730E-002  0.4533802E+03  0.7546771E-02  0.1026719E+00
         21   -1    0    0  502  501  0.00000000000E+00  0.00000000000E+00  0.52852487540E+03  0.52852487540E+03  0.00000000000E+00 0.  1.
         21   -1    0    0  501  502 -0.00000000000E+00 -0.00000000000E+00 -0.97229861043E+02  0.97229861043E+02  0.00000000000E+00 0.  1.
      99926    2    1    2    0    0  0.00000000000E+00  0.26645352591E-14  0.43129501436E+03  0.62575473644E+03  0.45338019451E+03 0.  0.
      99925    2    3    3    0    0  0.35471276916E+02 -0.54716555689E+01  0.12600193952E+03  0.29388198953E+03  0.26306270071E+03 0.  0.
         25    1    4    4    0    0 -0.11039830206E+02  0.21130661692E+02  0.79270668992E+02  0.14999909925E+03  0.12509000000E+03 0.  0.
         25    1    3    3    0    0 -0.35471276916E+02  0.54716555689E+01  0.30529307484E+03  0.33187274691E+03  0.12509000000E+03 0.  0.
         25    1    4    4    0    0  0.46511107122E+02 -0.26602317261E+02  0.46731270532E+02  0.14388289028E+03  0.12509000000E+03 0.  0.
<mgrwt>
<rscale>  2 0.45338019E+03</rscale>
<asrwt>0</asrwt>
<pdfrwt beam="1">  1       21 0.77724245E-01 0.45338019E+03</pdfrwt>
<pdfrwt beam="2">  1       21 0.14298509E-01 0.45338019E+03</pdfrwt>
<totfact> 0.57856706E+04</totfact>
</mgrwt>
</event>
<event>
 7    0  0.4725730E-002  0.4533627E+03  0.7546771E-02  0.1026724E+00
         21   -1    0    0  502  501  0.00000000000E+00  0.00000000000E+00  0.22485639714E+03  0.22485639714E+03  0.00000000000E+00 0.  1.
         21   -1    0    0  501  502 -0.00000000000E+00 -0.00000000000E+00 -0.22852111276E+03  0.22852111276E+03  0.00000000000E+00 0.  1.
      99926    2    1    2    0    0  0.00000000000E+00 -0.71054273576E-14 -0.36647156265E+01  0.45337750990E+03  0.45336269844E+03 0.  0.
      99925    2    3    3    0    0 -0.92273289690E+02  0.50349844906E+02  0.34651029187E+02  0.28555298465E+03  0.26323059539E+03 0.  0.
         25    1    4    4    0    0 -0.76035879056E+02  0.44507128812E+02 -0.53432562652E+01  0.15309604145E+03  0.12509000000E+03 0.  0.
         25    1    3    3    0    0  0.92273289690E+02 -0.50349844906E+02 -0.38315744813E+02  0.16782452524E+03  0.12509000000E+03 0.  0.
         25    1    4    4    0    0 -0.16237410634E+02  0.58427160936E+01  0.39994285452E+02  0.13245694321E+03  0.12509000000E+03 0.  0.
<mgrwt>
<rscale>  2 0.45336270E+03</rscale>
<asrwt>0</asrwt>
<pdfrwt beam="1">  1       21 0.33067117E-01 0.45336270E+03</pdfrwt>
<pdfrwt beam="2">  1       21 0.33606046E-01 0.45336270E+03</pdfrwt>
<totfact> 0.69569234E+04</totfact>
</mgrwt>
</event>
<event>
 7    0  0.4725730E-002  0.4652093E+03  0.7546771E-02  0.1023281E+00
         21   -1    0    0  502  501  0.00000000000E+00  0.00000000000E+00  0.34049313131E+03  0.34049313131E+03  0.00000000000E+00 0. -1.
         21   -1    0    0  501  502 -0.00000000000E+00 -0.00000000000E+00 -0.15890162487E+03  0.15890162487E+03  0.00000000000E+00 0. -1.
      99926    2    1    2    0    0  0.00000000000E+00 -0.14210854715E-13  0.18159150644E+03  0.49939475618E+03  0.46520925108E+03 0.  0.
      99925    2    3    3    0    0 -0.23232990002E+02 -0.11587914301E+03  0.79253380140E+02  0.29917400850E+03  0.26316580608E+03 0.  0.
         25    1    3    3    0    0  0.23232990002E+02  0.11587914301E+03  0.10233812630E+03  0.20022074768E+03  0.12509000000E+03 0.  0.
         25    1    4    4    0    0  0.14714117865E+02 -0.77958740261E+02  0.66814801071E+02  0.16249860365E+03  0.12509000000E+03 0.  0.
         25    1    4    4    0    0 -0.37947107867E+02 -0.37920402748E+02  0.12438579070E+02  0.13667540484E+03  0.12509000000E+03 0.  0.
<mgrwt>
<rscale>  2 0.46520925E+03</rscale>
<asrwt>0</asrwt>
<pdfrwt beam="1">  1       21 0.50072519E-01 0.46520925E+03</pdfrwt>
<pdfrwt beam="2">  1       21 0.23367886E-01 0.46520925E+03</pdfrwt>
<totfact> 0.60277752E+04</totfact>
</mgrwt>
</event>
<event>
 7    0  0.4725730E-002  0.4578076E+03  0.7546771E-02  0.1025419E+00
         21   -1    0    0  502  501  0.00000000000E+00  0.00000000000E+00  0.26457220219E+03  0.26457220219E+03  0.00000000000E+00 0.  1.
         21   -1    0    0  501  502 -0.00000000000E+00 -0.00000000000E+00 -0.19804404821E+03  0.19804404821E+03  0.00000000000E+00 0.  1.
      99926    2    1    2    0    0  0.00000000000E+00  0.00000000000E+00  0.66528153974E+02  0.46261625040E+03  0.45780760136E+03 0.  0.
      99925    2    3    3    0    0  0.23586895440E+02 -0.34857781604E+02  0.15067606480E+03  0.30609217694E+03  0.26309264092E+03 0.  0.
         25    1    4    4    0    0  0.21491719005E+02 -0.48078545746E+02  0.48865486855E+02  0.14425250241E+03  0.12509000000E+03 0.  0.
         25    1    3    3    0    0 -0.23586895440E+02  0.34857781604E+02 -0.84147910829E+02  0.15652407346E+03  0.12509000000E+03 0.  0.
         25    1    4    4    0    0  0.20951764352E+01  0.13220764142E+02  0.10181057795E+03  0.16183967453E+03  0.12509000000E+03 0.  0.
<mgrwt>
<rscale>  2 0.45780760E+03</rscale>
<asrwt>0</asrwt>
<pdfrwt beam="1">  1       21 0.38907677E-01 0.45780760E+03</pdfrwt>
<pdfrwt beam="2">  1       21 0.29124125E-01 0.45780760E+03</pdfrwt>
<totfact> 0.66489133E+04</totfact>
</mgrwt>
</event>
<event>
 7    0  0.4725730E-002  0.4078569E+03  0.7546771E-02  0.1041093E+00
         21   -1    0    0  502  501  0.00000000000E+00  0.00000000000E+00  0.16692358746E+03  0.16692358746E+03  0.00000000000E+00 0. -1.
         21   -1    0    0  501  502 -0.00000000000E+00 -0.00000000000E+00 -0.24913683110E+03  0.24913683110E+03  0.00000000000E+00 0. -1.
      99926    2    1    2    0    0 -0.35527136788E-14 -0.71054273576E-14 -0.82213243644E+02  0.41606041856E+03  0.40785690440E+03 0.  0.
      99925    2    3    3    0    0  0.26249945906E+02  0.46949599149E+02 -0.78721017503E+02  0.27985091719E+03  0.26310874698E+03 0.  0.
         25    1    4    4    0    0 -0.26978019497E+02  0.17852468087E+02 -0.44774341350E+02  0.13674346016E+03  0.12509000000E+03 0.  0.
         25    1    4    4    0    0  0.53227965402E+02  0.29097131062E+02 -0.33946676153E+02  0.14310745703E+03  0.12509000000E+03 0.  0.
         25    1    3    3    0    0 -0.26249945906E+02 -0.46949599149E+02 -0.34922261407E+01  0.13620950137E+03  0.12509000000E+03 0.  0.
<mgrwt>
<rscale>  2 0.40785690E+03</rscale>
<asrwt>0</asrwt>
<pdfrwt beam="1">  1       21 0.24547587E-01 0.40785690E+03</pdfrwt>
<pdfrwt beam="2">  1       21 0.36637769E-01 0.40785690E+03</pdfrwt>
<totfact> 0.10612384E+05</totfact>
</mgrwt>
</event>
<event>
 7    0  0.4725730E-002  0.4553414E+03  0.7546771E-02  0.1026141E+00
         21   -1    0    0  502  501  0.00000000000E+00  0.00000000000E+00  0.90477185482E+02  0.90477185482E+02  0.00000000000E+00 0. -1.
         21   -1    0    0  501  502 -0.00000000000E+00 -0.00000000000E+00 -0.57289524228E+03  0.57289524228E+03  0.00000000000E+00 0. -1.
      99926    2    1    2    0    0  0.71054273576E-14 -0.14210854715E-13 -0.48241805680E+03  0.66337242776E+03  0.45534140641E+03 0.  0.
      99925    2    3    3    0    0 -0.60063903898E+02  0.96156862736E+02 -0.30723632630E+03  0.42008255620E+03  0.26309956105E+03 0.  0.
         25    1    4    4    0    0 -0.66470121104E+02  0.30508097436E+02 -0.16273182223E+03  0.21789487161E+03  0.12509000000E+03 0.  0.
         25    1    4    4    0    0  0.64062172063E+01  0.65648765299E+02 -0.14450450407E+03  0.20218768459E+03  0.12509000000E+03 0.  0.
         25    1    3    3    0    0  0.60063903898E+02 -0.96156862736E+02 -0.17518173050E+03  0.24328987156E+03  0.12509000000E+03 0.  0.
<mgrwt>
<rscale>  2 0.45534141E+03</rscale>
<asrwt>0</asrwt>
<pdfrwt beam="1">  1       21 0.13305469E-01 0.45534141E+03</pdfrwt>
<pdfrwt beam="2">  1       21 0.84249297E-01 0.45534141E+03</pdfrwt>
<totfact> 0.54789186E+04</totfact>
</mgrwt>
</event>
<event>
 7    0  0.4725730E-002  0.4559558E+03  0.7546771E-02  0.1025961E+00
         21   -1    0    0  502  501  0.00000000000E+00  0.00000000000E+00  0.70452262799E+03  0.70452262799E+03  0.00000000000E+00 0.  1.
         21   -1    0    0  501  502 -0.00000000000E+00 -0.00000000000E+00 -0.73771832718E+02  0.73771832718E+02  0.00000000000E+00 0.  1.
      99926    2    1    2    0    0  0.35527136788E-14  0.00000000000E+00  0.63075079527E+03  0.77829446070E+03  0.45595581127E+03 0.  0.
      99925    2    3    3    0    0 -0.18579881365E+02  0.65322798715E+02  0.55291464656E+03  0.61606544305E+03  0.26307744813E+03 0.  0.
         25    1    3    3    0    0  0.18579881365E+02 -0.65322798715E+02  0.77836148707E+02  0.16222901765E+03  0.12509000000E+03 0.  0.
         25    1    4    4    0    0 -0.23340948705E+02  0.63887138619E+02  0.34706674360E+03  0.37513890624E+03  0.12509000000E+03 0.  0.
         25    1    4    4    0    0  0.47610673395E+01  0.14356600960E+01  0.20584790297E+03  0.24092653681E+03  0.12509000000E+03 0.  0.
<mgrwt>
<rscale>  2 0.45595581E+03</rscale>
<asrwt>0</asrwt>
<pdfrwt beam="1">  1       21 0.10360627E+00 0.45595581E+03</pdfrwt>
<pdfrwt beam="2">  1       21 0.10848799E-01 0.45595581E+03</pdfrwt>
<totfact> 0.48467981E+04</totfact>
</mgrwt>
</event>
<event>
 7    0  0.4725730E-002  0.4518816E+03  0.7546771E-02  0.1027162E+00
         21   -1    0    0  502  501  0.00000000000E+00  0.00000000000E+00  0.14913925607E+03  0.14913925607E+03  0.00000000000E+00 0.  1.
         21   -1    0    0  501  502 -0.00000000000E+00 -0.00000000000E+00 -0.34229242162E+03  0.34229242162E+03  0.00000000000E+00 0.  1.
      99926    2    1    2    0    0  0.00000000000E+00 -0.88817841970E-15 -0.19315316555E+03  0.49143167768E+03  0.45188156465E+03 0.  0.
      99925    2    3    3    0    0  0.10945868656E+03  0.32145546955E+01 -0.13542386025E+03  0.31544384227E+03  0.26300885588E+03 0.  0.
         25    1    3    3    0    0 -0.10945868656E+03 -0.32145546955E+01 -0.57729305295E+02  0.17598783542E+03  0.12509000000E+03 0.  0.
         25    1    4    4    0    0  0.60035489779E+02 -0.31572064029E+02 -0.93743290779E+02  0.17040061011E+03  0.12509000000E+03 0.  0.
         25    1    4    4    0    0  0.49423196782E+02  0.34786618724E+02 -0.41680569475E+02  0.14504323216E+03  0.12509000000E+03 0.  0.
<mgrwt>
<rscale>  2 0.45188156E+03</rscale>
<asrwt>0</asrwt>
<pdfrwt beam="1">  1       21 0.21932244E-01 0.45188156E+03</pdfrwt>
<pdfrwt beam="2">  1       21 0.50337120E-01 0.45188156E+03</pdfrwt>
<totfact> 0.67533341E+04</totfact>
</mgrwt>
</event>
<event>
 7    0  0.4725730E-002  0.4441228E+03  0.7546771E-02  0.1029489E+00
         21   -1    0    0  502  501  0.00000000000E+00  0.00000000000E+00  0.15220077413E+03  0.15220077413E+03  0.00000000000E+00 0. -1.
         21   -1    0    0  501  502 -0.00000000000E+00 -0.00000000000E+00 -0.32398825750E+03  0.32398825750E+03  0.00000000000E+00 0. -1.
      99926    2    1    2    0    0  0.00000000000E+00  0.71054273576E-14 -0.17178748337E+03  0.47618903163E+03  0.44412279203E+03 0.  0.
      99925    2    3    3    0    0  0.19264052339E+02 -0.56771936749E+02 -0.19872065501E+03  0.33488418263E+03  0.26279908777E+03 0.  0.
         25    1    4    4    0    0 -0.96348784428E+01 -0.63205181131E+02 -0.11416261067E+03  0.18102026290E+03  0.12509000000E+03 0.  0.
         25    1    4    4    0    0  0.28898930782E+02  0.64332443818E+01 -0.84558044346E+02  0.15386391974E+03  0.12509000000E+03 0.  0.
         25    1    3    3    0    0 -0.19264052339E+02  0.56771936749E+02  0.26933171644E+02  0.14130484900E+03  0.12509000000E+03 0.  0.
<mgrwt>
<rscale>  2 0.44412279E+03</rscale>
<asrwt>0</asrwt>
<pdfrwt beam="1">  1       21 0.22382467E-01 0.44412279E+03</pdfrwt>
<pdfrwt beam="2">  1       21 0.47645331E-01 0.44412279E+03</pdfrwt>
<totfact> 0.73088218E+04</totfact>
</mgrwt>
</event>
<event>
 7    0  0.4725730E-002  0.4536731E+03  0.7546771E-02  0.1026632E+00
         21   -1    0    0  502  501  0.00000000000E+00  0.00000000000E+00  0.36150347497E+03  0.36150347497E+03  0.00000000000E+00 0. -1.
         21   -1    0    0  501  502 -0.00000000000E+00 -0.00000000000E+00 -0.14233562038E+03  0.14233562038E+03  0.00000000000E+00 0. -1.
      99926    2    1    2    0    0  0.00000000000E+00  0.00000000000E+00  0.21916785459E+03  0.50383909535E+03  0.45367310425E+03 0.  0.
      99925    2    3    3    0    0 -0.50709537091E+02 -0.76268996607E+02  0.20889688783E+03  0.34846400773E+03  0.26344038783E+03 0.  0.
         25    1    4    4    0    0 -0.50523726905E+02 -0.11710528353E+02  0.12675541104E+03  0.18548376151E+03  0.12509000000E+03 0.  0.
         25    1    3    3    0    0  0.50709537091E+02  0.76268996607E+02  0.10270966755E+02  0.15537508762E+03  0.12509000000E+03 0.  0.
         25    1    4    4    0    0 -0.18581018567E+00 -0.64558468254E+02  0.82141476791E+02  0.16298024622E+03  0.12509000000E+03 0.  0.
<mgrwt>
<rscale>  2 0.45367310E+03</rscale>
<asrwt>0</asrwt>
<pdfrwt beam="1">  1       21 0.53162276E-01 0.45367310E+03</pdfrwt>
<pdfrwt beam="2">  1       21 0.20931709E-01 0.45367310E+03</pdfrwt>
<totfact> 0.65690926E+04</totfact>
</mgrwt>
</event>
<event>
 7    0  0.4725730E-002  0.4468183E+03  0.7546771E-02  0.1028675E+00
         21   -1    0    0  502  501  0.00000000000E+00  0.00000000000E+00  0.31016742109E+03  0.31016742109E+03  0.00000000000E+00 0.  1.
         21   -1    0    0  501  502 -0.00000000000E+00 -0.00000000000E+00 -0.16091837631E+03  0.16091837631E+03  0.00000000000E+00 0.  1.
      99926    2    1    2    0    0  0.00000000000E+00  0.88817841970E-15  0.14924904478E+03  0.47108579739E+03  0.44681825292E+03 0.  0.
      99925    2    3    3    0    0  0.99613458955E+02  0.21433219525E+01  0.58829251633E+02  0.28737221018E+03  0.26304842007E+03 0.  0.
         25    1    4    4    0    0  0.86736417402E+02 -0.14208059311E+02  0.47342156865E+02  0.16004331592E+03  0.12509000000E+03 0.  0.
         25    1    4    4    0    0  0.12877041553E+02  0.16351381263E+02  0.11487094768E+02  0.12732889426E+03  0.12509000000E+03 0.  0.
         25    1    3    3    0    0 -0.99613458955E+02 -0.21433219525E+01  0.90419793145E+02  0.18371358721E+03  0.12509000000E+03 0.  0.
<mgrwt>
<rscale>  2 0.44681825E+03</rscale>
<asrwt>0</asrwt>
<pdfrwt beam="1">  1       21 0.45612856E-01 0.44681825E+03</pdfrwt>
<pdfrwt beam="2">  1       21 0.23664467E-01 0.44681825E+03</pdfrwt>
<totfact> 0.71912075E+04</totfact>
</mgrwt>
</event>
<event>
 7    0  0.4725730E-002  0.4524093E+03  0.7546771E-02  0.1027006E+00
         21   -1    0    0  502  501  0.00000000000E+00  0.00000000000E+00  0.12026698770E+04  0.12026698770E+04  0.00000000000E+00 0.  1.
         21   -1    0    0  501  502 -0.00000000000E+00 -0.00000000000E+00 -0.42545785044E+02  0.42545785044E+02  0.00000000000E+00 0.  1.
      99926    2    1    2    0    0  0.00000000000E+00  0.14210854715E-13  0.11601240920E+04  0.12452156620E+04  0.45240925749E+03 0.  0.
      99925    2    3    3    0    0  0.14264160745E+02  0.90159741569E+02  0.90596379319E+03  0.94759642401E+03  0.26236680989E+03 0.  0.
         25    1    4    4    0    0  0.20351174501E+02  0.60455429777E+01  0.40490669072E+03  0.42432022717E+03  0.12509000000E+03 0.  0.
         25    1    4    4    0    0 -0.60870137560E+01  0.84114198592E+02  0.50105710247E+03  0.52327619684E+03  0.12509000000E+03 0.  0.
         25    1    3    3    0    0 -0.14264160745E+02 -0.90159741569E+02  0.25416029876E+03  0.29761923804E+03  0.12509000000E+03 0.  0.
<mgrwt>
<rscale>  2 0.45240926E+03</rscale>
<asrwt>0</asrwt>
<pdfrwt beam="1">  1       21 0.17686319E+00 0.45240926E+03</pdfrwt>
<pdfrwt beam="2">  1       21 0.62567339E-02 0.45240926E+03</pdfrwt>
<totfact> 0.31376209E+04</totfact>
</mgrwt>
</event>
<event>
 7    0  0.4725730E-002  0.4559433E+03  0.7546771E-02  0.1025964E+00
         21   -1    0    0  502  501  0.00000000000E+00  0.00000000000E+00  0.23167997112E+03  0.23167997112E+03  0.00000000000E+00 0. -1.
         21   -1    0    0  501  502 -0.00000000000E+00 -0.00000000000E+00 -0.22432271870E+03  0.22432271870E+03  0.00000000000E+00 0. -1.
      99926    2    1    2    0    0  0.00000000000E+00  0.00000000000E+00  0.73572524120E+01  0.45600268982E+03  0.45594333415E+03 0.  0.
      99925    2    3    3    0    0 -0.77288206208E+02 -0.81263522247E+02  0.25787128286E+02  0.28699264488E+03  0.26291172541E+03 0.  0.
         25    1    4    4    0    0 -0.12482442249E+02 -0.86667277754E+01  0.25207824804E+02  0.12850628804E+03  0.12509000000E+03 0.  0.
         25    1    3    3    0    0  0.77288206208E+02  0.81263522247E+02 -0.18429875874E+02  0.16901004494E+03  0.12509000000E+03 0.  0.
         25    1    4    4    0    0 -0.64805763960E+02 -0.72596794472E+02  0.57930348163E+00  0.15848635683E+03  0.12509000000E+03 0.  0.
<mgrwt>
<rscale>  2 0.45594333E+03</rscale>
<asrwt>0</asrwt>
<pdfrwt beam="1">  1       21 0.34070584E-01 0.45594333E+03</pdfrwt>
<pdfrwt beam="2">  1       21 0.32988635E-01 0.45594333E+03</pdfrwt>
<totfact> 0.67959439E+04</totfact>
</mgrwt>
</event>
<event>
 7    0  0.4725730E-002  0.4569234E+03  0.7546771E-02  0.1025677E+00
         21   -1    0    0  502  501  0.00000000000E+00  0.00000000000E+00  0.13776686640E+03  0.13776686640E+03  0.00000000000E+00 0.  1.
         21   -1    0    0  501  502 -0.00000000000E+00 -0.00000000000E+00 -0.37886279344E+03  0.37886279344E+03  0.00000000000E+00 0.  1.
      99926    2    1    2    0    0  0.71054273576E-14  0.14210854715E-13 -0.24109592705E+03  0.51662965984E+03  0.45692336271E+03 0.  0.
      99925    2    3    3    0    0 -0.41836112948E+02 -0.10660077241E+03 -0.13916820814E+03  0.31876416763E+03  0.26292359990E+03 0.  0.
         25    1    4    4    0    0 -0.11498506301E+02 -0.10386829733E+02 -0.63554786032E+02  0.14116239162E+03  0.12509000000E+03 0.  0.
         25    1    4    4    0    0 -0.30337606647E+02 -0.96213942674E+02 -0.75613422107E+02  0.17760177602E+03  0.12509000000E+03 0.  0.
         25    1    3    3    0    0  0.41836112948E+02  0.10660077241E+03 -0.10192771891E+03  0.19786549221E+03  0.12509000000E+03 0.  0.
<mgrwt>
<rscale>  2 0.45692336E+03</rscale>
<asrwt>0</asrwt>
<pdfrwt beam="1">  1       21 0.20259833E-01 0.45692336E+03</pdfrwt>
<pdfrwt beam="2">  1       21 0.55715117E-01 0.45692336E+03</pdfrwt>
<totfact> 0.63148205E+04</totfact>
</mgrwt>
</event>
<event>
 6    0  0.4725730E-002  0.4606014E+03  0.7546771E-02  0.1024607E+00
         21   -1    0    0  502  501  0.00000000000E+00  0.00000000000E+00  0.12772694974E+03  0.12772694974E+03  0.00000000000E+00 0. -1.
         21   -1    0    0  501  502 -0.00000000000E+00 -0.00000000000E+00 -0.41524842606E+03  0.41524842606E+03  0.00000000000E+00 0. -1.
      99926    2    1    2    0    0  0.00000000000E+00  0.17763568394E-14 -0.28752147632E+03  0.54297537580E+03  0.46060141053E+03 0.  0.
         25    1    3    3    0    0  0.82129980020E+02 -0.10745774528E+02 -0.19276849070E+03  0.24427035104E+03  0.12509000000E+03 0.  0.
         25    1    3    3    0    0 -0.45437738171E+02  0.11572422298E+02  0.63371137716E+01  0.13373920935E+03  0.12509000000E+03 0.  0.
         25    1    3    3    0    0 -0.36692241849E+02 -0.82664777047E+00 -0.10109009939E+03  0.16496581540E+03  0.12509000000E+03 0.  0.
<mgrwt>
<rscale>  2 0.46060141E+03</rscale>
<asrwt>0</asrwt>
<pdfrwt beam="1">  1       21 0.18783375E-01 0.46060141E+03</pdfrwt>
<pdfrwt beam="2">  1       21 0.61065946E-01 0.46060141E+03</pdfrwt>
<totfact> 0.59644742E+04</totfact>
</mgrwt>
</event>
<event>
 7    0  0.4725730E-002  0.4549903E+03  0.7546771E-02  0.1026244E+00
         21   -1    0    0  502  501  0.00000000000E+00  0.00000000000E+00  0.19176835390E+03  0.19176835390E+03  0.00000000000E+00 0. -1.
         21   -1    0    0  501  502 -0.00000000000E+00 -0.00000000000E+00 -0.26987788216E+03  0.26987788216E+03  0.00000000000E+00 0. -1.
      99926    2    1    2    0    0  0.00000000000E+00  0.00000000000E+00 -0.78109528254E+02  0.46164623606E+03  0.45499027338E+03 0.  0.
      99925    2    3    3    0    0  0.86400219393E+02 -0.67551410210E+02 -0.77881681741E+02  0.29528593146E+03  0.26286885330E+03 0.  0.
         25    1    4    4    0    0  0.30113478794E+02 -0.56335388534E+02 -0.73781774161E+01  0.14065007362E+03  0.12509000000E+03 0.  0.
         25    1    4    4    0    0  0.56286740600E+02 -0.11216021676E+02 -0.70503504325E+02  0.15463585785E+03  0.12509000000E+03 0.  0.
         25    1    3    3    0    0 -0.86400219393E+02  0.67551410210E+02 -0.22784651255E+00  0.16636030460E+03  0.12509000000E+03 0.  0.
<mgrwt>
<rscale>  2 0.45499027E+03</rscale>
<asrwt>0</asrwt>
<pdfrwt beam="1">  1       21 0.28201229E-01 0.45499027E+03</pdfrwt>
<pdfrwt beam="2">  1       21 0.39687924E-01 0.45499027E+03</pdfrwt>
<totfact> 0.68065035E+04</totfact>
</mgrwt>
</event>
<event>
 7    0  0.4725730E-002  0.4574827E+03  0.7546771E-02  0.1025514E+00
         21   -1    0    0  502  501  0.00000000000E+00  0.00000000000E+00  0.14202082896E+04  0.14202082896E+04  0.00000000000E+00 0. -1.
         21   -1    0    0  501  502 -0.00000000000E+00 -0.00000000000E+00 -0.36841508764E+02  0.36841508764E+02  0.00000000000E+00 0. -1.
      99926    2    1    2    0    0 -0.71054273576E-14  0.14210854715E-13  0.13833667808E+04  0.14570497984E+04  0.45748274786E+03 0.  0.
      99925    2    3    3    0    0 -0.49906054615E+02  0.72320623601E+02  0.62985042298E+03  0.68818355737E+03  0.26299081052E+03 0.  0.
         25    1    3    3    0    0  0.49906054615E+02 -0.72320623601E+02  0.75351635785E+03  0.76886624099E+03  0.12509000000E+03 0.  0.
         25    1    4    4    0    0 -0.47413565765E+02  0.72116836364E+02  0.35813901216E+03  0.38905005389E+03  0.12509000000E+03 0.  0.
         25    1    4    4    0    0 -0.24924888499E+01  0.20378723710E+00  0.27171141083E+03  0.29913350348E+03  0.12509000000E+03 0.  0.
<mgrwt>
<rscale>  2 0.45748275E+03</rscale>
<asrwt>0</asrwt>
<pdfrwt beam="1">  1       21 0.20885412E+00 0.45748275E+03</pdfrwt>
<pdfrwt beam="2">  1       21 0.54178699E-02 0.45748275E+03</pdfrwt>
<totfact> 0.24376903E+04</totfact>
</mgrwt>
</event>
<event>
 7    0  0.4725730E-002  0.4505569E+03  0.7546771E-02  0.1027556E+00
         21   -1    0    0  502  501  0.00000000000E+00  0.00000000000E+00  0.13445115704E+03  0.13445115704E+03  0.00000000000E+00 0. -1.
         21   -1    0    0  501  502 -0.00000000000E+00 -0.00000000000E+00 -0.37746328037E+03  0.37746328037E+03  0.00000000000E+00 0. -1.
      99926    2    1    2    0    0  0.00000000000E+00 -0.13322676296E-14 -0.24301212333E+03  0.51191443741E+03  0.45055687670E+03 0.  0.
      99925    2    3    3    0    0 -0.91261091342E+02 -0.98368216673E+00 -0.87468585163E+02  0.29243583984E+03  0.26370137014E+03 0.  0.
         25    1    3    3    0    0  0.91261091342E+02  0.98368216673E+00 -0.15554353817E+03  0.21947859756E+03  0.12509000000E+03 0.  0.
         25    1    4    4    0    0 -0.65877049112E+02  0.32961029924E+02 -0.62355264366E+02  0.15799336121E+03  0.12509000000E+03 0.  0.
         25    1    4    4    0    0 -0.25384042231E+02 -0.33944712091E+02 -0.25113320797E+02  0.13444247863E+03  0.12509000000E+03 0.  0.
<mgrwt>
<rscale>  2 0.45055688E+03</rscale>
<asrwt>0</asrwt>
<pdfrwt beam="1">  1       21 0.19772229E-01 0.45055688E+03</pdfrwt>
<pdfrwt beam="2">  1       21 0.55509305E-01 0.45055688E+03</pdfrwt>
<totfact> 0.66764538E+04</totfact>
</mgrwt>
</event>
<event>
 7    0  0.4725730E-002  0.4543880E+03  0.7546771E-02  0.1026422E+00
         21   -1    0    0  502  501  0.00000000000E+00  0.00000000000E+00  0.31416518655E+02  0.31416518655E+02  0.00000000000E+00 0. -1.
         21   -1    0    0  501  502 -0.00000000000E+00 -0.00000000000E+00 -0.16429930594E+04  0.16429930594E+04  0.00000000000E+00 0. -1.
      99926    2    1    2    0    0  0.00000000000E+00  0.00000000000E+00 -0.16115765407E+04  0.16744095780E+04  0.45438803726E+03 0.  0.
      99925    2    3    3    0    0  0.33127391444E+02 -0.10715181825E+03 -0.97858643949E+03  0.10195027812E+04  0.26301248078E+03 0.  0.
         25    1    3    3    0    0 -0.33127391444E+02  0.10715181825E+03 -0.63299010122E+03  0.65490679685E+03  0.12509000000E+03 0.  0.
         25    1    4    4    0    0  0.29088352613E+02 -0.94612871665E+02 -0.51330729083E+03  0.53752173041E+03  0.12509000000E+03 0.  0.
         25    1    4    4    0    0  0.40390388311E+01 -0.12538946583E+02 -0.46527914866E+03  0.48198105076E+03  0.12509000000E+03 0.  0.
<mgrwt>
<rscale>  2 0.45438804E+03</rscale>
<asrwt>0</asrwt>
<pdfrwt beam="1">  1       21 0.46200753E-02 0.45438804E+03</pdfrwt>
<pdfrwt beam="2">  1       21 0.24161668E+00 0.45438804E+03</pdfrwt>
<totfact> 0.19893760E+04</totfact>
</mgrwt>
</event>
<event>
 7    0  0.4725730E-002  0.4572122E+03  0.7546771E-02  0.1025593E+00
         21   -1    0    0  502  501  0.00000000000E+00  0.00000000000E+00  0.21268343405E+03  0.21268343405E+03  0.00000000000E+00 0. -1.
         21   -1    0    0  501  502 -0.00000000000E+00 -0.00000000000E+00 -0.24572080690E+03  0.24572080690E+03  0.00000000000E+00 0. -1.
      99926    2    1    2    0    0  0.00000000000E+00  0.00000000000E+00 -0.33037372849E+02  0.45840424096E+03  0.45721218282E+03 0.  0.
      99925    2    3    3    0    0  0.63605781826E+02 -0.86654223349E+02 -0.62208736358E+02  0.29091356523E+03  0.26307057162E+03 0.  0.
         25    1    4    4    0    0  0.54616978317E+02 -0.19215445150E+02 -0.64484192258E+01  0.13799035424E+03  0.12509000000E+03 0.  0.
         25    1    4    4    0    0  0.89888035094E+01 -0.67438778199E+02 -0.55760317132E+02  0.15292321099E+03  0.12509000000E+03 0.  0.
         25    1    3    3    0    0 -0.63605781826E+02  0.86654223349E+02  0.29171363509E+02  0.16749067573E+03  0.12509000000E+03 0.  0.
<mgrwt>
<rscale>  2 0.45721218E+03</rscale>
<asrwt>0</asrwt>
<pdfrwt beam="1">  1       21 0.31276976E-01 0.45721218E+03</pdfrwt>
<pdfrwt beam="2">  1       21 0.36135413E-01 0.45721218E+03</pdfrwt>
<totfact> 0.67104877E+04</totfact>
</mgrwt>
</event>
<event>
 7    0  0.4725730E-002  0.4543957E+03  0.7546771E-02  0.1026419E+00
         21   -1    0    0  502  501  0.00000000000E+00  0.00000000000E+00  0.17464143104E+03  0.17464143104E+03  0.00000000000E+00 0.  1.
         21   -1    0    0  501  502 -0.00000000000E+00 -0.00000000000E+00 -0.29557049869E+03  0.29557049869E+03  0.00000000000E+00 0.  1.
      99926    2    1    2    0    0  0.00000000000E+00  0.00000000000E+00 -0.12092906765E+03  0.47021192972E+03  0.45439566399E+03 0.  0.
      99925    2    3    3    0    0 -0.78137631713E+02  0.69720866140E+02 -0.11897862322E+03  0.30706230209E+03  0.26299212139E+03 0.  0.
         25    1    4    4    0    0 -0.61342318057E+02  0.14315408804E+02 -0.30705233330E+02  0.14338106698E+03  0.12509000000E+03 0.  0.
         25    1    4    4    0    0 -0.16795313656E+02  0.55405457336E+02 -0.88273389891E+02  0.16368123511E+03  0.12509000000E+03 0.  0.
         25    1    3    3    0    0  0.78137631713E+02 -0.69720866140E+02 -0.19504444319E+01  0.16314962764E+03  0.12509000000E+03 0.  0.
<mgrwt>
<rscale>  2 0.45439566E+03</rscale>
<asrwt>0</asrwt>
<pdfrwt beam="1">  1       21 0.25682564E-01 0.45439566E+03</pdfrwt>
<pdfrwt beam="2">  1       21 0.43466249E-01 0.45439566E+03</pdfrwt>
<totfact> 0.67744157E+04</totfact>
</mgrwt>
</event>
<event>
 7    0  0.4725730E-002  0.4570158E+03  0.7546771E-02  0.1025650E+00
         21   -1    0    0  502  501  0.00000000000E+00  0.00000000000E+00  0.11661477488E+03  0.11661477488E+03  0.00000000000E+00 0.  1.
         21   -1    0    0  501  502 -0.00000000000E+00 -0.00000000000E+00 -0.44776371300E+03  0.44776371300E+03  0.00000000000E+00 0.  1.
      99926    2    1    2    0    0 -0.14210854715E-13  0.00000000000E+00 -0.33114893813E+03  0.56437848788E+03  0.45701581850E+03 0.  0.
      99925    2    3    3    0    0 -0.82828169554E+02 -0.71772016685E+02 -0.16079825705E+03  0.32630582944E+03  0.26193069085E+03 0.  0.
         25    1    4    4    0    0 -0.72900099356E+02 -0.20086519377E+02 -0.10292205842E+03  0.17876898768E+03  0.12509000000E+03 0.  0.
         25    1    4    4    0    0 -0.99280701988E+01 -0.51685497309E+02 -0.57876198631E+02  0.14753684176E+03  0.12509000000E+03 0.  0.
         25    1    3    3    0    0  0.82828169554E+02  0.71772016685E+02 -0.17035068108E+03  0.23807265843E+03  0.12509000000E+03 0.  0.
<mgrwt>
<rscale>  2 0.45701582E+03</rscale>
<asrwt>0</asrwt>
<pdfrwt beam="1">  1       21 0.17149231E-01 0.45701582E+03</pdfrwt>
<pdfrwt beam="2">  1       21 0.65847606E-01 0.45701582E+03</pdfrwt>
<totfact> 0.59964493E+04</totfact>
</mgrwt>
</event>
<event>
 7    0  0.4725730E-002  0.4498430E+03  0.7546771E-02  0.1027769E+00
         21   -1    0    0  502  501  0.00000000000E+00  0.00000000000E+00  0.29917038375E+03  0.29917038375E+03  0.00000000000E+00 0.  1.
         21   -1    0    0  501  502 -0.00000000000E+00 -0.00000000000E+00 -0.16909987731E+03  0.16909987731E+03  0.00000000000E+00 0.  1.
      99926    2    1    2    0    0  0.00000000000E+00  0.35527136788E-14  0.13007050643E+03  0.46827026106E+03  0.44984297344E+03 0.  0.
      99925    2    3    3    0    0  0.98347546026E+02 -0.28729626525E+02  0.11899304338E+03  0.30619666810E+03  0.26286769282E+03 0.  0.
         25    1    4    4    0    0  0.16715829310E+02 -0.18397711896E+01  0.28151365977E+02  0.12931670895E+03  0.12509000000E+03 0.  0.
         25    1    4    4    0    0  0.81631716716E+02 -0.26889855336E+02  0.90841677403E+02  0.17687995915E+03  0.12509000000E+03 0.  0.
         25    1    3    3    0    0 -0.98347546026E+02  0.28729626525E+02  0.11077463054E+02  0.16207359297E+03  0.12509000000E+03 0.  0.
<mgrwt>
<rscale>  2 0.44984297E+03</rscale>
<asrwt>0</asrwt>
<pdfrwt beam="1">  1       21 0.43995645E-01 0.44984297E+03</pdfrwt>
<pdfrwt beam="2">  1       21 0.24867629E-01 0.44984297E+03</pdfrwt>
<totfact> 0.70401236E+04</totfact>
</mgrwt>
</event>
<event>
 7    0  0.4725730E-002  0.4562445E+03  0.7546771E-02  0.1025876E+00
         21   -1    0    0  502  501  0.00000000000E+00  0.00000000000E+00  0.12308173235E+04  0.12308173235E+04  0.00000000000E+00 0.  1.
         21   -1    0    0  501  502 -0.00000000000E+00 -0.00000000000E+00 -0.42280658319E+02  0.42280658319E+02  0.00000000000E+00 0.  1.
      99926    2    1    2    0    0  0.00000000000E+00  0.71054273576E-14  0.11885366652E+04  0.12730979818E+04  0.45624452526E+03 0.  0.
      99925    2    3    3    0    0  0.98415087172E+01 -0.61638384113E+02  0.10143102508E+04  0.10497182664E+04  0.26303423397E+03 0.  0.
         25    1    4    4    0    0  0.23403210641E+02 -0.62141863770E+02  0.61292144642E+03  0.62907036894E+03  0.12509000000E+03 0.  0.
         25    1    4    4    0    0 -0.13561701924E+02  0.50347965716E+00  0.40138880441E+03  0.42064789749E+03  0.12509000000E+03 0.  0.
         25    1    3    3    0    0 -0.98415087172E+01  0.61638384113E+02  0.17422641433E+03  0.22337971538E+03  0.12509000000E+03 0.  0.
<mgrwt>
<rscale>  2 0.45624453E+03</rscale>
<asrwt>0</asrwt>
<pdfrwt beam="1">  1       21 0.18100252E+00 0.45624453E+03</pdfrwt>
<pdfrwt beam="2">  1       21 0.62177447E-02 0.45624453E+03</pdfrwt>
<totfact> 0.29618224E+04</totfact>
</mgrwt>
</event>
<event>
 7    0  0.4725730E-002  0.4550567E+03  0.7546771E-02  0.1026225E+00
         21   -1    0    0  502  501  0.00000000000E+00  0.00000000000E+00  0.14233625684E+04  0.14233625684E+04  0.00000000000E+00 0.  1.
         21   -1    0    0  501  502 -0.00000000000E+00 -0.00000000000E+00 -0.36371016184E+02  0.36371016184E+02  0.00000000000E+00 0.  1.
      99926    2    1    2    0    0  0.00000000000E+00  0.00000000000E+00  0.13869915522E+04  0.14597335845E+04  0.45505666904E+03 0.  0.
      99925    2    3    3    0    0  0.44036593528E+02 -0.59010434979E+02  0.59564608862E+03  0.65518613175E+03  0.26277966311E+03 0.  0.
         25    1    3    3    0    0 -0.44036593528E+02  0.59010434979E+02  0.79134546356E+03  0.80454745280E+03  0.12509000000E+03 0.  0.
         25    1    4    4    0    0  0.44722379074E+01 -0.65217054770E+02  0.32654415514E+03  0.35574128029E+03  0.12509000000E+03 0.  0.
         25    1    4    4    0    0  0.39564355621E+02  0.62066197910E+01  0.26910193348E+03  0.29944485146E+03  0.12509000000E+03 0.  0.
<mgrwt>
<rscale>  2 0.45505667E+03</rscale>
<asrwt>0</asrwt>
<pdfrwt beam="1">  1       21 0.20931799E+00 0.45505667E+03</pdfrwt>
<pdfrwt beam="2">  1       21 0.53486798E-02 0.45505667E+03</pdfrwt>
<totfact> 0.24771761E+04</totfact>
</mgrwt>
</event>
<event>
 7    0  0.4725730E-002  0.4463725E+03  0.7546771E-02  0.1028809E+00
         21   -1    0    0  502  501  0.00000000000E+00  0.00000000000E+00  0.35037220804E+03  0.35037220804E+03  0.00000000000E+00 0. -1.
         21   -1    0    0  501  502 -0.00000000000E+00 -0.00000000000E+00 -0.14216912300E+03  0.14216912300E+03  0.00000000000E+00 0. -1.
      99926    2    1    2    0    0  0.00000000000E+00 -0.71054273576E-14  0.20820308504E+03  0.49254133104E+03  0.44637253294E+03 0.  0.
      99925    2    3    3    0    0 -0.97750533435E+02  0.36717143317E+02  0.12166644681E+03  0.30804359865E+03  0.26303007241E+03 0.  0.
         25    1    3    3    0    0  0.97750533435E+02 -0.36717143317E+02  0.86536638230E+02  0.18449773239E+03  0.12509000000E+03 0.  0.
         25    1    4    4    0    0 -0.84594016486E+02  0.28455831479E+01  0.48450700411E+02  0.15861659257E+03  0.12509000000E+03 0.  0.
         25    1    4    4    0    0 -0.13156516949E+02  0.33871560169E+02  0.73215746397E+02  0.14942700608E+03  0.12509000000E+03 0.  0.
<mgrwt>
<rscale>  2 0.44637253E+03</rscale>
<asrwt>0</asrwt>
<pdfrwt beam="1">  1       21 0.51525325E-01 0.44637253E+03</pdfrwt>
<pdfrwt beam="2">  1       21 0.20907224E-01 0.44637253E+03</pdfrwt>
<totfact> 0.70504231E+04</totfact>
</mgrwt>
</event>
<event>
 7    0  0.4725730E-002  0.4471393E+03  0.7546771E-02  0.1028579E+00
         21   -1    0    0  502  501  0.00000000000E+00  0.00000000000E+00  0.57760979531E+03  0.57760979531E+03  0.00000000000E+00 0. -1.
         21   -1    0    0  501  502 -0.00000000000E+00 -0.00000000000E+00 -0.86534876590E+02  0.86534876590E+02  0.00000000000E+00 0. -1.
      99926    2    1    2    0    0  0.00000000000E+00 -0.71054273576E-14  0.49107491872E+03  0.66414467190E+03  0.44713931768E+03 0.  0.
      99925    2    3    3    0    0  0.32347030288E+02 -0.60813318416E+02  0.19281061762E+03  0.33345797504E+03  0.26319896806E+03 0.  0.
         25    1    4    4    0    0 -0.23016377591E+02 -0.19989042030E+02  0.10209393971E+03  0.16431675527E+03  0.12509000000E+03 0.  0.
         25    1    3    3    0    0 -0.32347030288E+02  0.60813318416E+02  0.29826430110E+03  0.33068669686E+03  0.12509000000E+03 0.  0.
         25    1    4    4    0    0  0.55363407879E+02 -0.40824276386E+02  0.90716677909E+02  0.16914121977E+03  0.12509000000E+03 0.  0.
<mgrwt>
<rscale>  2 0.44713932E+03</rscale>
<asrwt>0</asrwt>
<pdfrwt beam="1">  1       21 0.84942615E-01 0.44713932E+03</pdfrwt>
<pdfrwt beam="2">  1       21 0.12725717E-01 0.44713932E+03</pdfrwt>
<totfact> 0.58429789E+04</totfact>
</mgrwt>
</event>
<event>
 7    0  0.4725730E-002  0.4491898E+03  0.7546771E-02  0.1027964E+00
         21   -1    0    0  502  501  0.00000000000E+00  0.00000000000E+00  0.89872719736E+02  0.89872719736E+02  0.00000000000E+00 0.  1.
         21   -1    0    0  501  502 -0.00000000000E+00 -0.00000000000E+00 -0.56127010489E+03  0.56127010489E+03  0.00000000000E+00 0.  1.
      99926    2    1    2    0    0  0.00000000000E+00  0.71054273576E-14 -0.47139738515E+03  0.65114282463E+03  0.44918980769E+03 0.  0.
      99925    2    3    3    0    0 -0.82343701913E+02  0.57011721156E+02 -0.35553018671E+03  0.45339668087E+03  0.26293728334E+03 0.  0.
         25    1    4    4    0    0  0.71086135166E+00  0.19935557212E+02 -0.16358022019E+03  0.20689110252E+03  0.12509000000E+03 0.  0.
         25    1    4    4    0    0 -0.83054563264E+02  0.37076163945E+02 -0.19194996651E+03  0.24650557835E+03  0.12509000000E+03 0.  0.
         25    1    3    3    0    0  0.82343701913E+02 -0.57011721156E+02 -0.11586719845E+03  0.19774614376E+03  0.12509000000E+03 0.  0.
<mgrwt>
<rscale>  2 0.44918981E+03</rscale>
<asrwt>0</asrwt>
<pdfrwt beam="1">  1       21 0.13216576E-01 0.44918981E+03</pdfrwt>
<pdfrwt beam="2">  1       21 0.82539723E-01 0.44918981E+03</pdfrwt>
<totfact> 0.58260342E+04</totfact>
</mgrwt>
</event>
<event>
 7    0  0.4725730E-002  0.4641583E+03  0.7546771E-02  0.1023582E+00
         21   -1    0    0  502  501  0.00000000000E+00  0.00000000000E+00  0.84884823055E+02  0.84884823055E+02  0.00000000000E+00 0. -1.
         21   -1    0    0  501  502 -0.00000000000E+00 -0.00000000000E+00 -0.63451532091E+03  0.63451532091E+03  0.00000000000E+00 0. -1.
      99926    2    1    2    0    0 -0.14210854715E-13  0.00000000000E+00 -0.54963049786E+03  0.71940014397E+03  0.46415825207E+03 0.  0.
      99925    2    3    3    0    0 -0.98244777456E+02 -0.40681854185E+02 -0.43448915968E+03  0.51887063139E+03  0.26294267946E+03 0.  0.
         25    1    3    3    0    0  0.98244777456E+02  0.40681854185E+02 -0.11514133817E+03  0.20052951257E+03  0.12509000000E+03 0.  0.
         25    1    4    4    0    0 -0.37383123660E+02  0.19032564558E+02 -0.19030134665E+03  0.23156391577E+03  0.12509000000E+03 0.  0.
         25    1    4    4    0    0 -0.60861653797E+02 -0.59714418743E+02 -0.24418781303E+03  0.28730671562E+03  0.12509000000E+03 0.  0.
<mgrwt>
<rscale>  2 0.46415825E+03</rscale>
<asrwt>0</asrwt>
<pdfrwt beam="1">  1       21 0.12483062E-01 0.46415825E+03</pdfrwt>
<pdfrwt beam="2">  1       21 0.93311080E-01 0.46415825E+03</pdfrwt>
<totfact> 0.48288548E+04</totfact>
</mgrwt>
</event>
<event>
 7    0  0.4725730E-002  0.4556089E+03  0.7546771E-02  0.1026062E+00
         21   -1    0    0  502  501  0.00000000000E+00  0.00000000000E+00  0.10180087218E+04  0.10180087218E+04  0.00000000000E+00 0.  1.
         21   -1    0    0  501  502 -0.00000000000E+00 -0.00000000000E+00 -0.50976848975E+02  0.50976848975E+02  0.00000000000E+00 0.  1.
      99926    2    1    2    0    0  0.00000000000E+00  0.00000000000E+00  0.96703187281E+03  0.10689855708E+04  0.45560894138E+03 0.  0.
      99925    2    3    3    0    0 -0.14397642137E+02 -0.37228013534E+02  0.35817284947E+03  0.44612921855E+03  0.26296439389E+03 0.  0.
         25    1    4    4    0    0  0.13144899117E+02 -0.20750166884E+02  0.11936506912E+03  0.17463930149E+03  0.12509000000E+03 0.  0.
         25    1    3    3    0    0  0.14397642137E+02  0.37228013534E+02  0.60885902334E+03  0.62285635221E+03  0.12509000000E+03 0.  0.
         25    1    4    4    0    0 -0.27542541254E+02 -0.16477846649E+02  0.23880778035E+03  0.27148991706E+03  0.12509000000E+03 0.  0.
<mgrwt>
<rscale>  2 0.45560894E+03</rscale>
<asrwt>0</asrwt>
<pdfrwt beam="1">  1       21 0.14970715E+00 0.45560894E+03</pdfrwt>
<pdfrwt beam="2">  1       21 0.74965961E-02 0.45560894E+03</pdfrwt>
<totfact> 0.36415029E+04</totfact>
</mgrwt>
</event>
<event>
 7    0  0.4725730E-002  0.4582221E+03  0.7546771E-02  0.1025298E+00
         21   -1    0    0  502  501  0.00000000000E+00  0.00000000000E+00  0.52821741060E+02  0.52821741060E+02  0.00000000000E+00 0.  1.
         21   -1    0    0  501  502 -0.00000000000E+00 -0.00000000000E+00 -0.99375499299E+03  0.99375499299E+03  0.00000000000E+00 0.  1.
      99926    2    1    2    0    0  0.00000000000E+00  0.71054273576E-14 -0.94093325193E+03  0.10465767340E+04  0.45822208117E+03 0.  0.
      99925    2    3    3    0    0 -0.80473073170E+02  0.57486984127E+02 -0.73036255976E+03  0.78244003961E+03  0.26268284686E+03 0.  0.
         25    1    4    4    0    0 -0.19356085629E+02  0.54640690803E+02 -0.42554319832E+03  0.44731955566E+03  0.12509000000E+03 0.  0.
         25    1    3    3    0    0  0.80473073170E+02 -0.57486984127E+02 -0.21057069217E+03  0.26413669444E+03  0.12509000000E+03 0.  0.
         25    1    4    4    0    0 -0.61116987541E+02  0.28462933236E+01 -0.30481936144E+03  0.33512048394E+03  0.12509000000E+03 0.  0.
<mgrwt>
<rscale>  2 0.45822208E+03</rscale>
<asrwt>0</asrwt>
<pdfrwt beam="1">  1       21 0.77679034E-02 0.45822208E+03</pdfrwt>
<pdfrwt beam="2">  1       21 0.14614043E+00 0.45822208E+03</pdfrwt>
<totfact> 0.36477172E+04</totfact>
</mgrwt>
</event>
<event>
 7    0  0.4725730E-002  0.4544628E+03  0.7546771E-02  0.1026399E+00
         21   -1    0    0  502  501  0.00000000000E+00  0.00000000000E+00  0.37759523852E+03  0.37759523852E+03  0.00000000000E+00 0. -1.
         21   -1    0    0  501  502 -0.00000000000E+00 -0.00000000000E+00 -0.13674462169E+03  0.13674462169E+03  0.00000000000E+00 0. -1.
      99926    2    1    2    0    0  0.00000000000E+00  0.00000000000E+00  0.24085061683E+03  0.51433986021E+03  0.45446283916E+03 0.  0.
      99925    2    3    3    0    0 -0.75919869882E+02  0.79144103605E+02  0.12307409606E+03  0.31051043956E+03  0.26313852659E+03 0.  0.
         25    1    4    4    0    0 -0.10904541216E+02  0.67052049612E+02  0.47270096113E+02  0.14998952118E+03  0.12509000000E+03 0.  0.
         25    1    3    3    0    0  0.75919869882E+02 -0.79144103605E+02  0.11777652077E+03  0.20382942065E+03  0.12509000000E+03 0.  0.
         25    1    4    4    0    0 -0.65015328666E+02  0.12092053992E+02  0.75803999946E+02  0.16052091838E+03  0.12509000000E+03 0.  0.
<mgrwt>
<rscale>  2 0.45446284E+03</rscale>
<asrwt>0</asrwt>
<pdfrwt beam="1">  1       21 0.55528711E-01 0.45446284E+03</pdfrwt>
<pdfrwt beam="2">  1       21 0.20109503E-01 0.45446284E+03</pdfrwt>
<totfact> 0.64549237E+04</totfact>
</mgrwt>
</event>
<event>
 7    0  0.4725730E-002  0.4528522E+03  0.7546771E-02  0.1026875E+00
         21   -1    0    0  502  501  0.00000000000E+00  0.00000000000E+00  0.16460410059E+03  0.16460410059E+03  0.00000000000E+00 0. -1.
         21   -1    0    0  501  502 -0.00000000000E+00 -0.00000000000E+00 -0.31146719586E+03  0.31146719586E+03  0.00000000000E+00 0. -1.
      99926    2    1    2    0    0  0.00000000000E+00  0.35527136788E-14 -0.14686309527E+03  0.47607129646E+03  0.45285219505E+03 0.  0.
      99925    2    3    3    0    0  0.95024077152E+02  0.26618346470E+02 -0.37751459155E+02  0.28296259949E+03  0.26249675891E+03 0.  0.
         25    1    4    4    0    0  0.26871224684E+02  0.46479623494E+02 -0.10092960721E+02  0.13649832992E+03  0.12509000000E+03 0.  0.
         25    1    3    3    0    0 -0.95024077152E+02 -0.26618346470E+02 -0.10911163611E+03  0.19310869696E+03  0.12509000000E+03 0.  0.
         25    1    4    4    0    0  0.68152852469E+02 -0.19861277023E+02 -0.27658498434E+02  0.14646426957E+03  0.12509000000E+03 0.  0.
<mgrwt>
<rscale>  2 0.45285220E+03</rscale>
<asrwt>0</asrwt>
<pdfrwt beam="1">  1       21 0.24206486E-01 0.45285220E+03</pdfrwt>
<pdfrwt beam="2">  1       21 0.45803999E-01 0.45285220E+03</pdfrwt>
<totfact> 0.68141385E+04</totfact>
</mgrwt>
</event>
<event>
 7    0  0.4725730E-002  0.4555105E+03  0.7546771E-02  0.1026091E+00
         21   -1    0    0  502  501  0.00000000000E+00  0.00000000000E+00  0.21813088706E+03  0.21813088706E+03  0.00000000000E+00 0.  1.
         21   -1    0    0  501  502 -0.00000000000E+00 -0.00000000000E+00 -0.23780425932E+03  0.23780425932E+03  0.00000000000E+00 0.  1.
      99926    2    1    2    0    0  0.00000000000E+00  0.00000000000E+00 -0.19673372255E+02  0.45593514638E+03  0.45551050056E+03 0.  0.
      99925    2    3    3    0    0 -0.81400360517E+02  0.79223795373E+02 -0.17171624907E+02  0.28694936211E+03  0.26294988736E+03 0.  0.
         25    1    4    4    0    0 -0.78987810076E+01  0.41100986728E+02  0.17279839462E+02  0.13303301396E+03  0.12509000000E+03 0.  0.
         25    1    3    3    0    0  0.81400360517E+02 -0.79223795373E+02 -0.25017473474E+01  0.16898578427E+03  0.12509000000E+03 0.  0.
         25    1    4    4    0    0 -0.73501579509E+02  0.38122808645E+02 -0.34451464369E+02  0.15391634815E+03  0.12509000000E+03 0.  0.
<mgrwt>
<rscale>  2 0.45551050E+03</rscale>
<asrwt>0</asrwt>
<pdfrwt beam="1">  1       21 0.32078072E-01 0.45551050E+03</pdfrwt>
<pdfrwt beam="2">  1       21 0.34971214E-01 0.45551050E+03</pdfrwt>
<totfact> 0.68199146E+04</totfact>
</mgrwt>
</event>
<event>
 7    0  0.4725730E-002  0.4558217E+03  0.7546771E-02  0.1026000E+00
         21   -1    0    0  502  501  0.00000000000E+00  0.00000000000E+00  0.82367843268E+03  0.82367843268E+03  0.00000000000E+00 0.  1.
         21   -1    0    0  501  502 -0.00000000000E+00 -0.00000000000E+00 -0.63062662598E+02  0.63062662598E+02  0.00000000000E+00 0.  1.
      99926    2    1    2    0    0  0.00000000000E+00 -0.17763568394E-14  0.76061577008E+03  0.88674109528E+03  0.45582169799E+03 0.  0.
      99925    2    3    3    0    0 -0.57650407822E+02 -0.92474443475E+01  0.28834700100E+03  0.39471021911E+03  0.26314079755E+03 0.  0.
         25    1    3    3    0    0  0.57650407822E+02  0.92474443475E+01  0.47226876909E+03  0.49203087617E+03  0.12509000000E+03 0.  0.
         25    1    4    4    0    0 -0.11906086943E+02 -0.40018389327E+02  0.15829810293E+03  0.20603160894E+03  0.12509000000E+03 0.  0.
         25    1    4    4    0    0 -0.45744320879E+02  0.30770944979E+02  0.13004889806E+03  0.18867861017E+03  0.12509000000E+03 0.  0.
<mgrwt>
<rscale>  2 0.45582170E+03</rscale>
<asrwt>0</asrwt>
<pdfrwt beam="1">  1       21 0.12112917E+00 0.45582170E+03</pdfrwt>
<pdfrwt beam="2">  1       21 0.92739215E-02 0.45582170E+03</pdfrwt>
<totfact> 0.43531146E+04</totfact>
</mgrwt>
</event>
<event>
 7    0  0.4725730E-002  0.4339988E+03  0.7546771E-02  0.1032604E+00
         21   -1    0    0  502  501  0.00000000000E+00  0.00000000000E+00  0.26477677700E+04  0.26477677700E+04  0.00000000000E+00 0. -1.
         21   -1    0    0  501  502 -0.00000000000E+00 -0.00000000000E+00 -0.17784312599E+02  0.17784312599E+02  0.00000000000E+00 0. -1.
      99926    2    1    2    0    0  0.00000000000E+00  0.00000000000E+00  0.26299834574E+04  0.26655520826E+04  0.43399875443E+03 0.  0.
      99925    2    3    3    0    0  0.39602319382E+02  0.35122320087E+02  0.21512549028E+04  0.21679272659E+04  0.26307613443E+03 0.  0.
         25    1    4    4    0    0  0.42464016108E+02  0.21021880159E+02  0.83287012905E+03  0.84354328405E+03  0.12509000000E+03 0.  0.
         25    1    4    4    0    0 -0.28616967259E+01  0.14100439928E+02  0.13183847737E+04  0.13243839818E+04  0.12509000000E+03 0.  0.
         25    1    3    3    0    0 -0.39602319382E+02 -0.35122320087E+02  0.47872855467E+03  0.49762481673E+03  0.12509000000E+03 0.  0.
<mgrwt>
<rscale>  2 0.43399875E+03</rscale>
<asrwt>0</asrwt>
<pdfrwt beam="1">  1       21 0.38937734E+00 0.43399875E+03</pdfrwt>
<pdfrwt beam="2">  1       21 0.26153419E-02 0.43399875E+03</pdfrwt>
<totfact> 0.65949136E+03</totfact>
</mgrwt>
</event>
<event>
 7    0  0.4725730E-002  0.4604896E+03  0.7546771E-02  0.1024639E+00
         21   -1    0    0  502  501  0.00000000000E+00  0.00000000000E+00  0.19668882570E+03  0.19668882570E+03  0.00000000000E+00 0.  1.
         21   -1    0    0  501  502 -0.00000000000E+00 -0.00000000000E+00 -0.26952557250E+03  0.26952557250E+03  0.00000000000E+00 0.  1.
      99926    2    1    2    0    0  0.14210854715E-13 -0.71054273576E-14 -0.72836746792E+02  0.46621439820E+03  0.46048960184E+03 0.  0.
      99925    2    3    3    0    0  0.10696381387E+03 -0.44234767034E+02 -0.70973892172E+02  0.29577687176E+03  0.26277117880E+03 0.  0.
         25    1    3    3    0    0 -0.10696381387E+03  0.44234767034E+02 -0.18628546193E+01  0.17043752644E+03  0.12509000000E+03 0.  0.
         25    1    4    4    0    0  0.29003796772E+02 -0.54214491561E+02 -0.36142828819E+02  0.14399390090E+03  0.12509000000E+03 0.  0.
         25    1    4    4    0    0  0.77960017096E+02  0.99797245266E+01 -0.34831063354E+02  0.15178297086E+03  0.12509000000E+03 0.  0.
<mgrwt>
<rscale>  2 0.46048960E+03</rscale>
<asrwt>0</asrwt>
<pdfrwt beam="1">  1       21 0.28924828E-01 0.46048960E+03</pdfrwt>
<pdfrwt beam="2">  1       21 0.39636113E-01 0.46048960E+03</pdfrwt>
<totfact> 0.64843791E+04</totfact>
</mgrwt>
</event>
<event>
 7    0  0.4725730E-002  0.4571173E+03  0.7546771E-02  0.1025621E+00
         21   -1    0    0  502  501  0.00000000000E+00  0.00000000000E+00  0.35078200224E+02  0.35078200224E+02  0.00000000000E+00 0. -1.
         21   -1    0    0  501  502 -0.00000000000E+00 -0.00000000000E+00 -0.14892169771E+04  0.14892169771E+04  0.00000000000E+00 0. -1.
      99926    2    1    2    0    0  0.00000000000E+00  0.00000000000E+00 -0.14541387769E+04  0.15242951773E+04  0.45711727729E+03 0.  0.
      99925    2    3    3    0    0  0.27732079980E+02  0.94208148300E+02 -0.11137254537E+04  0.11485652448E+04  0.26300853976E+03 0.  0.
         25    1    3    3    0    0 -0.27732079980E+02 -0.94208148300E+02 -0.34041332322E+03  0.37572993252E+03  0.12509000000E+03 0.  0.
         25    1    4    4    0    0  0.30378927736E+02  0.53870885272E+02 -0.42243485944E+03  0.44488613161E+03  0.12509000000E+03 0.  0.
         25    1    4    4    0    0 -0.26468477565E+01  0.40337263028E+02 -0.69129059423E+03  0.70367911320E+03  0.12509000000E+03 0.  0.
<mgrwt>
<rscale>  2 0.45711728E+03</rscale>
<asrwt>0</asrwt>
<pdfrwt beam="1">  1       21 0.51585592E-02 0.45711728E+03</pdfrwt>
<pdfrwt beam="2">  1       21 0.21900248E+00 0.45711728E+03</pdfrwt>
<totfact> 0.22812468E+04</totfact>
</mgrwt>
</event>
<event>
 7    0  0.4725730E-002  0.4524788E+03  0.7546771E-02  0.1026985E+00
         21   -1    0    0  502  501  0.00000000000E+00  0.00000000000E+00  0.17194539254E+04  0.17194539254E+04  0.00000000000E+00 0.  1.
         21   -1    0    0  501  502 -0.00000000000E+00 -0.00000000000E+00 -0.29767746521E+02  0.29767746521E+02  0.00000000000E+00 0.  1.
      99926    2    1    2    0    0  0.00000000000E+00 -0.26645352591E-14  0.16896861789E+04  0.17492216719E+04  0.45247881102E+03 0.  0.
      99925    2    3    3    0    0 -0.38213685693E+02  0.23490719571E+01  0.66379740122E+03  0.71502580259E+03  0.26300019884E+03 0.  0.
         25    1    4    4    0    0 -0.19763310408E+01  0.34589039532E+02  0.28485032250E+03  0.31302958625E+03  0.12509000000E+03 0.  0.
         25    1    4    4    0    0 -0.36237354653E+02 -0.32239967575E+02  0.37894707872E+03  0.40199621634E+03  0.12509000000E+03 0.  0.
         25    1    3    3    0    0  0.38213685693E+02 -0.23490719571E+01  0.10258887777E+04  0.10341958693E+04  0.12509000000E+03 0.  0.
<mgrwt>
<rscale>  2 0.45247881E+03</rscale>
<asrwt>0</asrwt>
<pdfrwt beam="1">  1       21 0.25286080E+00 0.45247881E+03</pdfrwt>
<pdfrwt beam="2">  1       21 0.43776110E-02 0.45247881E+03</pdfrwt>
<totfact> 0.18617639E+04</totfact>
</mgrwt>
</event>
<event>
 7    0  0.4725730E-002  0.4812855E+03  0.7546771E-02  0.1018782E+00
         21   -1    0    0  502  501  0.00000000000E+00  0.00000000000E+00  0.50564714192E+03  0.50564714192E+03  0.00000000000E+00 0. -1.
         21   -1    0    0  501  502 -0.00000000000E+00 -0.00000000000E+00 -0.11452437647E+03  0.11452437647E+03  0.00000000000E+00 0. -1.
      99926    2    1    2    0    0  0.14210854715E-13 -0.17763568394E-14  0.39112276545E+03  0.62017151839E+03  0.48128546058E+03 0.  0.
      99925    2    3    3    0    0 -0.10446147918E+03  0.11560541259E+02  0.12868202437E+03  0.31102996921E+03  0.26293484289E+03 0.  0.
         25    1    4    4    0    0 -0.56201978575E+02 -0.77229099824E+01  0.10642241507E+03  0.17375714162E+03  0.12509000000E+03 0.  0.
         25    1    4    4    0    0 -0.48259500601E+02  0.19283451242E+02  0.22259609304E+02  0.13727282760E+03  0.12509000000E+03 0.  0.
         25    1    3    3    0    0  0.10446147918E+03 -0.11560541259E+02  0.26244074108E+03  0.30914154917E+03  0.12509000000E+03 0.  0.
<mgrwt>
<rscale>  2 0.48128546E+03</rscale>
<asrwt>0</asrwt>
<pdfrwt beam="1">  1       21 0.74359873E-01 0.48128546E+03</pdfrwt>
<pdfrwt beam="2">  1       21 0.16841820E-01 0.48128546E+03</pdfrwt>
<totfact> 0.46926197E+04</totfact>
</mgrwt>
</event>
<event>
 7    0  0.4725730E-002  0.4573878E+03  0.7546771E-02  0.1025542E+00
         21   -1    0    0  502  501  0.00000000000E+00  0.00000000000E+00  0.12155352017E+04  0.12155352017E+04  0.00000000000E+00 0.  1.
         21   -1    0    0  501  502 -0.00000000000E+00 -0.00000000000E+00 -0.43027063393E+02  0.43027063393E+02  0.00000000000E+00 0.  1.
      99926    2    1    2    0    0  0.14210854715E-13  0.00000000000E+00  0.11725081383E+04  0.12585622651E+04  0.45738784496E+03 0.  0.
      99925    2    3    3    0    0  0.64855371270E+02 -0.78661842986E+02  0.58748550519E+03  0.65169086678E+03  0.26299783710E+03 0.  0.
         25    1    3    3    0    0 -0.64855371270E+02  0.78661842986E+02  0.58502263309E+03  0.60687139828E+03  0.12509000000E+03 0.  0.
         25    1    4    4    0    0  0.68430543517E+02 -0.30745375353E+02  0.26537365214E+03  0.30281793332E+03  0.12509000000E+03 0.  0.
         25    1    4    4    0    0 -0.35751722465E+01 -0.47916467633E+02  0.32211185305E+03  0.34887293346E+03  0.12509000000E+03 0.  0.
<mgrwt>
<rscale>  2 0.45738784E+03</rscale>
<asrwt>0</asrwt>
<pdfrwt beam="1">  1       21 0.17875516E+00 0.45738784E+03</pdfrwt>
<pdfrwt beam="2">  1       21 0.63275101E-02 0.45738784E+03</pdfrwt>
<totfact> 0.29784811E+04</totfact>
</mgrwt>
</event>
<event>
 7    0  0.4725730E-002  0.4571864E+03  0.7546771E-02  0.1025600E+00
         21   -1    0    0  502  501  0.00000000000E+00  0.00000000000E+00  0.32311866821E+03  0.32311866821E+03  0.00000000000E+00 0.  1.
         21   -1    0    0  501  502 -0.00000000000E+00 -0.00000000000E+00 -0.16172029792E+03  0.16172029792E+03  0.00000000000E+00 0.  1.
      99926    2    1    2    0    0  0.00000000000E+00  0.00000000000E+00  0.16139837029E+03  0.48483896614E+03  0.45718638339E+03 0.  0.
      99925    2    3    3    0    0  0.50539303567E+02 -0.99298282739E+02  0.13237576950E+03  0.31482664418E+03  0.26301730243E+03 0.  0.
         25    1    3    3    0    0 -0.50539303567E+02  0.99298282739E+02  0.29022600790E+02  0.17001232196E+03  0.12509000000E+03 0.  0.
         25    1    4    4    0    0  0.63397580370E+02 -0.44887856057E+02  0.53096169723E+02  0.15652758274E+03  0.12509000000E+03 0.  0.
         25    1    4    4    0    0 -0.12858276803E+02 -0.54410426682E+02  0.79279599776E+02  0.15829906145E+03  0.12509000000E+03 0.  0.
<mgrwt>
<rscale>  2 0.45718638E+03</rscale>
<asrwt>0</asrwt>
<pdfrwt beam="1">  1       21 0.47517451E-01 0.45718638E+03</pdfrwt>
<pdfrwt beam="2">  1       21 0.23782397E-01 0.45718638E+03</pdfrwt>
<totfact> 0.65210362E+04</totfact>
</mgrwt>
</event>
<event>
 7    0  0.4725730E-002  0.4439445E+03  0.7546771E-02  0.1029543E+00
         21   -1    0    0  502  501  0.00000000000E+00  0.00000000000E+00  0.95397377871E+02  0.95397377871E+02  0.00000000000E+00 0. -1.
         21   -1    0    0  501  502 -0.00000000000E+00 -0.00000000000E+00 -0.51648887998E+03  0.51648887998E+03  0.00000000000E+00 0. -1.
      99926    2    1    2    0    0  0.00000000000E+00  0.00000000000E+00 -0.42109150210E+03  0.61188625785E+03  0.44394452288E+03 0.  0.
      99925    2    3    3    0    0  0.47122045212E+02 -0.40484052194E+02 -0.15543422985E+03  0.31175172130E+03  0.26300169257E+03 0.  0.
         25    1    4    4    0    0  0.57442167525E+02 -0.26242939098E+02 -0.55647635326E+02  0.15077288178E+03  0.12509000000E+03 0.  0.
         25    1    4    4    0    0 -0.10320122313E+02 -0.14241113097E+02 -0.99786594524E+02  0.16097883952E+03  0.12509000000E+03 0.  0.
         25    1    3    3    0    0 -0.47122045212E+02  0.40484052194E+02 -0.26565727225E+03  0.30013453655E+03  0.12509000000E+03 0.  0.
<mgrwt>
<rscale>  2 0.44394452E+03</rscale>
<asrwt>0</asrwt>
<pdfrwt beam="1">  1       21 0.14029026E-01 0.44394452E+03</pdfrwt>
<pdfrwt beam="2">  1       21 0.75954247E-01 0.44394452E+03</pdfrwt>
<totfact> 0.63301316E+04</totfact>
</mgrwt>
</event>
<event>
 7    0  0.4725730E-002  0.4568790E+03  0.7546771E-02  0.1025690E+00
         21   -1    0    0  502  501  0.00000000000E+00  0.00000000000E+00  0.42925230155E+03  0.42925230155E+03  0.00000000000E+00 0.  1.
         21   -1    0    0  501  502 -0.00000000000E+00 -0.00000000000E+00 -0.12157092505E+03  0.12157092505E+03  0.00000000000E+00 0.  1.
      99926    2    1    2    0    0  0.17763568394E-14  0.00000000000E+00  0.30768137649E+03  0.55082322660E+03  0.45687897469E+03 0.  0.
      99925    2    3    3    0    0 -0.13668594142E+02  0.85692965857E+02  0.28412267408E+03  0.39676922495E+03  0.26300191840E+03 0.  0.
         25    1    3    3    0    0  0.13668594142E+02 -0.85692965857E+02  0.23558702414E+02  0.15405400164E+03  0.12509000000E+03 0.  0.
         25    1    4    4    0    0 -0.12490303857E+02  0.85134796395E+02  0.15837316979E+03  0.21939350550E+03  0.12509000000E+03 0.  0.
         25    1    4    4    0    0 -0.11782902855E+01  0.55816946117E+00  0.12574950429E+03  0.17737571945E+03  0.12509000000E+03 0.  0.
<mgrwt>
<rscale>  2 0.45687897E+03</rscale>
<asrwt>0</asrwt>
<pdfrwt beam="1">  1       21 0.63125338E-01 0.45687897E+03</pdfrwt>
<pdfrwt beam="2">  1       21 0.17878077E-01 0.45687897E+03</pdfrwt>
<totfact> 0.60901717E+04</totfact>
</mgrwt>
</event>
<event>
 7    0  0.4725730E-002  0.4565802E+03  0.7546771E-02  0.1025778E+00
         21   -1    0    0  502  501  0.00000000000E+00  0.00000000000E+00  0.93510372958E+02  0.93510372958E+02  0.00000000000E+00 0.  1.
         21   -1    0    0  501  502 -0.00000000000E+00 -0.00000000000E+00 -0.55733245221E+03  0.55733245221E+03  0.00000000000E+00 0.  1.
      99926    2    1    2    0    0  0.14210854715E-13 -0.71054273576E-14 -0.46382207925E+03  0.65084282517E+03  0.45658018121E+03 0.  0.
      99925    2    3    3    0    0  0.83822081304E+02 -0.31635108705E+02 -0.39343687838E+03  0.48164322109E+03  0.26298420816E+03 0.  0.
         25    1    4    4    0    0  0.34947493586E+01 -0.71557355980E+00 -0.15920290017E+03  0.20249888108E+03  0.12509000000E+03 0.  0.
         25    1    3    3    0    0 -0.83822081304E+02  0.31635108705E+02 -0.70385200874E+02  0.16919960407E+03  0.12509000000E+03 0.  0.
         25    1    4    4    0    0  0.80327331945E+02 -0.30919535145E+02 -0.23423397821E+03  0.27914434001E+03  0.12509000000E+03 0.  0.
<mgrwt>
<rscale>  2 0.45658018E+03</rscale>
<asrwt>0</asrwt>
<pdfrwt beam="1">  1       21 0.13751525E-01 0.45658018E+03</pdfrwt>
<pdfrwt beam="2">  1       21 0.81960655E-01 0.45658018E+03</pdfrwt>
<totfact> 0.54964573E+04</totfact>
</mgrwt>
</event>
<event>
 7    0  0.4725730E-002  0.4584369E+03  0.7546771E-02  0.1025236E+00
         21   -1    0    0  502  501  0.00000000000E+00  0.00000000000E+00  0.64151351862E+02  0.64151351862E+02  0.00000000000E+00 0.  1.
         21   -1    0    0  501  502 -0.00000000000E+00 -0.00000000000E+00 -0.81901768596E+03  0.81901768596E+03  0.00000000000E+00 0.  1.
      99926    2    1    2    0    0  0.00000000000E+00  0.00000000000E+00 -0.75486633410E+03  0.88316903782E+03  0.45843687353E+03 0.  0.
      99925    2    3    3    0    0  0.73348019137E+02  0.89266248450E+02 -0.50069343328E+03  0.57722824840E+03  0.26296414507E+03 0.  0.
         25    1    4    4    0    0  0.35925914510E+02  0.76536366762E+02 -0.21351492131E+03  0.26150452480E+03  0.12509000000E+03 0.  0.
         25    1    3    3    0    0 -0.73348019137E+02 -0.89266248450E+02 -0.25417290081E+03  0.30594078942E+03  0.12509000000E+03 0.  0.
         25    1    4    4    0    0  0.37422104627E+02  0.12729881688E+02 -0.28717851197E+03  0.31572372360E+03  0.12509000000E+03 0.  0.
<mgrwt>
<rscale>  2 0.45843687E+03</rscale>
<asrwt>0</asrwt>
<pdfrwt beam="1">  1       21 0.94340224E-02 0.45843687E+03</pdfrwt>
<pdfrwt beam="2">  1       21 0.12044378E+00 0.45843687E+03</pdfrwt>
<totfact> 0.42805588E+04</totfact>
</mgrwt>
</event>
<event>
 7    0  0.4725730E-002  0.4533802E+03  0.7546771E-02  0.1026719E+00
         21   -1    0    0  502  501  0.00000000000E+00  0.00000000000E+00  0.32203269813E+03  0.32203269813E+03  0.00000000000E+00 0. -1.
         21   -1    0    0  501  502 -0.00000000000E+00 -0.00000000000E+00 -0.15957508075E+03  0.15957508075E+03  0.00000000000E+00 0. -1.
      99926    2    1    2    0    0  0.17763568394E-14  0.00000000000E+00  0.16245761738E+03  0.48160777887E+03  0.45338016634E+03 0.  0.
      99925    2    3    3    0    0  0.93275561161E+01 -0.72139384151E+02  0.19237467422E+03  0.33384569836E+03  0.26297117899E+03 0.  0.
         25    1    4    4    0    0 -0.26981806647E+02 -0.95165353769E+01  0.90836938345E+02  0.15721781007E+03  0.12509000000E+03 0.  0.
         25    1    3    3    0    0 -0.93275561161E+01  0.72139384151E+02 -0.29917056845E+02  0.14776208052E+03  0.12509000000E+03 0.  0.
         25    1    4    4    0    0  0.36309362763E+02 -0.62622848774E+02  0.10153773588E+03  0.17662788829E+03  0.12509000000E+03 0.  0.
<mgrwt>
<rscale>  2 0.45338017E+03</rscale>
<asrwt>0</asrwt>
<pdfrwt beam="1">  1       21 0.47357750E-01 0.45338017E+03</pdfrwt>
<pdfrwt beam="2">  1       21 0.23466924E-01 0.45338017E+03</pdfrwt>
<totfact> 0.67446329E+04</totfact>
</mgrwt>
</event>
<event>
 7    0  0.4725730E-002  0.4565255E+03  0.7546771E-02  0.1025794E+00
         21   -1    0    0  502  501  0.00000000000E+00  0.00000000000E+00  0.36838780668E+03  0.36838780668E+03  0.00000000000E+00 0. -1.
         21   -1    0    0  501  502 -0.00000000000E+00 -0.00000000000E+00 -0.14143761321E+03  0.14143761321E+03  0.00000000000E+00 0. -1.
      99926    2    1    2    0    0  0.00000000000E+00 -0.17763568394E-14  0.22695019347E+03  0.50982541990E+03  0.45652553976E+03 0.  0.
      99925    2    3    3    0    0  0.11187262917E+03  0.13212215232E+02  0.11943567677E+03  0.31008326814E+03  0.26305266489E+03 0.  0.
         25    1    4    4    0    0  0.63199972998E+02 -0.24554592222E+02  0.33106844922E+02  0.14608468731E+03  0.12509000000E+03 0.  0.
         25    1    4    4    0    0  0.48672656172E+02  0.37766807454E+02  0.86328831848E+02  0.16399858082E+03  0.12509000000E+03 0.  0.
         25    1    3    3    0    0 -0.11187262917E+03 -0.13212215232E+02  0.10751451670E+03  0.19974215176E+03  0.12509000000E+03 0.  0.
<mgrwt>
<rscale>  2 0.45652554E+03</rscale>
<asrwt>0</asrwt>
<pdfrwt beam="1">  1       21 0.54174677E-01 0.45652554E+03</pdfrwt>
<pdfrwt beam="2">  1       21 0.20799649E-01 0.45652554E+03</pdfrwt>
<totfact> 0.63809681E+04</totfact>
</mgrwt>
</event>
<event>
 7    0  0.4725730E-002  0.4697974E+03  0.7546771E-02  0.1021977E+00
         21   -1    0    0  502  501  0.00000000000E+00  0.00000000000E+00  0.61126925102E+03  0.61126925102E+03  0.00000000000E+00 0.  1.
         21   -1    0    0  501  502 -0.00000000000E+00 -0.00000000000E+00 -0.90266923358E+02  0.90266923358E+02  0.00000000000E+00 0.  1.
      99926    2    1    2    0    0  0.00000000000E+00  0.00000000000E+00  0.52100232766E+03  0.70153617438E+03  0.46979738029E+03 0.  0.
      99925    2    3    3    0    0 -0.95880615086E+02  0.81926621006E+02  0.33982812379E+03  0.44781060644E+03  0.26295650199E+03 0.  0.
         25    1    3    3    0    0  0.95880615086E+02 -0.81926621006E+02  0.18117420387E+03  0.25372556794E+03  0.12509000000E+03 0.  0.
         25    1    4    4    0    0 -0.66762068561E+02  0.45874607184E+02  0.23447624566E+03  0.27782777266E+03  0.12509000000E+03 0.  0.
         25    1    4    4    0    0 -0.29118546525E+02  0.36052013822E+02  0.10535187813E+03  0.16998283377E+03  0.12509000000E+03 0.  0.
<mgrwt>
<rscale>  2 0.46979738E+03</rscale>
<asrwt>0</asrwt>
<pdfrwt beam="1">  1       21 0.89892535E-01 0.46979738E+03</pdfrwt>
<pdfrwt beam="2">  1       21 0.13274548E-01 0.46979738E+03</pdfrwt>
<totfact> 0.47089653E+04</totfact>
</mgrwt>
</event>
<event>
 7    0  0.4725730E-002  0.4452054E+03  0.7546771E-02  0.1029162E+00
         21   -1    0    0  502  501  0.00000000000E+00  0.00000000000E+00  0.18098165598E+03  0.18098165598E+03  0.00000000000E+00 0. -1.
         21   -1    0    0  501  502 -0.00000000000E+00 -0.00000000000E+00 -0.27379546637E+03  0.27379546637E+03  0.00000000000E+00 0. -1.
      99926    2    1    2    0    0 -0.71054273576E-14  0.00000000000E+00 -0.92813810386E+02  0.45477712235E+03  0.44520537689E+03 0.  0.
      99925    2    3    3    0    0 -0.40351778339E+02 -0.65737080838E+02 -0.12972182750E+03  0.30325372600E+03  0.26303125288E+03 0.  0.
         25    1    4    4    0    0  0.18930436360E+02 -0.27739274614E+02 -0.74740355060E+02  0.14953747875E+03  0.12509000000E+03 0.  0.
         25    1    3    3    0    0  0.40351778339E+02  0.65737080838E+02  0.36908017117E+02  0.15152339634E+03  0.12509000000E+03 0.  0.
         25    1    4    4    0    0 -0.59282214698E+02 -0.37997806224E+02 -0.54981472444E+02  0.15371624725E+03  0.12509000000E+03 0.  0.
<mgrwt>
<rscale>  2 0.44520538E+03</rscale>
<asrwt>0</asrwt>
<pdfrwt beam="1">  1       21 0.26614950E-01 0.44520538E+03</pdfrwt>
<pdfrwt beam="2">  1       21 0.40264039E-01 0.44520538E+03</pdfrwt>
<totfact> 0.74183281E+04</totfact>
</mgrwt>
</event>
<event>
 7    0  0.4725730E-002  0.4955766E+03  0.7546771E-02  0.1014940E+00
         21   -1    0    0  502  501  0.00000000000E+00  0.00000000000E+00  0.60717380580E+02  0.60717380580E+02  0.00000000000E+00 0.  1.
         21   -1    0    0  501  502 -0.00000000000E+00 -0.00000000000E+00 -0.10112269498E+04  0.10112269498E+04  0.00000000000E+00 0.  1.
      99926    2    1    2    0    0  0.00000000000E+00  0.00000000000E+00 -0.95050956922E+03  0.10719443304E+04  0.49557664014E+03 0.  0.
      99925    2    3    3    0    0  0.13495014877E+03  0.37614839203E+02 -0.68220184712E+03  0.74443408532E+03  0.26297590838E+03 0.  0.
         25    1    4    4    0    0  0.61432299978E+02  0.48255228378E+02 -0.41125704619E+03  0.43690085911E+03  0.12509000000E+03 0.  0.
         25    1    3    3    0    0 -0.13495014877E+03 -0.37614839203E+02 -0.26830772210E+03  0.32751024506E+03  0.12509000000E+03 0.  0.
         25    1    4    4    0    0  0.73517848795E+02 -0.10640389175E+02 -0.27094480092E+03  0.30753322621E+03  0.12509000000E+03 0.  0.
<mgrwt>
<rscale>  2 0.49557664E+03</rscale>
<asrwt>0</asrwt>
<pdfrwt beam="1">  1       21 0.89290270E-02 0.49557664E+03</pdfrwt>
<pdfrwt beam="2">  1       21 0.14870984E+00 0.49557664E+03</pdfrwt>
<totfact> 0.26899876E+04</totfact>
</mgrwt>
</event>
<event>
 7    0  0.4725730E-002  0.4541714E+03  0.7546771E-02  0.1026485E+00
         21   -1    0    0  502  501  0.00000000000E+00  0.00000000000E+00  0.88497666764E+02  0.88497666764E+02  0.00000000000E+00 0.  1.
         21   -1    0    0  501  502 -0.00000000000E+00 -0.00000000000E+00 -0.58270370583E+03  0.58270370583E+03  0.00000000000E+00 0.  1.
      99926    2    1    2    0    0  0.00000000000E+00  0.14210854715E-13 -0.49420603906E+03  0.67120137259E+03  0.45417141425E+03 0.  0.
      99925    2    3    3    0    0 -0.44694427442E+02 -0.69307995506E+02 -0.19794401684E+03  0.33920757145E+03  0.26282837107E+03 0.  0.
         25    1    4    4    0    0 -0.46742516166E+02 -0.50247805716E+02 -0.14045257112E+03  0.20021023358E+03  0.12509000000E+03 0.  0.
         25    1    4    4    0    0  0.20480887238E+01 -0.19060189790E+02 -0.57491445713E+02  0.13899733786E+03  0.12509000000E+03 0.  0.
         25    1    3    3    0    0  0.44694427442E+02  0.69307995506E+02 -0.29626202222E+03  0.33199380114E+03  0.12509000000E+03 0.  0.
<mgrwt>
<rscale>  2 0.45417141E+03</rscale>
<asrwt>0</asrwt>
<pdfrwt beam="1">  1       21 0.13014362E-01 0.45417141E+03</pdfrwt>
<pdfrwt beam="2">  1       21 0.85691723E-01 0.45417141E+03</pdfrwt>
<totfact> 0.54852133E+04</totfact>
</mgrwt>
</event>
<event>
 6    0  0.4725730E-002  0.4498179E+03  0.7546771E-02  0.1027776E+00
         21   -1    0    0  502  501  0.00000000000E+00  0.00000000000E+00  0.11950120594E+04  0.11950120594E+04  0.00000000000E+00 0.  1.
         21   -1    0    0  501  502 -0.00000000000E+00 -0.00000000000E+00 -0.42329312633E+02  0.42329312633E+02  0.00000000000E+00 0.  1.
      99926    2    1    2    0    0  0.10658141036E-13 -0.14210854715E-13  0.11526827468E+04  0.12373413721E+04  0.44981791455E+03 0.  0.
         25    1    3    3    0    0 -0.64828721721E+02  0.42579306177E+02  0.29556987040E+03  0.33018906230E+03  0.12509000000E+03 0.  0.
         25    1    3    3    0    0  0.33027947588E+02  0.38924307952E+02  0.29123739084E+03  0.32104933110E+03  0.12509000000E+03 0.  0.
         25    1    3    3    0    0  0.31800774133E+02 -0.81503614129E+02  0.56587548555E+03  0.58610297866E+03  0.12509000000E+03 0.  0.
<mgrwt>
<rscale>  2 0.44981791E+03</rscale>
<asrwt>0</asrwt>
<pdfrwt beam="1">  1       21 0.17573705E+00 0.44981791E+03</pdfrwt>
<pdfrwt beam="2">  1       21 0.62248997E-02 0.44981791E+03</pdfrwt>
<totfact> 0.32272586E+04</totfact>
</mgrwt>
</event>
<event>
 7    0  0.4725730E-002  0.4510745E+03  0.7546771E-02  0.1027402E+00
         21   -1    0    0  502  501  0.00000000000E+00  0.00000000000E+00  0.27460971903E+04  0.27460971903E+04  0.00000000000E+00 0.  1.
         21   -1    0    0  501  502 -0.00000000000E+00 -0.00000000000E+00 -0.18523395712E+02  0.18523395712E+02  0.00000000000E+00 0.  1.
      99926    2    1    2    0    0 -0.71054273576E-14  0.14210854715E-13  0.27275737946E+04  0.27646205860E+04  0.45107447243E+03 0.  0.
      99925    2    3    3    0    0  0.59687899240E+02 -0.84926061613E+02  0.19357982447E+04  0.19563315840E+04  0.26295121440E+03 0.  0.
         25    1    3    3    0    0 -0.59687899240E+02  0.84926061613E+02  0.79177554988E+03  0.80828900199E+03  0.12509000000E+03 0.  0.
         25    1    4    4    0    0 -0.88661377205E+01 -0.24645703579E+02  0.89127618861E+03  0.90039256526E+03  0.12509000000E+03 0.  0.
         25    1    4    4    0    0  0.68554036960E+02 -0.60280358034E+02  0.10445220561E+04  0.10559390187E+04  0.12509000000E+03 0.  0.
<mgrwt>
<rscale>  2 0.45107447E+03</rscale>
<asrwt>0</asrwt>
<pdfrwt beam="1">  1       21 0.40383754E+00 0.45107447E+03</pdfrwt>
<pdfrwt beam="2">  1       21 0.27240307E-02 0.45107447E+03</pdfrwt>
<totfact> 0.49346414E+03</totfact>
</mgrwt>
</event>
<event>
 7    0  0.4725730E-002  0.4416299E+03  0.7546771E-02  0.1030248E+00
         21   -1    0    0  502  501  0.00000000000E+00  0.00000000000E+00  0.10942863751E+03  0.10942863751E+03  0.00000000000E+00 0.  1.
         21   -1    0    0  501  502 -0.00000000000E+00 -0.00000000000E+00 -0.44558025992E+03  0.44558025992E+03  0.00000000000E+00 0.  1.
      99926    2    1    2    0    0  0.14210854715E-13 -0.71054273576E-14 -0.33615162241E+03  0.55500889744E+03  0.44162989367E+03 0.  0.
      99925    2    3    3    0    0  0.67778734326E+02 -0.59257035397E+02 -0.26922950176E+03  0.38698678162E+03  0.26299979365E+03 0.  0.
         25    1    4    4    0    0  0.11203864171E+02 -0.44996456953E+02 -0.90689968100E+02  0.16131455646E+03  0.12509000000E+03 0.  0.
         25    1    3    3    0    0 -0.67778734326E+02  0.59257035397E+02 -0.66922120655E+02  0.16802211582E+03  0.12509000000E+03 0.  0.
         25    1    4    4    0    0  0.56574870155E+02 -0.14260578444E+02 -0.17853953366E+03  0.22567222516E+03  0.12509000000E+03 0.  0.
<mgrwt>
<rscale>  2 0.44162989E+03</rscale>
<asrwt>0</asrwt>
<pdfrwt beam="1">  1       21 0.16092447E-01 0.44162989E+03</pdfrwt>
<pdfrwt beam="2">  1       21 0.65526509E-01 0.44162989E+03</pdfrwt>
<totfact> 0.68499293E+04</totfact>
</mgrwt>
</event>
<event>
 7    0  0.4725730E-002  0.4553357E+03  0.7546771E-02  0.1026143E+00
         21   -1    0    0  502  501  0.00000000000E+00  0.00000000000E+00  0.24983911061E+03  0.24983911061E+03  0.00000000000E+00 0.  1.
         21   -1    0    0  501  502 -0.00000000000E+00 -0.00000000000E+00 -0.20746409257E+03  0.20746409257E+03  0.00000000000E+00 0.  1.
      99926    2    1    2    0    0  0.00000000000E+00 -0.35527136788E-14  0.42375018041E+02  0.45730320317E+03  0.45533567560E+03 0.  0.
      99925    2    3    3    0    0 -0.16845260532E+02 -0.27528257958E+02  0.13685883498E+03  0.29725237515E+03  0.26189132485E+03 0.  0.
         25    1    3    3    0    0  0.16845260532E+02  0.27528257958E+02 -0.94483816936E+02  0.16005082802E+03  0.12509000000E+03 0.  0.
         25    1    4    4    0    0 -0.41759674398E+02 -0.33373104302E+02  0.75733001630E+02  0.15569402729E+03  0.12509000000E+03 0.  0.
         25    1    4    4    0    0  0.24914413866E+02  0.58448463432E+01  0.61125833348E+02  0.14155834786E+03  0.12509000000E+03 0.  0.
<mgrwt>
<rscale>  2 0.45533568E+03</rscale>
<asrwt>0</asrwt>
<pdfrwt beam="1">  1       21 0.36741046E-01 0.45533568E+03</pdfrwt>
<pdfrwt beam="2">  1       21 0.30509425E-01 0.45533568E+03</pdfrwt>
<totfact> 0.68194578E+04</totfact>
</mgrwt>
</event>
<event>
 7    0  0.4725730E-002  0.4566804E+03  0.7546771E-02  0.1025748E+00
         21   -1    0    0  502  501  0.00000000000E+00  0.00000000000E+00  0.56858390418E+03  0.56858390418E+03  0.00000000000E+00 0. -1.
         21   -1    0    0  501  502 -0.00000000000E+00 -0.00000000000E+00 -0.91700171193E+02  0.91700171193E+02  0.00000000000E+00 0. -1.
      99926    2    1    2    0    0  0.00000000000E+00 -0.71054273576E-14  0.47688373299E+03  0.66028407538E+03  0.45668037554E+03 0.  0.
      99925    2    3    3    0    0 -0.69815916110E+02  0.43190237447E+02  0.41543779432E+03  0.49853497883E+03  0.26307585488E+03 0.  0.
         25    1    4    4    0    0 -0.69993420520E+02  0.43444236688E+02  0.24418257671E+03  0.28645962977E+03  0.12509000000E+03 0.  0.
         25    1    4    4    0    0  0.17750440950E+00 -0.25399924124E+00  0.17125521761E+03  0.21207534907E+03  0.12509000000E+03 0.  0.
         25    1    3    3    0    0  0.69815916110E+02 -0.43190237447E+02  0.61445938672E+02  0.16174909654E+03  0.12509000000E+03 0.  0.
<mgrwt>
<rscale>  2 0.45668038E+03</rscale>
<asrwt>0</asrwt>
<pdfrwt beam="1">  1       21 0.83615279E-01 0.45668038E+03</pdfrwt>
<pdfrwt beam="2">  1       21 0.13485319E-01 0.45668038E+03</pdfrwt>
<totfact> 0.54388155E+04</totfact>
</mgrwt>
</event>
<event>
 7    0  0.4725730E-002  0.4548689E+03  0.7546771E-02  0.1026280E+00
         21   -1    0    0  502  501  0.00000000000E+00  0.00000000000E+00  0.12124409366E+03  0.12124409366E+03  0.00000000000E+00 0.  1.
         21   -1    0    0  501  502 -0.00000000000E+00 -0.00000000000E+00 -0.42663052581E+03  0.42663052581E+03  0.00000000000E+00 0.  1.
      99926    2    1    2    0    0 -0.14210854715E-13 -0.28421709430E-13 -0.30538643215E+03  0.54787461947E+03  0.45486891047E+03 0.  0.
      99925    2    3    3    0    0 -0.78970528005E+02 -0.73186049725E+02 -0.23343718573E+03  0.36782811345E+03  0.26308184885E+03 0.  0.
         25    1    4    4    0    0 -0.26827243007E+02 -0.61794256300E+01 -0.73188464991E+02  0.14751930645E+03  0.12509000000E+03 0.  0.
         25    1    3    3    0    0  0.78970528005E+02  0.73186049725E+02 -0.71949246419E+02  0.18004650601E+03  0.12509000000E+03 0.  0.
         25    1    4    4    0    0 -0.52143284997E+02 -0.67006624095E+02 -0.16024872074E+03  0.22030880700E+03  0.12509000000E+03 0.  0.
<mgrwt>
<rscale>  2 0.45486891E+03</rscale>
<asrwt>0</asrwt>
<pdfrwt beam="1">  1       21 0.17830014E-01 0.45486891E+03</pdfrwt>
<pdfrwt beam="2">  1       21 0.62739783E-01 0.45486891E+03</pdfrwt>
<totfact> 0.62071535E+04</totfact>
</mgrwt>
</event>
<event>
 7    0  0.4725730E-002  0.4546411E+03  0.7546771E-02  0.1026347E+00
         21   -1    0    0  502  501  0.00000000000E+00  0.00000000000E+00  0.36078635240E+03  0.36078635240E+03  0.00000000000E+00 0. -1.
         21   -1    0    0  501  502 -0.00000000000E+00 -0.00000000000E+00 -0.14322782017E+03  0.14322782017E+03  0.00000000000E+00 0. -1.
      99926    2    1    2    0    0  0.00000000000E+00  0.00000000000E+00  0.21755853223E+03  0.50401417257E+03  0.45464114553E+03 0.  0.
      99925    2    3    3    0    0 -0.43197420580E+02  0.91885637572E+02  0.84521870010E+02  0.29507578660E+03  0.26384993044E+03 0.  0.
         25    1    4    4    0    0 -0.44184976233E+02  0.52828996209E+02  0.73343760943E+01  0.14298432130E+03  0.12509000000E+03 0.  0.
         25    1    4    4    0    0  0.98755565268E+00  0.39056641363E+02  0.77187493916E+02  0.15209146530E+03  0.12509000000E+03 0.  0.
         25    1    3    3    0    0  0.43197420580E+02 -0.91885637572E+02  0.13303666222E+03  0.20893838597E+03  0.12509000000E+03 0.  0.
<mgrwt>
<rscale>  2 0.45464115E+03</rscale>
<asrwt>0</asrwt>
<pdfrwt beam="1">  1       21 0.53056817E-01 0.45464115E+03</pdfrwt>
<pdfrwt beam="2">  1       21 0.21062915E-01 0.45464115E+03</pdfrwt>
<totfact> 0.65175011E+04</totfact>
</mgrwt>
</event>
<event>
 7    0  0.4725730E-002  0.4646410E+03  0.7546771E-02  0.1023444E+00
         21   -1    0    0  502  501  0.00000000000E+00  0.00000000000E+00  0.14431441830E+04  0.14431441830E+04  0.00000000000E+00 0. -1.
         21   -1    0    0  501  502 -0.00000000000E+00 -0.00000000000E+00 -0.37399460309E+02  0.37399460309E+02  0.00000000000E+00 0. -1.
      99926    2    1    2    0    0  0.71054273576E-14 -0.14210854715E-13  0.14057447227E+04  0.14805436433E+04  0.46464099514E+03 0.  0.
      99925    2    3    3    0    0  0.37939312572E+02 -0.10122425355E+03  0.10573171567E+04  0.10948818513E+04  0.26298470979E+03 0.  0.
         25    1    4    4    0    0 -0.14794717549E+02 -0.43838915956E+02  0.41643526682E+03  0.43727173905E+03  0.12509000000E+03 0.  0.
         25    1    4    4    0    0  0.52734030121E+02 -0.57385337599E+02  0.64088188986E+03  0.65761011227E+03  0.12509000000E+03 0.  0.
         25    1    3    3    0    0 -0.37939312572E+02  0.10122425355E+03  0.34842756599E+03  0.38566179197E+03  0.12509000000E+03 0.  0.
<mgrwt>
<rscale>  2 0.46464100E+03</rscale>
<asrwt>0</asrwt>
<pdfrwt beam="1">  1       21 0.21222705E+00 0.46464100E+03</pdfrwt>
<pdfrwt beam="2">  1       21 0.54999216E-02 0.46464100E+03</pdfrwt>
<totfact> 0.22525330E+04</totfact>
</mgrwt>
</event>
<event>
 7    0  0.4725730E-002  0.4535014E+03  0.7546771E-02  0.1026683E+00
         21   -1    0    0  502  501  0.00000000000E+00  0.00000000000E+00  0.77072299415E+03  0.77072299415E+03  0.00000000000E+00 0. -1.
         21   -1    0    0  501  502 -0.00000000000E+00 -0.00000000000E+00 -0.66711231593E+02  0.66711231593E+02  0.00000000000E+00 0. -1.
      99926    2    1    2    0    0 -0.71054273576E-14  0.00000000000E+00  0.70401176255E+03  0.83743422574E+03  0.45350140091E+03 0.  0.
      99925    2    3    3    0    0  0.45744178605E+02 -0.72156021189E+02  0.31090383163E+03  0.41615002864E+03  0.26309814242E+03 0.  0.
         25    1    4    4    0    0  0.45473780338E+02 -0.12118588689E+02  0.18883013358E+03  0.23134185168E+03  0.12509000000E+03 0.  0.
         25    1    3    3    0    0 -0.45744178605E+02  0.72156021189E+02  0.39310793092E+03  0.42128419710E+03  0.12509000000E+03 0.  0.
         25    1    4    4    0    0  0.27039826678E+00 -0.60037432500E+02  0.12207369805E+03  0.18480817696E+03  0.12509000000E+03 0.  0.
<mgrwt>
<rscale>  2 0.45350140E+03</rscale>
<asrwt>0</asrwt>
<pdfrwt beam="1">  1       21 0.11334161E+00 0.45350140E+03</pdfrwt>
<pdfrwt beam="2">  1       21 0.98104757E-02 0.45350140E+03</pdfrwt>
<totfact> 0.46551743E+04</totfact>
</mgrwt>
</event>
<event>
 7    0  0.4725730E-002  0.4660483E+03  0.7546771E-02  0.1023042E+00
         21   -1    0    0  502  501  0.00000000000E+00  0.00000000000E+00  0.10820944811E+04  0.10820944811E+04  0.00000000000E+00 0.  1.
         21   -1    0    0  501  502 -0.00000000000E+00 -0.00000000000E+00 -0.50180697521E+02  0.50180697521E+02  0.00000000000E+00 0.  1.
      99926    2    1    2    0    0  0.00000000000E+00  0.00000000000E+00  0.10319137836E+04  0.11322751786E+04  0.46604830585E+03 0.  0.
      99925    2    3    3    0    0 -0.19733889076E+02  0.95462059307E+02  0.82620395548E+03  0.87253208898E+03  0.26305292071E+03 0.  0.
         25    1    4    4    0    0 -0.12679383148E+02  0.14307328679E+02  0.30079737672E+03  0.32633117588E+03  0.12509000000E+03 0.  0.
         25    1    4    4    0    0 -0.70545059279E+01  0.81154730628E+02  0.52540657877E+03  0.54620091310E+03  0.12509000000E+03 0.  0.
         25    1    3    3    0    0  0.19733889076E+02 -0.95462059307E+02  0.20570982812E+03  0.25974308967E+03  0.12509000000E+03 0.  0.
<mgrwt>
<rscale>  2 0.46604831E+03</rscale>
<asrwt>0</asrwt>
<pdfrwt beam="1">  1       21 0.15913153E+00 0.46604831E+03</pdfrwt>
<pdfrwt beam="2">  1       21 0.73795150E-02 0.46604831E+03</pdfrwt>
<totfact> 0.31571735E+04</totfact>
</mgrwt>
</event>
<event>
 7    0  0.4725730E-002  0.4546325E+03  0.7546771E-02  0.1026350E+00
         21   -1    0    0  502  501  0.00000000000E+00  0.00000000000E+00  0.29654732884E+02  0.29654732884E+02  0.00000000000E+00 0.  1.
         21   -1    0    0  501  502 -0.00000000000E+00 -0.00000000000E+00 -0.17424766313E+04  0.17424766313E+04  0.00000000000E+00 0.  1.
      99926    2    1    2    0    0  0.00000000000E+00 -0.71054273576E-14 -0.17128218985E+04  0.17721313642E+04  0.45463250680E+03 0.  0.
      99925    2    3    3    0    0  0.91780674344E+02 -0.42345717439E+02 -0.88166617026E+03  0.92555933269E+03  0.26288398691E+03 0.  0.
         25    1    4    4    0    0  0.63609069223E+02  0.13672904263E+02 -0.47563118679E+03  0.49609031027E+03  0.12509000000E+03 0.  0.
         25    1    3    3    0    0 -0.91780674344E+02  0.42345717439E+02 -0.83115572820E+03  0.84657203154E+03  0.12509000000E+03 0.  0.
         25    1    4    4    0    0  0.28171605121E+02 -0.56018621703E+02 -0.40603498347E+03  0.42946902242E+03  0.12509000000E+03 0.  0.
<mgrwt>
<rscale>  2 0.45463251E+03</rscale>
<asrwt>0</asrwt>
<pdfrwt beam="1">  1       21 0.43609904E-02 0.45463251E+03</pdfrwt>
<pdfrwt beam="2">  1       21 0.25624655E+00 0.45463251E+03</pdfrwt>
<totfact> 0.17852011E+04</totfact>
</mgrwt>
</event>
<event>
 7    0  0.4725730E-002  0.4548772E+03  0.7546771E-02  0.1026278E+00
         21   -1    0    0  502  501  0.00000000000E+00  0.00000000000E+00  0.14751061018E+03  0.14751061018E+03  0.00000000000E+00 0.  1.
         21   -1    0    0  501  502 -0.00000000000E+00 -0.00000000000E+00 -0.35067528638E+03  0.35067528638E+03  0.00000000000E+00 0.  1.
      99926    2    1    2    0    0  0.00000000000E+00  0.35527136788E-14 -0.20316467620E+03  0.49818589656E+03  0.45487723825E+03 0.  0.
      99925    2    3    3    0    0  0.71069504491E+02 -0.31374541198E+02 -0.21754891679E+03  0.35023438159E+03  0.26325150435E+03 0.  0.
         25    1    3    3    0    0 -0.71069504491E+02  0.31374541198E+02  0.14384240598E+02  0.14795151497E+03  0.12509000000E+03 0.  0.
         25    1    4    4    0    0  0.46496069735E+02  0.10527917338E+02 -0.71001737224E+02  0.15153044689E+03  0.12509000000E+03 0.  0.
         25    1    4    4    0    0  0.24573434755E+02 -0.41902458537E+02 -0.14654717957E+03  0.19870393470E+03  0.12509000000E+03 0.  0.
<mgrwt>
<rscale>  2 0.45487724E+03</rscale>
<asrwt>0</asrwt>
<pdfrwt beam="1">  1       21 0.21692737E-01 0.45487724E+03</pdfrwt>
<pdfrwt beam="2">  1       21 0.51569894E-01 0.45487724E+03</pdfrwt>
<totfact> 0.65462065E+04</totfact>
</mgrwt>
</event>
<event>
 7    0  0.4725730E-002  0.4512917E+03  0.7546771E-02  0.1027338E+00
         21   -1    0    0  502  501  0.00000000000E+00  0.00000000000E+00  0.45721162734E+03  0.45721162734E+03  0.00000000000E+00 0. -1.
         21   -1    0    0  501  502 -0.00000000000E+00 -0.00000000000E+00 -0.11136211590E+03  0.11136211590E+03  0.00000000000E+00 0. -1.
      99926    2    1    2    0    0 -0.71054273576E-14  0.00000000000E+00  0.34584951144E+03  0.56857374324E+03  0.45129172045E+03 0.  0.
      99925    2    3    3    0    0 -0.42190579939E+02 -0.84962366815E+02  0.14949970238E+03  0.31717882597E+03  0.26316078322E+03 0.  0.
         25    1    4    4    0    0 -0.41666722959E+02 -0.20489667041E+02  0.10433967893E+03  0.16938187316E+03  0.12509000000E+03 0.  0.
         25    1    3    3    0    0  0.42190579939E+02  0.84962366815E+02  0.19634980906E+03  0.25139491727E+03  0.12509000000E+03 0.  0.
         25    1    4    4    0    0 -0.52385698064E+00 -0.64472699774E+02  0.45160023448E+02  0.14779695281E+03  0.12509000000E+03 0.  0.
<mgrwt>
<rscale>  2 0.45129172E+03</rscale>
<asrwt>0</asrwt>
<pdfrwt beam="1">  1       21 0.67237003E-01 0.45129172E+03</pdfrwt>
<pdfrwt beam="2">  1       21 0.16376782E-01 0.45129172E+03</pdfrwt>
<totfact> 0.62467390E+04</totfact>
</mgrwt>
</event>
<event>
 7    0  0.4725730E-002  0.4538601E+03  0.7546771E-02  0.1026577E+00
         21   -1    0    0  502  501  0.00000000000E+00  0.00000000000E+00  0.35719812395E+02  0.35719812395E+02  0.00000000000E+00 0. -1.
         21   -1    0    0  501  502 -0.00000000000E+00 -0.00000000000E+00 -0.14416999926E+04  0.14416999926E+04  0.00000000000E+00 0. -1.
      99926    2    1    2    0    0  0.00000000000E+00  0.00000000000E+00 -0.14059801802E+04  0.14774198050E+04  0.45386012500E+03 0.  0.
      99925    2    3    3    0    0  0.50831006080E+02  0.83426160573E+02 -0.10642760149E+04  0.11006533520E+04  0.26307917029E+03 0.  0.
         25    1    4    4    0    0  0.52983625608E+02  0.57068554491E+02 -0.46092553694E+03  0.48390489065E+03  0.12509000000E+03 0.  0.
         25    1    3    3    0    0 -0.50831006080E+02 -0.83426160573E+02 -0.34170416531E+03  0.37676645304E+03  0.12509000000E+03 0.  0.
         25    1    4    4    0    0 -0.21526195286E+01  0.26357606083E+02 -0.60335047796E+03  0.61674846131E+03  0.12509000000E+03 0.  0.
<mgrwt>
<rscale>  2 0.45386012E+03</rscale>
<asrwt>0</asrwt>
<pdfrwt beam="1">  1       21 0.52529141E-02 0.45386012E+03</pdfrwt>
<pdfrwt beam="2">  1       21 0.21201469E+00 0.45386012E+03</pdfrwt>
<totfact> 0.24554692E+04</totfact>
</mgrwt>
</event>
<event>
 7    0  0.4725730E-002  0.4517553E+03  0.7546771E-02  0.1027200E+00
         21   -1    0    0  502  501  0.00000000000E+00  0.00000000000E+00  0.37615986067E+03  0.37615986067E+03  0.00000000000E+00 0. -1.
         21   -1    0    0  501  502 -0.00000000000E+00 -0.00000000000E+00 -0.13563573607E+03  0.13563573607E+03  0.00000000000E+00 0. -1.
      99926    2    1    2    0    0  0.00000000000E+00  0.00000000000E+00  0.24052412460E+03  0.51179559675E+03  0.45175533017E+03 0.  0.
      99925    2    3    3    0    0 -0.54365545974E+02  0.77367648608E+02  0.21600375274E+03  0.35308163272E+03  0.26280725357E+03 0.  0.
         25    1    4    4    0    0 -0.64294930699E+02  0.55456430554E+02  0.10443516867E+03  0.18374837784E+03  0.12509000000E+03 0.  0.
         25    1    3    3    0    0  0.54365545974E+02 -0.77367648608E+02  0.24520371854E+02  0.15871396402E+03  0.12509000000E+03 0.  0.
         25    1    4    4    0    0  0.99293847251E+01  0.21911218054E+02  0.11156858408E+03  0.16933325489E+03  0.12509000000E+03 0.  0.
<mgrwt>
<rscale>  2 0.45175533E+03</rscale>
<asrwt>0</asrwt>
<pdfrwt beam="1">  1       21 0.55317626E-01 0.45175533E+03</pdfrwt>
<pdfrwt beam="2">  1       21 0.19946432E-01 0.45175533E+03</pdfrwt>
<totfact> 0.66136206E+04</totfact>
</mgrwt>
</event>
<event>
 7    0  0.4725730E-002  0.4566027E+03  0.7546771E-02  0.1025771E+00
         21   -1    0    0  502  501  0.00000000000E+00  0.00000000000E+00  0.45379662747E+03  0.45379662747E+03  0.00000000000E+00 0. -1.
         21   -1    0    0  501  502 -0.00000000000E+00 -0.00000000000E+00 -0.11485651485E+03  0.11485651485E+03  0.00000000000E+00 0. -1.
      99926    2    1    2    0    0  0.71054273576E-14  0.00000000000E+00  0.33894011262E+03  0.56865314231E+03  0.45660266788E+03 0.  0.
      99925    2    3    3    0    0  0.53258425300E+02 -0.87593533141E+02  0.27722511811E+03  0.39554815809E+03  0.26286021446E+03 0.  0.
         25    1    3    3    0    0 -0.53258425300E+02  0.87593533141E+02  0.61714994513E+02  0.17310498422E+03  0.12509000000E+03 0.  0.
         25    1    4    4    0    0 -0.85524728126E+01 -0.53372366740E+02  0.11030949643E+03  0.17532098398E+03  0.12509000000E+03 0.  0.
         25    1    4    4    0    0  0.61810898113E+02 -0.34221166401E+02  0.16691562168E+03  0.22022717411E+03  0.12509000000E+03 0.  0.
<mgrwt>
<rscale>  2 0.45660267E+03</rscale>
<asrwt>0</asrwt>
<pdfrwt beam="1">  1       21 0.66734797E-01 0.45660267E+03</pdfrwt>
<pdfrwt beam="2">  1       21 0.16890664E-01 0.45660267E+03</pdfrwt>
<totfact> 0.59887824E+04</totfact>
</mgrwt>
</event>
<event>
 7    0  0.4725730E-002  0.4479449E+03  0.7546771E-02  0.1028337E+00
         21   -1    0    0  502  501  0.00000000000E+00  0.00000000000E+00  0.40588183345E+03  0.40588183345E+03  0.00000000000E+00 0. -1.
         21   -1    0    0  501  502 -0.00000000000E+00 -0.00000000000E+00 -0.12359178248E+03  0.12359178248E+03  0.00000000000E+00 0. -1.
      99926    2    1    2    0    0 -0.35527136788E-14  0.00000000000E+00  0.28229005097E+03  0.52947361593E+03  0.44794490408E+03 0.  0.
      99925    2    3    3    0    0 -0.25690380418E+02 -0.71655247224E+02  0.90872586334E+02  0.28847024672E+03  0.26298818642E+03 0.  0.
         25    1    3    3    0    0  0.25690380418E+02  0.71655247224E+02  0.19141746464E+03  0.24100336921E+03  0.12509000000E+03 0.  0.
         25    1    4    4    0    0  0.27389163829E+02 -0.33296597222E+02  0.37496204691E+02  0.13752200969E+03  0.12509000000E+03 0.  0.
         25    1    4    4    0    0 -0.53079544246E+02 -0.38358650001E+02  0.53376381643E+02  0.15094823704E+03  0.12509000000E+03 0.  0.
<mgrwt>
<rscale>  2 0.44794490E+03</rscale>
<asrwt>0</asrwt>
<pdfrwt beam="1">  1       21 0.59688504E-01 0.44794490E+03</pdfrwt>
<pdfrwt beam="2">  1       21 0.18175262E-01 0.44794490E+03</pdfrwt>
<totfact> 0.66902425E+04</totfact>
</mgrwt>
</event>
<event>
 7    0  0.4725730E-002  0.4560217E+03  0.7546771E-02  0.1025941E+00
         21   -1    0    0  502  501  0.00000000000E+00  0.00000000000E+00  0.18658368770E+03  0.18658368770E+03  0.00000000000E+00 0.  1.
         21   -1    0    0  501  502 -0.00000000000E+00 -0.00000000000E+00 -0.27863607010E+03  0.27863607010E+03  0.00000000000E+00 0.  1.
      99926    2    1    2    0    0  0.00000000000E+00  0.14210854715E-13 -0.92052382396E+02  0.46521975780E+03  0.45602169021E+03 0.  0.
      99925    2    3    3    0    0  0.71866525975E+02  0.87374269484E+02 -0.41517286759E+02  0.28915055403E+03  0.26284082117E+03 0.  0.
         25    1    3    3    0    0 -0.71866525975E+02 -0.87374269484E+02 -0.50535095637E+02  0.17606920377E+03  0.12509000000E+03 0.  0.
         25    1    4    4    0    0  0.35350849500E+02  0.17539799103E+01 -0.24666242416E+02  0.13232040894E+03  0.12509000000E+03 0.  0.
         25    1    4    4    0    0  0.36515676475E+02  0.85620289574E+02 -0.16851044342E+02  0.15683014510E+03  0.12509000000E+03 0.  0.
<mgrwt>
<rscale>  2 0.45602169E+03</rscale>
<asrwt>0</asrwt>
<pdfrwt beam="1">  1       21 0.27438778E-01 0.45602169E+03</pdfrwt>
<pdfrwt beam="2">  1       21 0.40975893E-01 0.45602169E+03</pdfrwt>
<totfact> 0.67246130E+04</totfact>
</mgrwt>
</event>
<event>
 7    0  0.4725730E-002  0.4573531E+03  0.7546771E-02  0.1025552E+00
         21   -1    0    0  502  501  0.00000000000E+00  0.00000000000E+00  0.52356244237E+02  0.52356244237E+02  0.00000000000E+00 0. -1.
         21   -1    0    0  501  502 -0.00000000000E+00 -0.00000000000E+00 -0.99879131122E+03  0.99879131122E+03  0.00000000000E+00 0. -1.
      99926    2    1    2    0    0  0.00000000000E+00 -0.17763568394E-14 -0.94643506699E+03  0.10511475555E+04  0.45735308825E+03 0.  0.
      99925    2    3    3    0    0 -0.50934968545E+02 -0.67299834822E+01 -0.35581336257E+03  0.44524230749E+03  0.26267451283E+03 0.  0.
         25    1    3    3    0    0  0.50934968545E+02  0.67299834822E+01 -0.59062170441E+03  0.60590524797E+03  0.12509000000E+03 0.  0.
         25    1    4    4    0    0 -0.49170010653E+02 -0.32571221595E+02 -0.16050658372E+03  0.21186893576E+03  0.12509000000E+03 0.  0.
         25    1    4    4    0    0 -0.17649578912E+01  0.25841238112E+02 -0.19530677886E+03  0.23337337173E+03  0.12509000000E+03 0.  0.
<mgrwt>
<rscale>  2 0.45735309E+03</rscale>
<asrwt>0</asrwt>
<pdfrwt beam="1">  1       21 0.76994479E-02 0.45735309E+03</pdfrwt>
<pdfrwt beam="2">  1       21 0.14688107E+00 0.45735309E+03</pdfrwt>
<totfact> 0.36559221E+04</totfact>
</mgrwt>
</event>
<event>
 7    0  0.4725730E-002  0.4439861E+03  0.7546771E-02  0.1029531E+00
         21   -1    0    0  502  501  0.00000000000E+00  0.00000000000E+00  0.55006189725E+03  0.55006189725E+03  0.00000000000E+00 0. -1.
         21   -1    0    0  501  502 -0.00000000000E+00 -0.00000000000E+00 -0.89591591821E+02  0.89591591821E+02  0.00000000000E+00 0. -1.
      99926    2    1    2    0    0  0.00000000000E+00  0.00000000000E+00  0.46047030543E+03  0.63965348907E+03  0.44398613030E+03 0.  0.
      99925    2    3    3    0    0  0.22956092160E+01  0.25326129961E+02  0.14962158914E+03  0.30361611734E+03  0.26296281884E+03 0.  0.
         25    1    4    4    0    0  0.31018859764E+01 -0.27604639290E+02  0.66411676289E+02  0.14432483035E+03  0.12509000000E+03 0.  0.
         25    1    4    4    0    0 -0.80627676037E+00  0.52930769252E+02  0.83209912851E+02  0.15929128699E+03  0.12509000000E+03 0.  0.
         25    1    3    3    0    0 -0.22956092160E+01 -0.25326129961E+02  0.31084871629E+03  0.33603737173E+03  0.12509000000E+03 0.  0.
<mgrwt>
<rscale>  2 0.44398613E+03</rscale>
<asrwt>0</asrwt>
<pdfrwt beam="1">  1       21 0.80891454E-01 0.44398613E+03</pdfrwt>
<pdfrwt beam="2">  1       21 0.13175234E-01 0.44398613E+03</pdfrwt>
<totfact> 0.61472383E+04</totfact>
</mgrwt>
</event>
<event>
 7    0  0.4725730E-002  0.4526834E+03  0.7546771E-02  0.1026925E+00
         21   -1    0    0  502  501  0.00000000000E+00  0.00000000000E+00  0.50255368748E+03  0.50255368748E+03  0.00000000000E+00 0. -1.
         21   -1    0    0  501  502 -0.00000000000E+00 -0.00000000000E+00 -0.10194046290E+03  0.10194046290E+03  0.00000000000E+00 0. -1.
      99926    2    1    2    0    0  0.00000000000E+00  0.00000000000E+00  0.40061322458E+03  0.60449415038E+03  0.45268335747E+03 0.  0.
      99925    2    3    3    0    0 -0.84359568252E+02  0.71992779585E+02  0.24428378602E+03  0.37561449088E+03  0.26289195610E+03 0.  0.
         25    1    4    4    0    0 -0.80747999305E+02  0.35923717176E+02  0.11015238986E+03  0.18865791778E+03  0.12509000000E+03 0.  0.
         25    1    3    3    0    0  0.84359568252E+02 -0.71992779585E+02  0.15632943857E+03  0.22887965949E+03  0.12509000000E+03 0.  0.
         25    1    4    4    0    0 -0.36115689467E+01  0.36069062409E+02  0.13413139616E+03  0.18695657311E+03  0.12509000000E+03 0.  0.
<mgrwt>
<rscale>  2 0.45268336E+03</rscale>
<asrwt>0</asrwt>
<pdfrwt beam="1">  1       21 0.73904953E-01 0.45268336E+03</pdfrwt>
<pdfrwt beam="2">  1       21 0.14991245E-01 0.45268336E+03</pdfrwt>
<totfact> 0.59483696E+04</totfact>
</mgrwt>
</event>
<event>
 7    0  0.4725730E-002  0.4813180E+03  0.7546771E-02  0.1018774E+00
         21   -1    0    0  502  501  0.00000000000E+00  0.00000000000E+00  0.57943654110E+02  0.57943654110E+02  0.00000000000E+00 0. -1.
         21   -1    0    0  501  502 -0.00000000000E+00 -0.00000000000E+00 -0.99953572246E+03  0.99953572246E+03  0.00000000000E+00 0. -1.
      99926    2    1    2    0    0 -0.35527136788E-14  0.00000000000E+00 -0.94159206835E+03  0.10574793766E+04  0.48131799124E+03 0.  0.
      99925    2    3    3    0    0  0.23010266447E+02 -0.32357210090E+02 -0.86623275326E+03  0.90614201873E+03  0.26297854262E+03 0.  0.
         25    1    3    3    0    0 -0.23010266447E+02  0.32357210090E+02 -0.75359315083E+02  0.15133735784E+03  0.12509000000E+03 0.  0.
         25    1    4    4    0    0  0.69808859524E+01 -0.54714946300E+02 -0.40471234755E+03  0.42717917842E+03  0.12509000000E+03 0.  0.
         25    1    4    4    0    0  0.16029380495E+02  0.22357736210E+02 -0.46152040571E+03  0.47896284031E+03  0.12509000000E+03 0.  0.
<mgrwt>
<rscale>  2 0.48131799E+03</rscale>
<asrwt>0</asrwt>
<pdfrwt beam="1">  1       21 0.85211260E-02 0.48131799E+03</pdfrwt>
<pdfrwt beam="2">  1       21 0.14699054E+00 0.48131799E+03</pdfrwt>
<totfact> 0.30287653E+04</totfact>
</mgrwt>
</event>
<event>
 7    0  0.4725730E-002  0.4342752E+03  0.7546771E-02  0.1032518E+00
         21   -1    0    0  502  501  0.00000000000E+00  0.00000000000E+00  0.87580967245E+02  0.87580967245E+02  0.00000000000E+00 0. -1.
         21   -1    0    0  501  502 -0.00000000000E+00 -0.00000000000E+00 -0.53834464346E+03  0.53834464346E+03  0.00000000000E+00 0. -1.
      99926    2    1    2    0    0  0.00000000000E+00  0.00000000000E+00 -0.45076367622E+03  0.62592561071E+03  0.43427523340E+03 0.  0.
      99925    2    3    3    0    0 -0.44040084064E+02 -0.34342529410E+02 -0.18341046221E+03  0.32551890727E+03  0.26306695538E+03 0.  0.
         25    1    3    3    0    0  0.44040084064E+02  0.34342529410E+02 -0.26735321401E+03  0.30040670344E+03  0.12509000000E+03 0.  0.
         25    1    4    4    0    0 -0.11679181119E+00 -0.72253803369E+01 -0.12850995954E+03  0.17948408721E+03  0.12509000000E+03 0.  0.
         25    1    4    4    0    0 -0.43923292253E+02 -0.27117149073E+02 -0.54900502673E+02  0.14603482006E+03  0.12509000000E+03 0.  0.
<mgrwt>
<rscale>  2 0.43427523E+03</rscale>
<asrwt>0</asrwt>
<pdfrwt beam="1">  1       21 0.12879554E-01 0.43427523E+03</pdfrwt>
<pdfrwt beam="2">  1       21 0.79168329E-01 0.43427523E+03</pdfrwt>
<totfact> 0.67492378E+04</totfact>
</mgrwt>
</event>
<event>
 7    0  0.4725730E-002  0.4595441E+03  0.7546771E-02  0.1024914E+00
         21   -1    0    0  502  501  0.00000000000E+00  0.00000000000E+00  0.19583882115E+03  0.19583882115E+03  0.00000000000E+00 0. -1.
         21   -1    0    0  501  502 -0.00000000000E+00 -0.00000000000E+00 -0.26958490724E+03  0.26958490724E+03  0.00000000000E+00 0. -1.
      99926    2    1    2    0    0  0.00000000000E+00  0.00000000000E+00 -0.73746086098E+02  0.46542372839E+03  0.45954408029E+03 0.  0.
      99925    2    3    3    0    0 -0.23019655682E+02 -0.11511594301E+03 -0.45323980832E+02  0.29153609498E+03  0.26297803436E+03 0.  0.
         25    1    4    4    0    0 -0.29388834760E+02 -0.42956401456E+02 -0.55973691199E+02  0.14659303613E+03  0.12509000000E+03 0.  0.
         25    1    4    4    0    0  0.63691790773E+01 -0.72159541558E+02  0.10649710367E+02  0.14494305886E+03  0.12509000000E+03 0.  0.
         25    1    3    3    0    0  0.23019655682E+02  0.11511594301E+03 -0.28422105265E+02  0.17388763341E+03  0.12509000000E+03 0.  0.
<mgrwt>
<rscale>  2 0.45954408E+03</rscale>
<asrwt>0</asrwt>
<pdfrwt beam="1">  1       21 0.28799827E-01 0.45954408E+03</pdfrwt>
<pdfrwt beam="2">  1       21 0.39644839E-01 0.45954408E+03</pdfrwt>
<totfact> 0.65384668E+04</totfact>
</mgrwt>
</event>
<event>
 7    0  0.4725730E-002  0.4482607E+03  0.7546771E-02  0.1028242E+00
         21   -1    0    0  502  501  0.00000000000E+00  0.00000000000E+00  0.15704703958E+03  0.15704703958E+03  0.00000000000E+00 0.  1.
         21   -1    0    0  501  502 -0.00000000000E+00 -0.00000000000E+00 -0.31986856999E+03  0.31986856999E+03  0.00000000000E+00 0.  1.
      99926    2    1    2    0    0  0.00000000000E+00  0.00000000000E+00 -0.16282153041E+03  0.47691560958E+03  0.44826069189E+03 0.  0.
      99925    2    3    3    0    0 -0.25764533801E+02  0.85139978136E+02 -0.16583891983E+03  0.32339284313E+03  0.26299763607E+03 0.  0.
         25    1    3    3    0    0  0.25764533801E+02 -0.85139978136E+02  0.30173894171E+01  0.15352276645E+03  0.12509000000E+03 0.  0.
         25    1    4    4    0    0 -0.19147927745E+02  0.76456982408E+02 -0.61487989795E+02  0.16012680689E+03  0.12509000000E+03 0.  0.
         25    1    4    4    0    0 -0.66166060562E+01  0.86829957284E+01 -0.10435093003E+03  0.16326603624E+03  0.12509000000E+03 0.  0.
<mgrwt>
<rscale>  2 0.44826069E+03</rscale>
<asrwt>0</asrwt>
<pdfrwt beam="1">  1       21 0.23095153E-01 0.44826069E+03</pdfrwt>
<pdfrwt beam="2">  1       21 0.47039494E-01 0.44826069E+03</pdfrwt>
<totfact> 0.70628567E+04</totfact>
</mgrwt>
</event>
<event>
 7    0  0.4725730E-002  0.4551494E+03  0.7546771E-02  0.1026197E+00
         21   -1    0    0  502  501  0.00000000000E+00  0.00000000000E+00  0.60709604914E+03  0.60709604914E+03  0.00000000000E+00 0. -1.
         21   -1    0    0  501  502 -0.00000000000E+00 -0.00000000000E+00 -0.85308168769E+02  0.85308168769E+02  0.00000000000E+00 0. -1.
      99926    2    1    2    0    0  0.00000000000E+00  0.14210854715E-13  0.52178788037E+03  0.69240421791E+03  0.45514943576E+03 0.  0.
      99925    2    3    3    0    0  0.36871920695E+02  0.97342194061E+02  0.25989310500E+03  0.38406767654E+03  0.26292301697E+03 0.  0.
         25    1    4    4    0    0  0.37614201138E+02  0.11722654777E+02  0.11721707833E+03  0.17589656141E+03  0.12509000000E+03 0.  0.
         25    1    3    3    0    0 -0.36871920695E+02 -0.97342194061E+02  0.26189477536E+03  0.30833654137E+03  0.12509000000E+03 0.  0.
         25    1    4    4    0    0 -0.74228044295E+00  0.85619539284E+02  0.14267602667E+03  0.20817111513E+03  0.12509000000E+03 0.  0.
<mgrwt>
<rscale>  2 0.45514944E+03</rscale>
<asrwt>0</asrwt>
<pdfrwt beam="1">  1       21 0.89278828E-01 0.45514944E+03</pdfrwt>
<pdfrwt beam="2">  1       21 0.12545319E-01 0.45514944E+03</pdfrwt>
<totfact> 0.53254696E+04</totfact>
</mgrwt>
</event>
<event>
 7    0  0.4725730E-002  0.4535123E+03  0.7546771E-02  0.1026680E+00
         21   -1    0    0  502  501  0.00000000000E+00  0.00000000000E+00  0.10514343917E+04  0.10514343917E+04  0.00000000000E+00 0.  1.
         21   -1    0    0  501  502 -0.00000000000E+00 -0.00000000000E+00 -0.48903060097E+02  0.48903060097E+02  0.00000000000E+00 0.  1.
      99926    2    1    2    0    0  0.17763568394E-14  0.00000000000E+00  0.10025313316E+04  0.11003374518E+04  0.45351233389E+03 0.  0.
      99925    2    3    3    0    0 -0.89251681654E+01 -0.10900728810E+03  0.57887892352E+03  0.64526479995E+03  0.26325578147E+03 0.  0.
         25    1    4    4    0    0  0.21452182594E+02 -0.39043739082E+02  0.21124708260E+03  0.24951442384E+03  0.12509000000E+03 0.  0.
         25    1    4    4    0    0 -0.30377350760E+02 -0.69963549017E+02  0.36763184092E+03  0.39575037611E+03  0.12509000000E+03 0.  0.
         25    1    3    3    0    0  0.89251681654E+01  0.10900728810E+03  0.42365240812E+03  0.45507265188E+03  0.12509000000E+03 0.  0.
<mgrwt>
<rscale>  2 0.45351233E+03</rscale>
<asrwt>0</asrwt>
<pdfrwt beam="1">  1       21 0.15462269E+00 0.45351233E+03</pdfrwt>
<pdfrwt beam="2">  1       21 0.71916271E-02 0.45351233E+03</pdfrwt>
<totfact> 0.35897323E+04</totfact>
</mgrwt>
</event>
<event>
 7    0  0.4725730E-002  0.4375870E+03  0.7546771E-02  0.1031490E+00
         21   -1    0    0  502  501  0.00000000000E+00  0.00000000000E+00  0.49370535519E+02  0.49370535519E+02  0.00000000000E+00 0.  1.
         21   -1    0    0  501  502 -0.00000000000E+00 -0.00000000000E+00 -0.96961853506E+03  0.96961853506E+03  0.00000000000E+00 0.  1.
      99926    2    1    2    0    0  0.00000000000E+00  0.71054273576E-14 -0.92024799954E+03  0.10189890706E+04  0.43758695741E+03 0.  0.
      99925    2    3    3    0    0 -0.61069561593E+02 -0.44547805709E+02 -0.72636089845E+03  0.77618521061E+03  0.26296259815E+03 0.  0.
         25    1    4    4    0    0 -0.32956771837E+02  0.53698821491E+01 -0.26825295138E+03  0.29786261677E+03  0.12509000000E+03 0.  0.
         25    1    4    4    0    0 -0.28112789757E+02 -0.49917687858E+02 -0.45810794707E+03  0.47832259384E+03  0.12509000000E+03 0.  0.
         25    1    3    3    0    0  0.61069561593E+02  0.44547805709E+02 -0.19388710109E+03  0.24280385997E+03  0.12509000000E+03 0.  0.
<mgrwt>
<rscale>  2 0.43758696E+03</rscale>
<asrwt>0</asrwt>
<pdfrwt beam="1">  1       21 0.72603738E-02 0.43758696E+03</pdfrwt>
<pdfrwt beam="2">  1       21 0.14259094E+00 0.43758696E+03</pdfrwt>
<totfact> 0.44138777E+04</totfact>
</mgrwt>
</event>
<event>
 7    0  0.4725730E-002  0.4586891E+03  0.7546771E-02  0.1025162E+00
         21   -1    0    0  502  501  0.00000000000E+00  0.00000000000E+00  0.10029168934E+03  0.10029168934E+03  0.00000000000E+00 0. -1.
         21   -1    0    0  501  502 -0.00000000000E+00 -0.00000000000E+00 -0.52445941805E+03  0.52445941805E+03  0.00000000000E+00 0. -1.
      99926    2    1    2    0    0  0.00000000000E+00  0.00000000000E+00 -0.42416772871E+03  0.62475110739E+03  0.45868909307E+03 0.  0.
      99925    2    3    3    0    0 -0.87543916167E+02  0.71505718014E+02 -0.30518875204E+03  0.41840065317E+03  0.26294852583E+03 0.  0.
         25    1    4    4    0    0 -0.58239542519E+02  0.66728942179E+02 -0.20187930894E+03  0.25347062851E+03  0.12509000000E+03 0.  0.
         25    1    4    4    0    0 -0.29304373648E+02  0.47767758351E+01 -0.10330944310E+03  0.16493002466E+03  0.12509000000E+03 0.  0.
         25    1    3    3    0    0  0.87543916167E+02 -0.71505718014E+02 -0.11897897667E+03  0.20635045422E+03  0.12509000000E+03 0.  0.
<mgrwt>
<rscale>  2 0.45868909E+03</rscale>
<asrwt>0</asrwt>
<pdfrwt beam="1">  1       21 0.14748778E-01 0.45868909E+03</pdfrwt>
<pdfrwt beam="2">  1       21 0.77126384E-01 0.45868909E+03</pdfrwt>
<totfact> 0.55544427E+04</totfact>
</mgrwt>
</event>
<event>
 7    0  0.4725730E-002  0.4561595E+03  0.7546771E-02  0.1025901E+00
         21   -1    0    0  502  501  0.00000000000E+00  0.00000000000E+00  0.11027881645E+04  0.11027881645E+04  0.00000000000E+00 0.  1.
         21   -1    0    0  501  502 -0.00000000000E+00 -0.00000000000E+00 -0.47171673011E+02  0.47171673011E+02  0.00000000000E+00 0.  1.
      99926    2    1    2    0    0  0.00000000000E+00  0.00000000000E+00  0.10556164915E+04  0.11499598375E+04  0.45615945763E+03 0.  0.
      99925    2    3    3    0    0  0.16141661835E+02 -0.33242698539E+02  0.93629100140E+03  0.97317830302E+03  0.26281084437E+03 0.  0.
         25    1    4    4    0    0 -0.32164498231E+02 -0.18310670363E+02  0.45376192588E+03  0.47214111140E+03  0.12509000000E+03 0.  0.
         25    1    3    3    0    0 -0.16141661835E+02  0.33242698539E+02  0.11932549010E+03  0.17678153450E+03  0.12509000000E+03 0.  0.
         25    1    4    4    0    0  0.48306160066E+02 -0.14932028176E+02  0.48252907552E+03  0.50103719162E+03  0.12509000000E+03 0.  0.
<mgrwt>
<rscale>  2 0.45615946E+03</rscale>
<asrwt>0</asrwt>
<pdfrwt beam="1">  1       21 0.16217471E+00 0.45615946E+03</pdfrwt>
<pdfrwt beam="2">  1       21 0.69370114E-02 0.45615946E+03</pdfrwt>
<totfact> 0.33480143E+04</totfact>
</mgrwt>
</event>
<event>
 7    0  0.4725730E-002  0.4404520E+03  0.7546771E-02  0.1030608E+00
         21   -1    0    0  502  501  0.00000000000E+00  0.00000000000E+00  0.63487289243E+02  0.63487289243E+02  0.00000000000E+00 0.  1.
         21   -1    0    0  501  502 -0.00000000000E+00 -0.00000000000E+00 -0.76392454749E+03  0.76392454749E+03  0.00000000000E+00 0.  1.
      99926    2    1    2    0    0 -0.71054273576E-14  0.00000000000E+00 -0.70043725824E+03  0.82741183673E+03  0.44045203465E+03 0.  0.
      99925    2    3    3    0    0 -0.30831444096E+02 -0.11990784664E+02 -0.62195098118E+03  0.67607789920E+03  0.26299039133E+03 0.  0.
         25    1    3    3    0    0  0.30831444096E+02  0.11990784664E+02 -0.78486277064E+02  0.15133393753E+03  0.12509000000E+03 0.  0.
         25    1    4    4    0    0  0.21668569757E+02 -0.68856127471E+01 -0.25783590075E+03  0.28747834421E+03  0.12509000000E+03 0.  0.
         25    1    4    4    0    0 -0.52500013853E+02 -0.51051719164E+01 -0.36411508043E+03  0.38859955498E+03  0.12509000000E+03 0.  0.
<mgrwt>
<rscale>  2 0.44045203E+03</rscale>
<asrwt>0</asrwt>
<pdfrwt beam="1">  1       21 0.93363667E-02 0.44045203E+03</pdfrwt>
<pdfrwt beam="2">  1       21 0.11234184E+00 0.44045203E+03</pdfrwt>
<totfact> 0.52172509E+04</totfact>
</mgrwt>
</event>
<event>
 7    0  0.4725730E-002  0.4564302E+03  0.7546771E-02  0.1025822E+00
         21   -1    0    0  502  501  0.00000000000E+00  0.00000000000E+00  0.28499647882E+03  0.28499647882E+03  0.00000000000E+00 0.  1.
         21   -1    0    0  501  502 -0.00000000000E+00 -0.00000000000E+00 -0.18274658688E+03  0.18274658688E+03  0.00000000000E+00 0.  1.
      99926    2    1    2    0    0  0.00000000000E+00 -0.71054273576E-14  0.10224989194E+03  0.46774306571E+03  0.45643020837E+03 0.  0.
      99925    2    3    3    0    0  0.72361793570E+02 -0.58896630028E+02  0.13227955591E+03  0.30882695257E+03  0.26300411313E+03 0.  0.
         25    1    4    4    0    0  0.46716230223E+02 -0.67126533475E+02  0.87943021624E+02  0.17340663429E+03  0.12509000000E+03 0.  0.
         25    1    3    3    0    0 -0.72361793570E+02  0.58896630028E+02 -0.30029663965E+02  0.15891611314E+03  0.12509000000E+03 0.  0.
         25    1    4    4    0    0  0.25645563348E+02  0.82299034471E+01  0.44336534285E+02  0.13542031828E+03  0.12509000000E+03 0.  0.
<mgrwt>
<rscale>  2 0.45643021E+03</rscale>
<asrwt>0</asrwt>
<pdfrwt beam="1">  1       21 0.41911247E-01 0.45643021E+03</pdfrwt>
<pdfrwt beam="2">  1       21 0.26874498E-01 0.45643021E+03</pdfrwt>
<totfact> 0.66842766E+04</totfact>
</mgrwt>
</event>
<event>
 7    0  0.4725730E-002  0.4543880E+03  0.7546771E-02  0.1026422E+00
         21   -1    0    0  502  501  0.00000000000E+00  0.00000000000E+00  0.11425774753E+03  0.11425774753E+03  0.00000000000E+00 0.  1.
         21   -1    0    0  501  502 -0.00000000000E+00 -0.00000000000E+00 -0.45176025761E+03  0.45176025761E+03  0.00000000000E+00 0.  1.
      99926    2    1    2    0    0  0.00000000000E+00  0.00000000000E+00 -0.33750251007E+03  0.56601800514E+03  0.45438798161E+03 0.  0.
      99925    2    3    3    0    0 -0.36401088117E+02  0.84188952384E+02 -0.29385735792E+03  0.40488071484E+03  0.26298940572E+03 0.  0.
         25    1    4    4    0    0  0.95044216410E+01  0.25523667861E+02 -0.10003828751E+03  0.16247140893E+03  0.12509000000E+03 0.  0.
         25    1    4    4    0    0 -0.45905509758E+02  0.58665284522E+02 -0.19381907041E+03  0.24240930591E+03  0.12509000000E+03 0.  0.
         25    1    3    3    0    0  0.36401088117E+02 -0.84188952384E+02 -0.43645152149E+02  0.16113729030E+03  0.12509000000E+03 0.  0.
<mgrwt>
<rscale>  2 0.45438798E+03</rscale>
<asrwt>0</asrwt>
<pdfrwt beam="1">  1       21 0.16802610E-01 0.45438798E+03</pdfrwt>
<pdfrwt beam="2">  1       21 0.66435331E-01 0.45438798E+03</pdfrwt>
<totfact> 0.61115552E+04</totfact>
</mgrwt>
</event>
<event>
 7    0  0.4725730E-002  0.4492654E+03  0.7546771E-02  0.1027941E+00
         21   -1    0    0  502  501  0.00000000000E+00  0.00000000000E+00  0.99218541955E+03  0.99218541955E+03  0.00000000000E+00 0. -1.
         21   -1    0    0  501  502 -0.00000000000E+00 -0.00000000000E+00 -0.50857271690E+02  0.50857271690E+02  0.00000000000E+00 0. -1.
      99926    2    1    2    0    0  0.14210854715E-13 -0.35527136788E-14  0.94132814786E+03  0.10430426912E+04  0.44926537124E+03 0.  0.
      99925    2    3    3    0    0 -0.10403116609E+03  0.25149855352E+02  0.62293688384E+03  0.68460789404E+03  0.26302587056E+03 0.  0.
         25    1    4    4    0    0 -0.80594918952E+02 -0.13040940735E+02  0.29192010507E+03  0.32791837847E+03  0.12509000000E+03 0.  0.
         25    1    3    3    0    0  0.10403116609E+03 -0.25149855352E+02  0.31839126402E+03  0.35843479720E+03  0.12509000000E+03 0.  0.
         25    1    4    4    0    0 -0.23436247140E+02  0.38190796088E+02  0.33101677877E+03  0.35668951557E+03  0.12509000000E+03 0.  0.
<mgrwt>
<rscale>  2 0.44926537E+03</rscale>
<asrwt>0</asrwt>
<pdfrwt beam="1">  1       21 0.14590961E+00 0.44926537E+03</pdfrwt>
<pdfrwt beam="2">  1       21 0.74790112E-02 0.44926537E+03</pdfrwt>
<totfact> 0.39261985E+04</totfact>
</mgrwt>
</event>
<event>
 6    0  0.4725730E-002  0.4581049E+03  0.7546771E-02  0.1025332E+00
         21   -1    0    0  502  501  0.00000000000E+00  0.00000000000E+00  0.71191197985E+03  0.71191197985E+03  0.00000000000E+00 0. -1.
         21   -1    0    0  501  502 -0.00000000000E+00 -0.00000000000E+00 -0.73695934320E+02  0.73695934320E+02  0.00000000000E+00 0. -1.
      99926    2    1    2    0    0  0.00000000000E+00 -0.14210854715E-13  0.63821604553E+03  0.78560791417E+03  0.45810487231E+03 0.  0.
         25    1    3    3    0    0  0.72624480389E+00 -0.94700194267E+01  0.14099618229E+03  0.18872636334E+03  0.12509000000E+03 0.  0.
         25    1    3    3    0    0  0.29666889771E+02  0.10813118623E+03  0.24863255978E+03  0.30006355271E+03  0.12509000000E+03 0.  0.
         25    1    3    3    0    0 -0.30393134575E+02 -0.98661166803E+02  0.24858730346E+03  0.29681799812E+03  0.12509000000E+03 0.  0.
<mgrwt>
<rscale>  2 0.45810487E+03</rscale>
<asrwt>0</asrwt>
<pdfrwt beam="1">  1       21 0.10469293E+00 0.45810487E+03</pdfrwt>
<pdfrwt beam="2">  1       21 0.10837638E-01 0.45810487E+03</pdfrwt>
<totfact> 0.47305472E+04</totfact>
</mgrwt>
</event>
<event>
 7    0  0.4725730E-002  0.4508973E+03  0.7546771E-02  0.1027455E+00
         21   -1    0    0  502  501  0.00000000000E+00  0.00000000000E+00  0.66720842123E+02  0.66720842123E+02  0.00000000000E+00 0. -1.
         21   -1    0    0  501  502 -0.00000000000E+00 -0.00000000000E+00 -0.76178720332E+03  0.76178720332E+03  0.00000000000E+00 0. -1.
      99926    2    1    2    0    0  0.14210854715E-13  0.00000000000E+00 -0.69506636120E+03  0.82850804544E+03  0.45089725537E+03 0.  0.
      99925    2    3    3    0    0 -0.90113359200E+02 -0.21890765127E+02 -0.33295288542E+03  0.43433384468E+03  0.26303733884E+03 0.  0.
         25    1    4    4    0    0 -0.68910066359E+02  0.67178630968E+01 -0.12973845849E+03  0.19306294995E+03  0.12509000000E+03 0.  0.
         25    1    3    3    0    0  0.90113359200E+02  0.21890765127E+02 -0.36211347578E+03  0.39417420076E+03  0.12509000000E+03 0.  0.
         25    1    4    4    0    0 -0.21203292841E+02 -0.28608628224E+02 -0.20321442692E+03  0.24127089473E+03  0.12509000000E+03 0.  0.
<mgrwt>
<rscale>  2 0.45089726E+03</rscale>
<asrwt>0</asrwt>
<pdfrwt beam="1">  1       21 0.98118886E-02 0.45089726E+03</pdfrwt>
<pdfrwt beam="2">  1       21 0.11202753E+00 0.45089726E+03</pdfrwt>
<totfact> 0.47941355E+04</totfact>
</mgrwt>
</event>
<event>
 7    0  0.4725730E-002  0.4572368E+03  0.7546771E-02  0.1025586E+00
         21   -1    0    0  502  501  0.00000000000E+00  0.00000000000E+00  0.38433787225E+03  0.38433787225E+03  0.00000000000E+00 0. -1.
         21   -1    0    0  501  502 -0.00000000000E+00 -0.00000000000E+00 -0.13599066646E+03  0.13599066646E+03  0.00000000000E+00 0. -1.
      99926    2    1    2    0    0  0.00000000000E+00  0.00000000000E+00  0.24834720579E+03  0.52032853871E+03  0.45723675877E+03 0.  0.
      99925    2    3    3    0    0  0.95534979503E+01  0.53517177639E+02  0.40277080432E+02  0.27153938543E+03  0.26297535437E+03 0.  0.
         25    1    4    4    0    0  0.18398646405E+02  0.38772127454E+02  0.57307241002E+02  0.14412985821E+03  0.12509000000E+03 0.  0.
         25    1    3    3    0    0 -0.95534979503E+01 -0.53517177639E+02  0.20807012536E+03  0.24878915329E+03  0.12509000000E+03 0.  0.
         25    1    4    4    0    0 -0.88451484546E+01  0.14745050185E+02 -0.17030160569E+02  0.12740952722E+03  0.12509000000E+03 0.  0.
<mgrwt>
<rscale>  2 0.45723676E+03</rscale>
<asrwt>0</asrwt>
<pdfrwt beam="1">  1       21 0.56520275E-01 0.45723676E+03</pdfrwt>
<pdfrwt beam="2">  1       21 0.19998628E-01 0.45723676E+03</pdfrwt>
<totfact> 0.62743986E+04</totfact>
</mgrwt>
</event>
<event>
 7    0  0.4725730E-002  0.4592688E+03  0.7546771E-02  0.1024994E+00
         21   -1    0    0  502  501  0.00000000000E+00  0.00000000000E+00  0.30246345617E+03  0.30246345617E+03  0.00000000000E+00 0.  1.
         21   -1    0    0  501  502 -0.00000000000E+00 -0.00000000000E+00 -0.17434157996E+03  0.17434157996E+03  0.00000000000E+00 0.  1.
      99926    2    1    2    0    0  0.00000000000E+00  0.00000000000E+00  0.12812187621E+03  0.47680503613E+03  0.45926879637E+03 0.  0.
      99925    2    3    3    0    0  0.99195695437E+01  0.20566903106E+02 -0.39046793247E+02  0.26677106861E+03  0.26290826465E+03 0.  0.
         25    1    4    4    0    0 -0.93537336404E+01 -0.16906679275E+01 -0.55565272976E+02  0.13720553324E+03  0.12509000000E+03 0.  0.
         25    1    3    3    0    0 -0.99195695437E+01 -0.20566903106E+02  0.16716866946E+03  0.21003396752E+03  0.12509000000E+03 0.  0.
         25    1    4    4    0    0  0.19273303184E+02  0.22257571034E+02  0.16518479728E+02  0.12956553537E+03  0.12509000000E+03 0.  0.
<mgrwt>
<rscale>  2 0.45926880E+03</rscale>
<asrwt>0</asrwt>
<pdfrwt beam="1">  1       21 0.44479920E-01 0.45926880E+03</pdfrwt>
<pdfrwt beam="2">  1       21 0.25638467E-01 0.45926880E+03</pdfrwt>
<totfact> 0.64713323E+04</totfact>
</mgrwt>
</event>
<event>
 7    0  0.4725730E-002  0.4612674E+03  0.7546771E-02  0.1024414E+00
         21   -1    0    0  502  501  0.00000000000E+00  0.00000000000E+00  0.23301727386E+03  0.23301727386E+03  0.00000000000E+00 0.  1.
         21   -1    0    0  501  502 -0.00000000000E+00 -0.00000000000E+00 -0.22827454626E+03  0.22827454626E+03  0.00000000000E+00 0.  1.
      99926    2    1    2    0    0  0.00000000000E+00  0.00000000000E+00  0.47427275979E+01  0.46129182011E+03  0.46126743852E+03 0.  0.
      99925    2    3    3    0    0 -0.45343867163E+02  0.98232854746E+02 -0.46481431591E+02  0.28815261997E+03  0.26299362896E+03 0.  0.
         25    1    3    3    0    0  0.45343867163E+02 -0.98232854746E+02  0.51224159189E+02  0.17313920014E+03  0.12509000000E+03 0.  0.
         25    1    4    4    0    0 -0.40199036919E+02  0.25402444469E+02 -0.51080429070E+02  0.14324093370E+03  0.12509000000E+03 0.  0.
         25    1    4    4    0    0 -0.51448302440E+01  0.72830410277E+02  0.45989974781E+01  0.14491168627E+03  0.12509000000E+03 0.  0.
<mgrwt>
<rscale>  2 0.46126744E+03</rscale>
<asrwt>0</asrwt>
<pdfrwt beam="1">  1       21 0.34267246E-01 0.46126744E+03</pdfrwt>
<pdfrwt beam="2">  1       21 0.33569786E-01 0.46126744E+03</pdfrwt>
<totfact> 0.64786361E+04</totfact>
</mgrwt>
</event>
<event>
 7    0  0.4725730E-002  0.4486750E+03  0.7546771E-02  0.1028118E+00
         21   -1    0    0  502  501  0.00000000000E+00  0.00000000000E+00  0.15368055318E+03  0.15368055318E+03  0.00000000000E+00 0.  1.
         21   -1    0    0  501  502 -0.00000000000E+00 -0.00000000000E+00 -0.32748004600E+03  0.32748004600E+03  0.00000000000E+00 0.  1.
      99926    2    1    2    0    0  0.00000000000E+00  0.71054273576E-14 -0.17379949282E+03  0.48116059918E+03  0.44867500320E+03 0.  0.
      99925    2    3    3    0    0 -0.85663354767E+02 -0.57735881074E+02 -0.79706681531E+02  0.29361698411E+03  0.26303257586E+03 0.  0.
         25    1    3    3    0    0  0.85663354767E+02  0.57735881074E+02 -0.94092811292E+02  0.18754361506E+03  0.12509000000E+03 0.  0.
         25    1    4    4    0    0 -0.13868632894E+02 -0.57319638235E+02 -0.42214056004E+02  0.14459396436E+03  0.12509000000E+03 0.  0.
         25    1    4    4    0    0 -0.71794721873E+02 -0.41624283924E+00 -0.37492625528E+02  0.14902301975E+03  0.12509000000E+03 0.  0.
<mgrwt>
<rscale>  2 0.44867500E+03</rscale>
<asrwt>0</asrwt>
<pdfrwt beam="1">  1       21 0.22600082E-01 0.44867500E+03</pdfrwt>
<pdfrwt beam="2">  1       21 0.48158829E-01 0.44867500E+03</pdfrwt>
<totfact> 0.70068293E+04</totfact>
</mgrwt>
</event>
<event>
 7    0  0.4725730E-002  0.4528806E+03  0.7546771E-02  0.1026866E+00
         21   -1    0    0  502  501  0.00000000000E+00  0.00000000000E+00  0.12820876532E+04  0.12820876532E+04  0.00000000000E+00 0. -1.
         21   -1    0    0  501  502 -0.00000000000E+00 -0.00000000000E+00 -0.39993537453E+02  0.39993537453E+02  0.00000000000E+00 0. -1.
      99926    2    1    2    0    0  0.00000000000E+00  0.71054273576E-14  0.12420941158E+04  0.13220811907E+04  0.45288064908E+03 0.  0.
      99925    2    3    3    0    0  0.56657209463E+02  0.63937422910E+02  0.57642146947E+03  0.63939120718E+03  0.26317555343E+03 0.  0.
         25    1    3    3    0    0 -0.56657209463E+02 -0.63937422910E+02  0.66567264632E+03  0.68268998351E+03  0.12509000000E+03 0.  0.
         25    1    4    4    0    0 -0.11429730208E+01  0.51955707076E+02  0.23894075124E+03  0.27466505528E+03  0.12509000000E+03 0.  0.
         25    1    4    4    0    0  0.57800182484E+02  0.11981715834E+02  0.33748071823E+03  0.36472615191E+03  0.12509000000E+03 0.  0.
<mgrwt>
<rscale>  2 0.45288065E+03</rscale>
<asrwt>0</asrwt>
<pdfrwt beam="1">  1       21 0.18854227E+00 0.45288065E+03</pdfrwt>
<pdfrwt beam="2">  1       21 0.58814034E-02 0.45288065E+03</pdfrwt>
<totfact> 0.28954351E+04</totfact>
</mgrwt>
</event>
<event>
 7    0  0.4725730E-002  0.4533508E+03  0.7546771E-02  0.1026727E+00
         21   -1    0    0  502  501  0.00000000000E+00  0.00000000000E+00  0.61343151401E+02  0.61343151401E+02  0.00000000000E+00 0.  1.
         21   -1    0    0  501  502 -0.00000000000E+00 -0.00000000000E+00 -0.83761164550E+03  0.83761164550E+03  0.00000000000E+00 0.  1.
      99926    2    1    2    0    0  0.00000000000E+00  0.00000000000E+00 -0.77626849410E+03  0.89895479690E+03  0.45335080450E+03 0.  0.
      99925    2    3    3    0    0 -0.86670977797E+02  0.59931638572E+02 -0.56233695724E+03  0.62966337435E+03  0.26296283355E+03 0.  0.
         25    1    4    4    0    0 -0.41548169422E+02  0.14484284520E+02 -0.19007293499E+03  0.23175692783E+03  0.12509000000E+03 0.  0.
         25    1    3    3    0    0  0.86670977797E+02 -0.59931638572E+02 -0.21393153686E+03  0.26929142255E+03  0.12509000000E+03 0.  0.
         25    1    4    4    0    0 -0.45122808375E+02  0.45447354052E+02 -0.37226402224E+03  0.39790644652E+03  0.12509000000E+03 0.  0.
<mgrwt>
<rscale>  2 0.45335080E+03</rscale>
<asrwt>0</asrwt>
<pdfrwt beam="1">  1       21 0.90210516E-02 0.45335080E+03</pdfrwt>
<pdfrwt beam="2">  1       21 0.12317818E+00 0.45335080E+03</pdfrwt>
<totfact> 0.43842284E+04</totfact>
</mgrwt>
</event>
<event>
 7    0  0.4725730E-002  0.4598452E+03  0.7546771E-02  0.1024826E+00
         21   -1    0    0  502  501  0.00000000000E+00  0.00000000000E+00  0.19928943371E+03  0.19928943371E+03  0.00000000000E+00 0.  1.
         21   -1    0    0  501  502 -0.00000000000E+00 -0.00000000000E+00 -0.26526449111E+03  0.26526449111E+03  0.00000000000E+00 0.  1.
      99926    2    1    2    0    0  0.00000000000E+00  0.71054273576E-14 -0.65975057395E+02  0.46455392482E+03  0.45984523578E+03 0.  0.
      99925    2    3    3    0    0  0.86677882162E+02 -0.61637529076E+02  0.94203721774E+01  0.28387681186E+03  0.26303053179E+03 0.  0.
         25    1    4    4    0    0  0.17417543806E+02 -0.34494376129E+02 -0.27387638200E+02  0.13375658355E+03  0.12509000000E+03 0.  0.
         25    1    4    4    0    0  0.69260338356E+02 -0.27143152947E+02  0.36808010377E+02  0.15012022831E+03  0.12509000000E+03 0.  0.
         25    1    3    3    0    0 -0.86677882162E+02  0.61637529076E+02 -0.75395429573E+02  0.18067711296E+03  0.12509000000E+03 0.  0.
<mgrwt>
<rscale>  2 0.45984524E+03</rscale>
<asrwt>0</asrwt>
<pdfrwt beam="1">  1       21 0.29307270E-01 0.45984524E+03</pdfrwt>
<pdfrwt beam="2">  1       21 0.39009484E-01 0.45984524E+03</pdfrwt>
<totfact> 0.65290469E+04</totfact>
</mgrwt>
</event>
<event>
 7    0  0.4725730E-002  0.4551967E+03  0.7546771E-02  0.1026184E+00
         21   -1    0    0  502  501  0.00000000000E+00  0.00000000000E+00  0.33961451170E+03  0.33961451170E+03  0.00000000000E+00 0.  1.
         21   -1    0    0  501  502 -0.00000000000E+00 -0.00000000000E+00 -0.15252884649E+03  0.15252884649E+03  0.00000000000E+00 0.  1.
      99926    2    1    2    0    0  0.00000000000E+00  0.00000000000E+00  0.18708566522E+03  0.49214335819E+03  0.45519670351E+03 0.  0.
      99925    2    3    3    0    0 -0.88180087759E+02  0.70955628229E+02  0.10636096925E+03  0.30512888364E+03  0.26264148719E+03 0.  0.
         25    1    4    4    0    0 -0.51865622711E+02  0.27934647164E+01  0.74949675000E+02  0.15479925112E+03  0.12509000000E+03 0.  0.
         25    1    4    4    0    0 -0.36314465047E+02  0.68162163512E+02  0.31411294252E+02  0.15032963252E+03  0.12509000000E+03 0.  0.
         25    1    3    3    0    0  0.88180087759E+02 -0.70955628229E+02  0.80724695964E+02  0.18701447455E+03  0.12509000000E+03 0.  0.
<mgrwt>
<rscale>  2 0.45519670E+03</rscale>
<asrwt>0</asrwt>
<pdfrwt beam="1">  1       21 0.49943310E-01 0.45519670E+03</pdfrwt>
<pdfrwt beam="2">  1       21 0.22430713E-01 0.45519670E+03</pdfrwt>
<totfact> 0.65723519E+04</totfact>
</mgrwt>
</event>
<event>
 7    0  0.4725730E-002  0.4604574E+03  0.7546771E-02  0.1024649E+00
         21   -1    0    0  502  501  0.00000000000E+00  0.00000000000E+00  0.20099061559E+03  0.20099061559E+03  0.00000000000E+00 0. -1.
         21   -1    0    0  501  502 -0.00000000000E+00 -0.00000000000E+00 -0.26371999184E+03  0.26371999184E+03  0.00000000000E+00 0. -1.
      99926    2    1    2    0    0  0.00000000000E+00  0.00000000000E+00 -0.62729376245E+02  0.46471060743E+03  0.46045735309E+03 0.  0.
      99925    2    3    3    0    0 -0.63744018656E+02  0.91077220460E+02 -0.79971285225E+02  0.29647520234E+03  0.26295204723E+03 0.  0.
         25    1    4    4    0    0 -0.40921230278E+02  0.87053889559E+02 -0.52701608318E+02  0.16636674666E+03  0.12509000000E+03 0.  0.
         25    1    3    3    0    0  0.63744018656E+02 -0.91077220460E+02  0.17241908980E+02  0.16823540509E+03  0.12509000000E+03 0.  0.
         25    1    4    4    0    0 -0.22822788379E+02  0.40233309014E+01 -0.27269676907E+02  0.13010845568E+03  0.12509000000E+03 0.  0.
<mgrwt>
<rscale>  2 0.46045735E+03</rscale>
<asrwt>0</asrwt>
<pdfrwt beam="1">  1       21 0.29557444E-01 0.46045735E+03</pdfrwt>
<pdfrwt beam="2">  1       21 0.38782351E-01 0.46045735E+03</pdfrwt>
<totfact> 0.64964897E+04</totfact>
</mgrwt>
</event>
<event>
 7    0  0.4725730E-002  0.4525865E+03  0.7546771E-02  0.1026954E+00
         21   -1    0    0  502  501  0.00000000000E+00  0.00000000000E+00  0.89876849570E+02  0.89876849570E+02  0.00000000000E+00 0. -1.
         21   -1    0    0  501  502 -0.00000000000E+00 -0.00000000000E+00 -0.56976457633E+03  0.56976457633E+03  0.00000000000E+00 0. -1.
      99926    2    1    2    0    0  0.00000000000E+00  0.00000000000E+00 -0.47988772676E+03  0.65964142590E+03  0.45258654473E+03 0.  0.
      99925    2    3    3    0    0  0.15216745345E+02 -0.56851639524E+02 -0.16559064988E+03  0.31628473251E+03  0.26296788861E+03 0.  0.
         25    1    4    4    0    0 -0.21760728092E+00 -0.14167769552E+01 -0.11398804699E+03  0.16924194978E+03  0.12509000000E+03 0.  0.
         25    1    4    4    0    0  0.15434352626E+02 -0.55434862568E+02 -0.51602602891E+02  0.14704278273E+03  0.12509000000E+03 0.  0.
         25    1    3    3    0    0 -0.15216745345E+02  0.56851639524E+02 -0.31429707688E+03  0.34335669338E+03  0.12509000000E+03 0.  0.
<mgrwt>
<rscale>  2 0.45258654E+03</rscale>
<asrwt>0</asrwt>
<pdfrwt beam="1">  1       21 0.13217184E-01 0.45258654E+03</pdfrwt>
<pdfrwt beam="2">  1       21 0.83788910E-01 0.45258654E+03</pdfrwt>
<totfact> 0.56211209E+04</totfact>
</mgrwt>
</event>
<event>
 7    0  0.4725730E-002  0.4276979E+03  0.7546771E-02  0.1034590E+00
         21   -1    0    0  502  501  0.00000000000E+00  0.00000000000E+00  0.22327260023E+03  0.22327260023E+03  0.00000000000E+00 0. -1.
         21   -1    0    0  501  502 -0.00000000000E+00 -0.00000000000E+00 -0.20482302902E+03  0.20482302902E+03  0.00000000000E+00 0. -1.
      99926    2    1    2    0    0  0.00000000000E+00  0.17763568394E-14  0.18449571204E+02  0.42809562925E+03  0.42769788532E+03 0.  0.
      99925    2    3    3    0    0  0.19899579383E+02 -0.86103362159E+01  0.94146016962E+02  0.28028632254E+03  0.26310989899E+03 0.  0.
         25    1    3    3    0    0 -0.19899579383E+02  0.86103362159E+01 -0.75696445758E+02  0.14780930671E+03  0.12509000000E+03 0.  0.
         25    1    4    4    0    0  0.12955052759E+01  0.20972434729E+02  0.13865780994E+02  0.12759815569E+03  0.12509000000E+03 0.  0.
         25    1    4    4    0    0  0.18604074107E+02 -0.29582770944E+02  0.80280235968E+02  0.15268816685E+03  0.12509000000E+03 0.  0.
<mgrwt>
<rscale>  2 0.42769789E+03</rscale>
<asrwt>0</asrwt>
<pdfrwt beam="1">  1       21 0.32834206E-01 0.42769789E+03</pdfrwt>
<pdfrwt beam="2">  1       21 0.30121034E-01 0.42769789E+03</pdfrwt>
<totfact> 0.88284136E+04</totfact>
</mgrwt>
</event>
<event>
 7    0  0.4725730E-002  0.4582757E+03  0.7546771E-02  0.1025282E+00
         21   -1    0    0  502  501  0.00000000000E+00  0.00000000000E+00  0.57642042269E+02  0.57642042269E+02  0.00000000000E+00 0.  1.
         21   -1    0    0  501  502 -0.00000000000E+00 -0.00000000000E+00 -0.91086579931E+03  0.91086579931E+03  0.00000000000E+00 0.  1.
      99926    2    1    2    0    0 -0.35527136788E-14  0.00000000000E+00 -0.85322375704E+03  0.96850784158E+03  0.45827574627E+03 0.  0.
      99925    2    3    3    0    0 -0.30661133058E+02  0.10299755842E+03 -0.44355257812E+03  0.52688969763E+03  0.26329690807E+03 0.  0.
         25    1    4    4    0    0 -0.40196518419E+02  0.87352191124E+02 -0.23686292293E+03  0.28460097988E+03  0.12509000000E+03 0.  0.
         25    1    3    3    0    0  0.30661133058E+02 -0.10299755842E+03 -0.40967117892E+03  0.44161814394E+03  0.12509000000E+03 0.  0.
         25    1    4    4    0    0  0.95353853604E+01  0.15645367294E+02 -0.20668965518E+03  0.24228871775E+03  0.12509000000E+03 0.  0.
<mgrwt>
<rscale>  2 0.45827575E+03</rscale>
<asrwt>0</asrwt>
<pdfrwt beam="1">  1       21 0.84767712E-02 0.45827575E+03</pdfrwt>
<pdfrwt beam="2">  1       21 0.13395085E+00 0.45827575E+03</pdfrwt>
<totfact> 0.39382040E+04</totfact>
</mgrwt>
</event>
<event>
 7    0  0.4725730E-002  0.4493072E+03  0.7546771E-02  0.1027929E+00
         21   -1    0    0  502  501  0.00000000000E+00  0.00000000000E+00  0.84450844519E+02  0.84450844519E+02  0.00000000000E+00 0.  1.
         21   -1    0    0  501  502 -0.00000000000E+00 -0.00000000000E+00 -0.59761685178E+03  0.59761685178E+03  0.00000000000E+00 0.  1.
      99926    2    1    2    0    0  0.00000000000E+00  0.35527136788E-14 -0.51316600726E+03  0.68206769630E+03  0.44930723489E+03 0.  0.
      99925    2    3    3    0    0  0.10435499229E+03  0.25541387199E+02 -0.31475210791E+03  0.42407949805E+03  0.26312013295E+03 0.  0.
         25    1    4    4    0    0  0.16975016383E+02  0.32431991220E+01 -0.10807098758E+03  0.16620925359E+03  0.12509000000E+03 0.  0.
         25    1    3    3    0    0 -0.10435499229E+03 -0.25541387199E+02 -0.19841389936E+03  0.25798819825E+03  0.12509000000E+03 0.  0.
         25    1    4    4    0    0  0.87379975911E+02  0.22298188077E+02 -0.20668112033E+03  0.25787024447E+03  0.12509000000E+03 0.  0.
<mgrwt>
<rscale>  2 0.44930723E+03</rscale>
<asrwt>0</asrwt>
<pdfrwt beam="1">  1       21 0.12419242E-01 0.44930723E+03</pdfrwt>
<pdfrwt beam="2">  1       21 0.87884830E-01 0.44930723E+03</pdfrwt>
<totfact> 0.56372324E+04</totfact>
</mgrwt>
</event>
<event>
 7    0  0.4725730E-002  0.4563072E+03  0.7546771E-02  0.1025858E+00
         21   -1    0    0  502  501  0.00000000000E+00  0.00000000000E+00  0.51371723277E+03  0.51371723277E+03  0.00000000000E+00 0.  1.
         21   -1    0    0  501  502 -0.00000000000E+00 -0.00000000000E+00 -0.10132822763E+03  0.10132822763E+03  0.00000000000E+00 0.  1.
      99926    2    1    2    0    0  0.00000000000E+00 -0.14210854715E-13  0.41238900513E+03  0.61504546040E+03  0.45630716278E+03 0.  0.
      99925    2    3    3    0    0  0.43047714735E+02  0.71197064690E+02  0.15350245734E+03  0.31572643245E+03  0.26305521849E+03 0.  0.
         25    1    4    4    0    0  0.23812987162E+02 -0.59618160216E+01  0.76928098760E+02  0.14888936190E+03  0.12509000000E+03 0.  0.
         25    1    4    4    0    0  0.19234727573E+02  0.77158880711E+02  0.76574358582E+02  0.16683707055E+03  0.12509000000E+03 0.  0.
         25    1    3    3    0    0 -0.43047714735E+02 -0.71197064690E+02  0.25888654779E+03  0.29931902795E+03  0.12509000000E+03 0.  0.
<mgrwt>
<rscale>  2 0.45630716E+03</rscale>
<asrwt>0</asrwt>
<pdfrwt beam="1">  1       21 0.75546651E-01 0.45630716E+03</pdfrwt>
<pdfrwt beam="2">  1       21 0.14901210E-01 0.45630716E+03</pdfrwt>
<totfact> 0.57169124E+04</totfact>
</mgrwt>
</event>
<event>
 7    0  0.4725730E-002  0.4566283E+03  0.7546771E-02  0.1025764E+00
         21   -1    0    0  502  501  0.00000000000E+00  0.00000000000E+00  0.95118162390E+03  0.95118162390E+03  0.00000000000E+00 0.  1.
         21   -1    0    0  501  502 -0.00000000000E+00 -0.00000000000E+00 -0.54802730469E+02  0.54802730469E+02  0.00000000000E+00 0.  1.
      99926    2    1    2    0    0  0.00000000000E+00  0.00000000000E+00  0.89637889343E+03  0.10059843544E+04  0.45662829593E+03 0.  0.
      99925    2    3    3    0    0  0.74735002411E+02 -0.85858704809E+02  0.59066547119E+03  0.65660598868E+03  0.26322744487E+03 0.  0.
         25    1    4    4    0    0  0.60052720879E+02 -0.81154660973E+02  0.33176762284E+03  0.36865928978E+03  0.12509000000E+03 0.  0.
         25    1    4    4    0    0  0.14682281533E+02 -0.47040438359E+01  0.25889784835E+03  0.28794669889E+03  0.12509000000E+03 0.  0.
         25    1    3    3    0    0 -0.74735002411E+02  0.85858704809E+02  0.30571342224E+03  0.34937836569E+03  0.12509000000E+03 0.  0.
<mgrwt>
<rscale>  2 0.45662830E+03</rscale>
<asrwt>0</asrwt>
<pdfrwt beam="1">  1       21 0.13987964E+00 0.45662830E+03</pdfrwt>
<pdfrwt beam="2">  1       21 0.80592257E-02 0.45662830E+03</pdfrwt>
<totfact> 0.38443665E+04</totfact>
</mgrwt>
</event>
<event>
 7    0  0.4725730E-002  0.4524604E+03  0.7546771E-02  0.1026991E+00
         21   -1    0    0  502  501  0.00000000000E+00  0.00000000000E+00  0.14418172832E+03  0.14418172832E+03  0.00000000000E+00 0. -1.
         21   -1    0    0  501  502 -0.00000000000E+00 -0.00000000000E+00 -0.35496934734E+03  0.35496934734E+03  0.00000000000E+00 0. -1.
      99926    2    1    2    0    0  0.00000000000E+00  0.71054273576E-14 -0.21078761902E+03  0.49915107566E+03  0.45246035849E+03 0.  0.
      99925    2    3    3    0    0 -0.64263241570E+02  0.37236677588E+02 -0.44646008077E+02  0.27831883761E+03  0.26448397864E+03 0.  0.
         25    1    4    4    0    0 -0.77311811816E+01 -0.64684957030E+01  0.59363737845E+01  0.12563582782E+03  0.12509000000E+03 0.  0.
         25    1    3    3    0    0  0.64263241570E+02 -0.37236677588E+02 -0.16614161094E+03  0.22083223805E+03  0.12509000000E+03 0.  0.
         25    1    4    4    0    0 -0.56532060388E+02  0.43705173290E+02 -0.50582381861E+02  0.15268300979E+03  0.12509000000E+03 0.  0.
<mgrwt>
<rscale>  2 0.45246036E+03</rscale>
<asrwt>0</asrwt>
<pdfrwt beam="1">  1       21 0.21203196E-01 0.45246036E+03</pdfrwt>
<pdfrwt beam="2">  1       21 0.52201374E-01 0.45246036E+03</pdfrwt>
<totfact> 0.66664162E+04</totfact>
</mgrwt>
</event>
<event>
 7    0  0.4725730E-002  0.4537088E+03  0.7546771E-02  0.1026622E+00
         21   -1    0    0  502  501  0.00000000000E+00  0.00000000000E+00  0.12286810636E+04  0.12286810636E+04  0.00000000000E+00 0. -1.
         21   -1    0    0  501  502 -0.00000000000E+00 -0.00000000000E+00 -0.41884690228E+02  0.41884690228E+02  0.00000000000E+00 0. -1.
      99926    2    1    2    0    0 -0.35527136788E-14  0.71054273576E-14  0.11867963734E+04  0.12705657538E+04  0.45370883058E+03 0.  0.
      99925    2    3    3    0    0 -0.16203766272E+02 -0.59525623688E+02  0.10092682490E+04  0.10448012638E+04  0.26302361201E+03 0.  0.
         25    1    4    4    0    0 -0.26064018564E+02 -0.66479756111E+02  0.56911427518E+03  0.58705830830E+03  0.12509000000E+03 0.  0.
         25    1    3    3    0    0  0.16203766272E+02  0.59525623688E+02  0.17752812439E+03  0.22576449005E+03  0.12509000000E+03 0.  0.
         25    1    4    4    0    0  0.98602522923E+01  0.69541324225E+01  0.44015397381E+03  0.45774295548E+03  0.12509000000E+03 0.  0.
<mgrwt>
<rscale>  2 0.45370883E+03</rscale>
<asrwt>0</asrwt>
<pdfrwt beam="1">  1       21 0.18068837E+00 0.45370883E+03</pdfrwt>
<pdfrwt beam="2">  1       21 0.61595141E-02 0.45370883E+03</pdfrwt>
<totfact> 0.30284870E+04</totfact>
</mgrwt>
</event>
<event>
 7    0  0.4725730E-002  0.4481779E+03  0.7546771E-02  0.1028267E+00
         21   -1    0    0  502  501  0.00000000000E+00  0.00000000000E+00  0.73893945669E+03  0.73893945669E+03  0.00000000000E+00 0. -1.
         21   -1    0    0  501  502 -0.00000000000E+00 -0.00000000000E+00 -0.67956672242E+02  0.67956672242E+02  0.00000000000E+00 0. -1.
      99926    2    1    2    0    0  0.00000000000E+00  0.00000000000E+00  0.67098278445E+03  0.80689612893E+03  0.44817793995E+03 0.  0.
      99925    2    3    3    0    0 -0.47326613369E+02  0.78600242176E+02  0.32699346085E+03  0.42954487446E+03  0.26299480856E+03 0.  0.
         25    1    3    3    0    0  0.47326613369E+02 -0.78600242176E+02  0.34398932360E+03  0.37735125448E+03  0.12509000000E+03 0.  0.
         25    1    4    4    0    0 -0.51200499116E+02  0.11435641439E+02  0.14290263693E+03  0.19703029398E+03  0.12509000000E+03 0.  0.
         25    1    4    4    0    0  0.38738857467E+01  0.67164600737E+02  0.18409082392E+03  0.23251458048E+03  0.12509000000E+03 0.  0.
<mgrwt>
<rscale>  2 0.44817794E+03</rscale>
<asrwt>0</asrwt>
<pdfrwt beam="1">  1       21 0.10866756E+00 0.44817794E+03</pdfrwt>
<pdfrwt beam="2">  1       21 0.99936287E-02 0.44817794E+03</pdfrwt>
<totfact> 0.50059716E+04</totfact>
</mgrwt>
</event>
<event>
 7    0  0.4725730E-002  0.4552127E+03  0.7546771E-02  0.1026179E+00
         21   -1    0    0  502  501  0.00000000000E+00  0.00000000000E+00  0.97776228680E+03  0.97776228680E+03  0.00000000000E+00 0. -1.
         21   -1    0    0  501  502 -0.00000000000E+00 -0.00000000000E+00 -0.52982865078E+02  0.52982865078E+02  0.00000000000E+00 0. -1.
      99926    2    1    2    0    0  0.00000000000E+00  0.00000000000E+00  0.92477942172E+03  0.10307451519E+04  0.45521268576E+03 0.  0.
      99925    2    3    3    0    0  0.98893770795E+02 -0.42939898540E+02  0.66164931436E+03  0.72008653814E+03  0.26290871882E+03 0.  0.
         25    1    4    4    0    0  0.90321240069E+01 -0.23265263105E+02  0.26410375632E+03  0.29329363091E+03  0.12509000000E+03 0.  0.
         25    1    3    3    0    0 -0.98893770795E+02  0.42939898540E+02  0.26313010736E+03  0.31065861374E+03  0.12509000000E+03 0.  0.
         25    1    4    4    0    0  0.89861646788E+02 -0.19674635436E+02  0.39754555804E+03  0.42679290723E+03  0.12509000000E+03 0.  0.
<mgrwt>
<rscale>  2 0.45521269E+03</rscale>
<asrwt>0</asrwt>
<pdfrwt beam="1">  1       21 0.14378856E+00 0.45521269E+03</pdfrwt>
<pdfrwt beam="2">  1       21 0.77915984E-02 0.45521269E+03</pdfrwt>
<totfact> 0.37928930E+04</totfact>
</mgrwt>
</event>
<event>
 7    0  0.4725730E-002  0.4497565E+03  0.7546771E-02  0.1027795E+00
         21   -1    0    0  502  501  0.00000000000E+00  0.00000000000E+00  0.26607255066E+03  0.26607255066E+03  0.00000000000E+00 0.  1.
         21   -1    0    0  501  502 -0.00000000000E+00 -0.00000000000E+00 -0.19006178240E+03  0.19006178240E+03  0.00000000000E+00 0.  1.
      99926    2    1    2    0    0  0.00000000000E+00  0.00000000000E+00  0.76010768262E+02  0.45613433305E+03  0.44975648177E+03 0.  0.
      99925    2    3    3    0    0 -0.63519549809E+02 -0.52496998127E+02  0.11924636465E+03  0.30022572869E+03  0.26291657358E+03 0.  0.
         25    1    4    4    0    0 -0.33375536515E+02 -0.67463269260E+02  0.62747709048E+02  0.15890249283E+03  0.12509000000E+03 0.  0.
         25    1    3    3    0    0  0.63519549809E+02  0.52496998127E+02 -0.43235596383E+02  0.15590860436E+03  0.12509000000E+03 0.  0.
         25    1    4    4    0    0 -0.30144013294E+02  0.14966271133E+02  0.56498655598E+02  0.14132323586E+03  0.12509000000E+03 0.  0.
<mgrwt>
<rscale>  2 0.44975648E+03</rscale>
<asrwt>0</asrwt>
<pdfrwt beam="1">  1       21 0.39128316E-01 0.44975648E+03</pdfrwt>
<pdfrwt beam="2">  1       21 0.27950262E-01 0.44975648E+03</pdfrwt>
<totfact> 0.71402345E+04</totfact>
</mgrwt>
</event>
<event>
 7    0  0.4725730E-002  0.4581962E+03  0.7546771E-02  0.1025306E+00
         21   -1    0    0  502  501  0.00000000000E+00  0.00000000000E+00  0.88490073745E+03  0.88490073745E+03  0.00000000000E+00 0.  1.
         21   -1    0    0  501  502 -0.00000000000E+00 -0.00000000000E+00 -0.59312790716E+02  0.59312790716E+02  0.00000000000E+00 0.  1.
      99926    2    1    2    0    0  0.00000000000E+00  0.00000000000E+00  0.82558794673E+03  0.94421352816E+03  0.45819616866E+03 0.  0.
      99925    2    3    3    0    0  0.37212282974E+02  0.72375839202E+02  0.34732042599E+03  0.44320420130E+03  0.26301229941E+03 0.  0.
         25    1    4    4    0    0  0.20941885731E+02  0.11953487790E+02  0.11286710285E+03  0.17019970463E+03  0.12509000000E+03 0.  0.
         25    1    4    4    0    0  0.16270397242E+02  0.60422351412E+02  0.23445332314E+03  0.27300449668E+03  0.12509000000E+03 0.  0.
         25    1    3    3    0    0 -0.37212282974E+02 -0.72375839202E+02  0.47826752074E+03  0.50100932686E+03  0.12509000000E+03 0.  0.
<mgrwt>
<rscale>  2 0.45819617E+03</rscale>
<asrwt>0</asrwt>
<pdfrwt beam="1">  1       21 0.13013245E+00 0.45819617E+03</pdfrwt>
<pdfrwt beam="2">  1       21 0.87224697E-02 0.45819617E+03</pdfrwt>
<totfact> 0.40357773E+04</totfact>
</mgrwt>
</event>
<event>
 7    0  0.4725730E-002  0.4563110E+03  0.7546771E-02  0.1025857E+00
         21   -1    0    0  502  501  0.00000000000E+00  0.00000000000E+00  0.55923877641E+02  0.55923877641E+02  0.00000000000E+00 0. -1.
         21   -1    0    0  501  502 -0.00000000000E+00 -0.00000000000E+00 -0.93081768826E+03  0.93081768826E+03  0.00000000000E+00 0. -1.
      99926    2    1    2    0    0  0.35527136788E-14  0.35527136788E-14 -0.87489381062E+03  0.98674156590E+03  0.45631101019E+03 0.  0.
      99925    2    3    3    0    0 -0.29542394268E+02  0.25975578020E+02 -0.31786672695E+03  0.41448798247E+03  0.26308467799E+03 0.  0.
         25    1    3    3    0    0  0.29542394268E+02 -0.25975578020E+02 -0.55702708367E+03  0.57225358344E+03  0.12509000000E+03 0.  0.
         25    1    4    4    0    0 -0.51544141421E+02  0.40365103144E+00 -0.14304507612E+03  0.19689175542E+03  0.12509000000E+03 0.  0.
         25    1    4    4    0    0  0.22001747153E+02  0.25571926988E+02 -0.17482165083E+03  0.21759622705E+03  0.12509000000E+03 0.  0.
<mgrwt>
<rscale>  2 0.45631101E+03</rscale>
<asrwt>0</asrwt>
<pdfrwt beam="1">  1       21 0.82240995E-02 0.45631101E+03</pdfrwt>
<pdfrwt beam="2">  1       21 0.13688496E+00 0.45631101E+03</pdfrwt>
<totfact> 0.39282540E+04</totfact>
</mgrwt>
</event>
<event>
 7    0  0.4725730E-002  0.4440097E+03  0.7546771E-02  0.1029524E+00
         21   -1    0    0  502  501  0.00000000000E+00  0.00000000000E+00  0.10510524431E+04  0.10510524431E+04  0.00000000000E+00 0.  1.
         21   -1    0    0  501  502 -0.00000000000E+00 -0.00000000000E+00 -0.46892186558E+02  0.46892186558E+02  0.00000000000E+00 0.  1.
      99926    2    1    2    0    0  0.00000000000E+00  0.00000000000E+00  0.10041602566E+04  0.10979446297E+04  0.44400967217E+03 0.  0.
      99925    2    3    3    0    0  0.15886334431E+01 -0.99459357461E+02  0.57624856726E+03  0.64116173871E+03  0.26292827229E+03 0.  0.
         25    1    4    4    0    0 -0.66409703145E+01 -0.43718199640E+02  0.37343185786E+03  0.39630069900E+03  0.12509000000E+03 0.  0.
         25    1    4    4    0    0  0.82296037577E+01 -0.55741157821E+02  0.20281670940E+03  0.24486103971E+03  0.12509000000E+03 0.  0.
         25    1    3    3    0    0 -0.15886334431E+01  0.99459357461E+02  0.42791168933E+03  0.45678289100E+03  0.12509000000E+03 0.  0.
<mgrwt>
<rscale>  2 0.44400967E+03</rscale>
<asrwt>0</asrwt>
<pdfrwt beam="1">  1       21 0.15456652E+00 0.44400967E+03</pdfrwt>
<pdfrwt beam="2">  1       21 0.68959105E-02 0.44400967E+03</pdfrwt>
<totfact> 0.38785771E+04</totfact>
</mgrwt>
</event>
<event>
 7    0  0.4725730E-002  0.4594416E+03  0.7546771E-02  0.1024943E+00
         21   -1    0    0  502  501  0.00000000000E+00  0.00000000000E+00  0.79226156620E+02  0.79226156620E+02  0.00000000000E+00 0.  1.
         21   -1    0    0  501  502 -0.00000000000E+00 -0.00000000000E+00 -0.66608872507E+03  0.66608872507E+03  0.00000000000E+00 0.  1.
      99926    2    1    2    0    0  0.00000000000E+00  0.00000000000E+00 -0.58686256845E+03  0.74531488169E+03  0.45944161612E+03 0.  0.
      99925    2    3    3    0    0 -0.58910685924E+02 -0.64767278506E+02 -0.24141396950E+03  0.36762782619E+03  0.26306699647E+03 0.  0.
         25    1    3    3    0    0  0.58910685924E+02  0.64767278506E+02 -0.34544859894E+03  0.37768705550E+03  0.12509000000E+03 0.  0.
         25    1    4    4    0    0 -0.52375836575E+02 -0.36038013207E+02 -0.17060976094E+03  0.22090080417E+03  0.12509000000E+03 0.  0.
         25    1    4    4    0    0 -0.65348493492E+01 -0.28729265298E+02 -0.70804208564E+02  0.14672702202E+03  0.12509000000E+03 0.  0.
<mgrwt>
<rscale>  2 0.45944162E+03</rscale>
<asrwt>0</asrwt>
<pdfrwt beam="1">  1       21 0.11650905E-01 0.45944162E+03</pdfrwt>
<pdfrwt beam="2">  1       21 0.97954226E-01 0.45944162E+03</pdfrwt>
<totfact> 0.48785053E+04</totfact>
</mgrwt>
</event>
<event>
 7    0  0.4725730E-002  0.4222381E+03  0.7546771E-02  0.1036340E+00
         21   -1    0    0  502  501  0.00000000000E+00  0.00000000000E+00  0.13077854177E+04  0.13077854177E+04  0.00000000000E+00 0.  1.
         21   -1    0    0  501  502 -0.00000000000E+00 -0.00000000000E+00 -0.34081475981E+02  0.34081475981E+02  0.00000000000E+00 0.  1.
      99926    2    1    2    0    0  0.14210854715E-13  0.00000000000E+00  0.12737039417E+04  0.13418668936E+04  0.42223811907E+03 0.  0.
      99925    2    3    3    0    0  0.72171700526E+02  0.19543147246E+02  0.74977963993E+03  0.79805178625E+03  0.26291910567E+03 0.  0.
         25    1    3    3    0    0 -0.72171700526E+02 -0.19543147246E+02  0.52392430174E+03  0.54381510738E+03  0.12509000000E+03 0.  0.
         25    1    4    4    0    0  0.31854944298E+02 -0.30604533041E+02  0.36804257849E+03  0.39122144957E+03  0.12509000000E+03 0.  0.
         25    1    4    4    0    0  0.40316756228E+02  0.50147680287E+02  0.38173706144E+03  0.40683033669E+03  0.12509000000E+03 0.  0.
<mgrwt>
<rscale>  2 0.42223812E+03</rscale>
<asrwt>0</asrwt>
<pdfrwt beam="1">  1       21 0.19232135E+00 0.42223812E+03</pdfrwt>
<pdfrwt beam="2">  1       21 0.50119826E-02 0.42223812E+03</pdfrwt>
<totfact> 0.36332734E+04</totfact>
</mgrwt>
</event>
<event>
 7    0  0.4725730E-002  0.4543565E+03  0.7546771E-02  0.1026431E+00
         21   -1    0    0  502  501  0.00000000000E+00  0.00000000000E+00  0.95741782788E+02  0.95741782788E+02  0.00000000000E+00 0.  1.
         21   -1    0    0  501  502 -0.00000000000E+00 -0.00000000000E+00 -0.53905366836E+03  0.53905366836E+03  0.00000000000E+00 0.  1.
      99926    2    1    2    0    0  0.00000000000E+00  0.00000000000E+00 -0.44331188557E+03  0.63479545115E+03  0.45435650860E+03 0.  0.
      99925    2    3    3    0    0 -0.37862725042E+02  0.42535347631E+01 -0.42708253524E+03  0.50302831405E+03  0.26303291490E+03 0.  0.
         25    1    4    4    0    0 -0.79322666230E+01 -0.99773827987E+00 -0.28475544293E+03  0.31112230186E+03  0.12509000000E+03 0.  0.
         25    1    3    3    0    0  0.37862725042E+02 -0.42535347631E+01 -0.16229350326E+02  0.13176713709E+03  0.12509000000E+03 0.  0.
         25    1    4    4    0    0 -0.29930458419E+02  0.52512730430E+01 -0.14232709231E+03  0.19190601219E+03  0.12509000000E+03 0.  0.
<mgrwt>
<rscale>  2 0.45435651E+03</rscale>
<asrwt>0</asrwt>
<pdfrwt beam="1">  1       21 0.14079674E-01 0.45435651E+03</pdfrwt>
<pdfrwt beam="2">  1       21 0.79272597E-01 0.45435651E+03</pdfrwt>
<totfact> 0.56874349E+04</totfact>
</mgrwt>
</event>
<event>
 6    0  0.4725730E-002  0.4561931E+03  0.7546771E-02  0.1025891E+00
         21   -1    0    0  502  501  0.00000000000E+00  0.00000000000E+00  0.43121668550E+03  0.43121668550E+03  0.00000000000E+00 0.  1.
         21   -1    0    0  501  502 -0.00000000000E+00 -0.00000000000E+00 -0.12065403460E+03  0.12065403460E+03  0.00000000000E+00 0.  1.
      99926    2    1    2    0    0  0.00000000000E+00  0.35527136788E-14  0.31056265090E+03  0.55187072011E+03  0.45619308585E+03 0.  0.
         25    1    3    3    0    0  0.27958440988E+02  0.35842013111E+02  0.82821383838E+01  0.13335076394E+03  0.12509000000E+03 0.  0.
         25    1    3    3    0    0 -0.62481972652E+02 -0.10549079990E+02  0.84399148978E+02  0.16366430412E+03  0.12509000000E+03 0.  0.
         25    1    3    3    0    0  0.34523531665E+02 -0.25292933121E+02  0.21788136354E+03  0.25485565205E+03  0.12509000000E+03 0.  0.
<mgrwt>
<rscale>  2 0.45619309E+03</rscale>
<asrwt>0</asrwt>
<pdfrwt beam="1">  1       21 0.63414218E-01 0.45619309E+03</pdfrwt>
<pdfrwt beam="2">  1       21 0.17743241E-01 0.45619309E+03</pdfrwt>
<totfact> 0.61163681E+04</totfact>
</mgrwt>
</event>
<event>
 7    0  0.4725730E-002  0.4504003E+03  0.7546771E-02  0.1027603E+00
         21   -1    0    0  502  501  0.00000000000E+00  0.00000000000E+00  0.11298065077E+03  0.11298065077E+03  0.00000000000E+00 0. -1.
         21   -1    0    0  501  502 -0.00000000000E+00 -0.00000000000E+00 -0.44888311048E+03  0.44888311048E+03  0.00000000000E+00 0. -1.
      99926    2    1    2    0    0  0.00000000000E+00  0.00000000000E+00 -0.33590245971E+03  0.56186376126E+03  0.45040029282E+03 0.  0.
      99925    2    3    3    0    0 -0.20579595557E+02 -0.66342043901E+02 -0.10790599747E+03  0.29268968852E+03  0.26305657744E+03 0.  0.
         25    1    3    3    0    0  0.20579595557E+02  0.66342043901E+02 -0.22799646223E+03  0.26917407274E+03  0.12509000000E+03 0.  0.
         25    1    4    4    0    0 -0.49462288284E+02 -0.22980617107E+02 -0.58179746860E+02  0.14834762475E+03  0.12509000000E+03 0.  0.
         25    1    4    4    0    0  0.28882692727E+02 -0.43361426794E+02 -0.49726250612E+02  0.14434206377E+03  0.12509000000E+03 0.  0.
<mgrwt>
<rscale>  2 0.45040029E+03</rscale>
<asrwt>0</asrwt>
<pdfrwt beam="1">  1       21 0.16614801E-01 0.45040029E+03</pdfrwt>
<pdfrwt beam="2">  1       21 0.66012222E-01 0.45040029E+03</pdfrwt>
<totfact> 0.63363234E+04</totfact>
</mgrwt>
</event>
<event>
 7    0  0.4725730E-002  0.4534797E+03  0.7546771E-02  0.1026689E+00
         21   -1    0    0  502  501  0.00000000000E+00  0.00000000000E+00  0.12839123096E+04  0.12839123096E+04  0.00000000000E+00 0. -1.
         21   -1    0    0  501  502 -0.00000000000E+00 -0.00000000000E+00 -0.40042415762E+02  0.40042415762E+02  0.00000000000E+00 0. -1.
      99926    2    1    2    0    0  0.00000000000E+00  0.00000000000E+00  0.12438698939E+04  0.13239547254E+04  0.45347965998E+03 0.  0.
      99925    2    3    3    0    0 -0.83815544554E+02  0.62371617726E+02  0.66774531109E+03  0.72522080520E+03  0.26295655840E+03 0.  0.
         25    1    4    4    0    0 -0.13322074721E+02  0.56259530117E+02  0.29051935342E+03  0.32154566583E+03  0.12509000000E+03 0.  0.
         25    1    3    3    0    0  0.83815544554E+02 -0.62371617726E+02  0.57612458279E+03  0.59873392020E+03  0.12509000000E+03 0.  0.
         25    1    4    4    0    0 -0.70493469833E+02  0.61120876087E+01  0.37722595767E+03  0.40367513937E+03  0.12509000000E+03 0.  0.
<mgrwt>
<rscale>  2 0.45347966E+03</rscale>
<asrwt>0</asrwt>
<pdfrwt beam="1">  1       21 0.18881061E+00 0.45347966E+03</pdfrwt>
<pdfrwt beam="2">  1       21 0.58885914E-02 0.45347966E+03</pdfrwt>
<totfact> 0.28765451E+04</totfact>
</mgrwt>
</event>
<event>
 7    0  0.4725730E-002  0.5183388E+03  0.7546771E-02  0.1009100E+00
         21   -1    0    0  502  501  0.00000000000E+00  0.00000000000E+00  0.14471891801E+04  0.14471891801E+04  0.00000000000E+00 0.  1.
         21   -1    0    0  501  502 -0.00000000000E+00 -0.00000000000E+00 -0.46413260178E+02  0.46413260178E+02  0.00000000000E+00 0.  1.
      99926    2    1    2    0    0  0.00000000000E+00  0.14210854715E-13  0.14007759199E+04  0.14936024402E+04  0.51833876159E+03 0.  0.
      99925    2    3    3    0    0 -0.39368088853E+02 -0.10761259609E+03  0.11839594086E+04  0.12183076438E+04  0.26340713088E+03 0.  0.
         25    1    4    4    0    0 -0.53593781168E+01 -0.23469396141E+02  0.42085938616E+03  0.43971543810E+03  0.12509000000E+03 0.  0.
         25    1    3    3    0    0  0.39368088853E+02  0.10761259609E+03  0.21681651132E+03  0.27529479642E+03  0.12509000000E+03 0.  0.
         25    1    4    4    0    0 -0.34008710737E+02 -0.84143199945E+02  0.76310002241E+03  0.77859220571E+03  0.12509000000E+03 0.  0.
<mgrwt>
<rscale>  2 0.51833876E+03</rscale>
<asrwt>0</asrwt>
<pdfrwt beam="1">  1       21 0.21282191E+00 0.51833876E+03</pdfrwt>
<pdfrwt beam="2">  1       21 0.68254804E-02 0.51833876E+03</pdfrwt>
<totfact> 0.15056261E+04</totfact>
</mgrwt>
</event>
<event>
 7    0  0.4725730E-002  0.4558815E+03  0.7546771E-02  0.1025983E+00
         21   -1    0    0  502  501  0.00000000000E+00  0.00000000000E+00  0.71953563275E+02  0.71953563275E+02  0.00000000000E+00 0. -1.
         21   -1    0    0  501  502 -0.00000000000E+00 -0.00000000000E+00 -0.72209041527E+03  0.72209041527E+03  0.00000000000E+00 0. -1.
      99926    2    1    2    0    0  0.00000000000E+00  0.00000000000E+00 -0.65013685200E+03  0.79404397855E+03  0.45588146874E+03 0.  0.
      99925    2    3    3    0    0  0.34743149804E+02  0.57799899702E+02 -0.56881447885E+03  0.63031019664E+03  0.26304584729E+03 0.  0.
         25    1    3    3    0    0 -0.34743149804E+02 -0.57799899702E+02 -0.81322373151E+02  0.16373378191E+03  0.12509000000E+03 0.  0.
         25    1    4    4    0    0  0.20717609884E+02  0.27827480437E+02 -0.19087114753E+03  0.23083087117E+03  0.12509000000E+03 0.  0.
         25    1    4    4    0    0  0.14025539920E+02  0.29972419264E+02 -0.37794333132E+03  0.39947932547E+03  0.12509000000E+03 0.  0.
<mgrwt>
<rscale>  2 0.45588147E+03</rscale>
<asrwt>0</asrwt>
<pdfrwt beam="1">  1       21 0.10581406E-01 0.45588147E+03</pdfrwt>
<pdfrwt beam="2">  1       21 0.10618977E+00 0.45588147E+03</pdfrwt>
<totfact> 0.47723249E+04</totfact>
</mgrwt>
</event>
<event>
 7    0  0.4725730E-002  0.4794124E+03  0.7546771E-02  0.1019297E+00
         21   -1    0    0  502  501  0.00000000000E+00  0.00000000000E+00  0.47539496940E+03  0.47539496940E+03  0.00000000000E+00 0.  1.
         21   -1    0    0  501  502 -0.00000000000E+00 -0.00000000000E+00 -0.12086596369E+03  0.12086596369E+03  0.00000000000E+00 0.  1.
      99926    2    1    2    0    0  0.71054273576E-14  0.14210854715E-13  0.35452900572E+03  0.59626093309E+03  0.47941243667E+03 0.  0.
      99925    2    3    3    0    0 -0.41159738447E+02 -0.12766717727E+03  0.23392789702E+03  0.37674973123E+03  0.26310656920E+03 0.  0.
         25    1    4    4    0    0 -0.38438746318E+02 -0.10530487490E+03  0.12539808063E+03  0.20961593599E+03  0.12509000000E+03 0.  0.
         25    1    3    3    0    0  0.41159738447E+02  0.12766717727E+03  0.12060110870E+03  0.21951120186E+03  0.12509000000E+03 0.  0.
         25    1    4    4    0    0 -0.27209921292E+01 -0.22362302376E+02  0.10852981639E+03  0.16713379524E+03  0.12509000000E+03 0.  0.
<mgrwt>
<rscale>  2 0.47941244E+03</rscale>
<asrwt>0</asrwt>
<pdfrwt beam="1">  1       21 0.69911024E-01 0.47941244E+03</pdfrwt>
<pdfrwt beam="2">  1       21 0.17774407E-01 0.47941244E+03</pdfrwt>
<totfact> 0.48791741E+04</totfact>
</mgrwt>
</event>
<event>
 7    0  0.4725730E-002  0.4545406E+03  0.7546771E-02  0.1026377E+00
         21   -1    0    0  502  501  0.00000000000E+00  0.00000000000E+00  0.78985793052E+02  0.78985793052E+02  0.00000000000E+00 0.  1.
         21   -1    0    0  501  502 -0.00000000000E+00 -0.00000000000E+00 -0.65393784231E+03  0.65393784231E+03  0.00000000000E+00 0.  1.
      99926    2    1    2    0    0  0.00000000000E+00 -0.14210854715E-13 -0.57495204926E+03  0.73292363536E+03  0.45454064321E+03 0.  0.
      99925    2    3    3    0    0 -0.82239080093E+02 -0.63344400052E+02 -0.29138686066E+03  0.40607121669E+03  0.26308126338E+03 0.  0.
         25    1    3    3    0    0  0.82239080093E+02  0.63344400052E+02 -0.28356518859E+03  0.32685241868E+03  0.12509000000E+03 0.  0.
         25    1    4    4    0    0 -0.39201092428E+02 -0.72503031967E+02 -0.14357478825E+03  0.20749612819E+03  0.12509000000E+03 0.  0.
         25    1    4    4    0    0 -0.43037987665E+02  0.91586319148E+01 -0.14781207241E+03  0.19857508850E+03  0.12509000000E+03 0.  0.
<mgrwt>
<rscale>  2 0.45454064E+03</rscale>
<asrwt>0</asrwt>
<pdfrwt beam="1">  1       21 0.11615558E-01 0.45454064E+03</pdfrwt>
<pdfrwt beam="2">  1       21 0.96167332E-01 0.45454064E+03</pdfrwt>
<totfact> 0.51336801E+04</totfact>
</mgrwt>
</event>
<event>
 7    0  0.4725730E-002  0.4548075E+03  0.7546771E-02  0.1026298E+00
         21   -1    0    0  502  501  0.00000000000E+00  0.00000000000E+00  0.20504909483E+03  0.20504909483E+03  0.00000000000E+00 0.  1.
         21   -1    0    0  501  502 -0.00000000000E+00 -0.00000000000E+00 -0.25219555927E+03  0.25219555927E+03  0.00000000000E+00 0.  1.
      99926    2    1    2    0    0  0.00000000000E+00  0.00000000000E+00 -0.47146464434E+02  0.45724465410E+03  0.45480752477E+03 0.  0.
      99925    2    3    3    0    0 -0.85987095082E+02  0.60273424461E+02 -0.71715206743E+02  0.29208473942E+03  0.26295200685E+03 0.  0.
         25    1    4    4    0    0 -0.32108411891E+02 -0.56554403036E+01 -0.52614865551E+02  0.13956635087E+03  0.12509000000E+03 0.  0.
         25    1    4    4    0    0 -0.53878683191E+02  0.65928864765E+02 -0.19100341192E+02  0.15251838855E+03  0.12509000000E+03 0.  0.
         25    1    3    3    0    0  0.85987095082E+02 -0.60273424461E+02  0.24568742310E+02  0.16515991468E+03  0.12509000000E+03 0.  0.
<mgrwt>
<rscale>  2 0.45480752E+03</rscale>
<asrwt>0</asrwt>
<pdfrwt beam="1">  1       21 0.30154279E-01 0.45480752E+03</pdfrwt>
<pdfrwt beam="2">  1       21 0.37087582E-01 0.45480752E+03</pdfrwt>
<totfact> 0.68486752E+04</totfact>
</mgrwt>
</event>
<event>
 7    0  0.4725730E-002  0.4648316E+03  0.7546771E-02  0.1023389E+00
         21   -1    0    0  502  501  0.00000000000E+00  0.00000000000E+00  0.19983751944E+03  0.19983751944E+03  0.00000000000E+00 0. -1.
         21   -1    0    0  501  502 -0.00000000000E+00 -0.00000000000E+00 -0.27030508264E+03  0.27030508264E+03  0.00000000000E+00 0. -1.
      99926    2    1    2    0    0  0.00000000000E+00  0.00000000000E+00 -0.70467563205E+02  0.47014260208E+03  0.46483157039E+03 0.  0.
      99925    2    3    3    0    0 -0.56894348278E+01  0.11516697494E+03 -0.33846276743E+01  0.28726715232E+03  0.26308774071E+03 0.  0.
         25    1    4    4    0    0  0.21105931322E+02  0.65981707646E+02 -0.33673663122E+02  0.14690292635E+03  0.12509000000E+03 0.  0.
         25    1    3    3    0    0  0.56894348278E+01 -0.11516697494E+03 -0.67082935530E+02  0.18287544976E+03  0.12509000000E+03 0.  0.
         25    1    4    4    0    0 -0.26795366150E+02  0.49185267291E+02  0.30289035447E+02  0.14036422598E+03  0.12509000000E+03 0.  0.
<mgrwt>
<rscale>  2 0.46483157E+03</rscale>
<asrwt>0</asrwt>
<pdfrwt beam="1">  1       21 0.29387871E-01 0.46483157E+03</pdfrwt>
<pdfrwt beam="2">  1       21 0.39750747E-01 0.46483157E+03</pdfrwt>
<totfact> 0.62408097E+04</totfact>
</mgrwt>
</event>
<event>
 7    0  0.4725730E-002  0.4898735E+03  0.7546771E-02  0.1016456E+00
         21   -1    0    0  502  501  0.00000000000E+00  0.00000000000E+00  0.48966262963E+03  0.48966262963E+03  0.00000000000E+00 0.  1.
         21   -1    0    0  501  502 -0.00000000000E+00 -0.00000000000E+00 -0.12252110909E+03  0.12252110909E+03  0.00000000000E+00 0.  1.
      99926    2    1    2    0    0  0.00000000000E+00 -0.35527136788E-14  0.36714152053E+03  0.61218373872E+03  0.48987348760E+03 0.  0.
      99925    2    3    3    0    0  0.13148063261E+03 -0.30252187039E+02  0.28534687828E+03  0.41083771027E+03  0.26298751236E+03 0.  0.
         25    1    3    3    0    0 -0.13148063261E+03  0.30252187039E+02  0.81794642250E+02  0.20134602845E+03  0.12509000000E+03 0.  0.
         25    1    4    4    0    0  0.48832494342E+02  0.10556821351E+02  0.93545445052E+02  0.16399486995E+03  0.12509000000E+03 0.  0.
         25    1    4    4    0    0  0.82648138270E+02 -0.40809008390E+02  0.19180143323E+03  0.24684284031E+03  0.12509000000E+03 0.  0.
<mgrwt>
<rscale>  2 0.48987349E+03</rscale>
<asrwt>0</asrwt>
<pdfrwt beam="1">  1       21 0.72009209E-01 0.48987349E+03</pdfrwt>
<pdfrwt beam="2">  1       21 0.18017810E-01 0.48987349E+03</pdfrwt>
<totfact> 0.44383349E+04</totfact>
</mgrwt>
</event>
<event>
 7    0  0.4725730E-002  0.4308951E+03  0.7546771E-02  0.1033578E+00
         21   -1    0    0  502  501  0.00000000000E+00  0.00000000000E+00  0.72256917744E+02  0.72256917744E+02  0.00000000000E+00 0. -1.
         21   -1    0    0  501  502 -0.00000000000E+00 -0.00000000000E+00 -0.64239732062E+03  0.64239732062E+03  0.00000000000E+00 0. -1.
      99926    2    1    2    0    0  0.00000000000E+00 -0.71054273576E-14 -0.57014040288E+03  0.71465423836E+03  0.43089511649E+03 0.  0.
      99925    2    3    3    0    0  0.65447681509E+02  0.47519578269E+02 -0.30707732243E+03  0.41234446061E+03  0.26303985042E+03 0.  0.
         25    1    3    3    0    0 -0.65447681509E+02 -0.47519578269E+02 -0.26306308044E+03  0.30230977776E+03  0.12509000000E+03 0.  0.
         25    1    4    4    0    0  0.64055297802E+02  0.51958168298E+02 -0.15979919147E+03  0.21905712068E+03  0.12509000000E+03 0.  0.
         25    1    4    4    0    0  0.13923837072E+01 -0.44385900287E+01 -0.14727813097E+03  0.19328733992E+03  0.12509000000E+03 0.  0.
<mgrwt>
<rscale>  2 0.43089512E+03</rscale>
<asrwt>0</asrwt>
<pdfrwt beam="1">  1       21 0.10626017E-01 0.43089512E+03</pdfrwt>
<pdfrwt beam="2">  1       21 0.94470198E-01 0.43089512E+03</pdfrwt>
<totfact> 0.63288564E+04</totfact>
</mgrwt>
</event>
<event>
 7    0  0.4725730E-002  0.4564169E+03  0.7546771E-02  0.1025826E+00
         21   -1    0    0  502  501  0.00000000000E+00  0.00000000000E+00  0.17544047568E+04  0.17544047568E+04  0.00000000000E+00 0.  1.
         21   -1    0    0  501  502 -0.00000000000E+00 -0.00000000000E+00 -0.29684764573E+02  0.29684764573E+02  0.00000000000E+00 0.  1.
      99926    2    1    2    0    0  0.00000000000E+00  0.00000000000E+00  0.17247199923E+04  0.17840895214E+04  0.45641688038E+03 0.  0.
      99925    2    3    3    0    0  0.79987396569E+02  0.74583185943E+02  0.95145442035E+03  0.99317373067E+03  0.26299792785E+03 0.  0.
         25    1    4    4    0    0  0.33711518237E+02 -0.39705264173E+01  0.46084471370E+03  0.47872496257E+03  0.12509000000E+03 0.  0.
         25    1    4    4    0    0  0.46275878332E+02  0.78553712361E+02  0.49060970665E+03  0.51444876810E+03  0.12509000000E+03 0.  0.
         25    1    3    3    0    0 -0.79987396569E+02 -0.74583185943E+02  0.77326557192E+03  0.79091579074E+03  0.12509000000E+03 0.  0.
<mgrwt>
<rscale>  2 0.45641688E+03</rscale>
<asrwt>0</asrwt>
<pdfrwt beam="1">  1       21 0.25800063E+00 0.45641688E+03</pdfrwt>
<pdfrwt beam="2">  1       21 0.43654077E-02 0.45641688E+03</pdfrwt>
<totfact> 0.17375263E+04</totfact>
</mgrwt>
</event>
<event>
 7    0  0.4725730E-002  0.4566388E+03  0.7546771E-02  0.1025761E+00
         21   -1    0    0  502  501  0.00000000000E+00  0.00000000000E+00  0.15626743397E+03  0.15626743397E+03  0.00000000000E+00 0. -1.
         21   -1    0    0  501  502 -0.00000000000E+00 -0.00000000000E+00 -0.33359316069E+03  0.33359316069E+03  0.00000000000E+00 0. -1.
      99926    2    1    2    0    0  0.14210854715E-13 -0.71054273576E-14 -0.17732572671E+03  0.48986059466E+03  0.45663879472E+03 0.  0.
      99925    2    3    3    0    0  0.10384766874E+03  0.48302233752E+02 -0.10469397238E+03  0.30536039432E+03  0.26299562445E+03 0.  0.
         25    1    4    4    0    0  0.25484589574E+02  0.47916372308E+02 -0.28723215837E+02  0.13934839170E+03  0.12509000000E+03 0.  0.
         25    1    3    3    0    0 -0.10384766874E+03 -0.48302233752E+02 -0.72631754332E+02  0.18450020034E+03  0.12509000000E+03 0.  0.
         25    1    4    4    0    0  0.78363079164E+02  0.38586144466E+00 -0.75970756546E+02  0.16601200262E+03  0.12509000000E+03 0.  0.
<mgrwt>
<rscale>  2 0.45663879E+03</rscale>
<asrwt>0</asrwt>
<pdfrwt beam="1">  1       21 0.22980506E-01 0.45663879E+03</pdfrwt>
<pdfrwt beam="2">  1       21 0.49057817E-01 0.45663879E+03</pdfrwt>
<totfact> 0.65137463E+04</totfact>
</mgrwt>
</event>
<event>
 7    0  0.4725730E-002  0.4331320E+03  0.7546771E-02  0.1032875E+00
         21   -1    0    0  502  501  0.00000000000E+00  0.00000000000E+00  0.37482192202E+03  0.37482192202E+03  0.00000000000E+00 0.  1.
         21   -1    0    0  501  502 -0.00000000000E+00 -0.00000000000E+00 -0.12512831855E+03  0.12512831855E+03  0.00000000000E+00 0.  1.
      99926    2    1    2    0    0  0.00000000000E+00  0.00000000000E+00  0.24969360347E+03  0.49995024057E+03  0.43313202078E+03 0.  0.
      99925    2    3    3    0    0 -0.64359222360E+02  0.45719508959E+02  0.21294752600E+03  0.34753578813E+03  0.26306290541E+03 0.  0.
         25    1    4    4    0    0 -0.22764959392E+02  0.51131101970E+02  0.73268736358E+02  0.15539771167E+03  0.12509000000E+03 0.  0.
         25    1    3    3    0    0  0.64359222360E+02 -0.45719508959E+02  0.36746077478E+02  0.15241445244E+03  0.12509000000E+03 0.  0.
         25    1    4    4    0    0 -0.41594262968E+02 -0.54115930103E+01  0.13967878964E+03  0.19213807646E+03  0.12509000000E+03 0.  0.
<mgrwt>
<rscale>  2 0.43313202E+03</rscale>
<asrwt>0</asrwt>
<pdfrwt beam="1">  1       21 0.55120871E-01 0.43313202E+03</pdfrwt>
<pdfrwt beam="2">  1       21 0.18401223E-01 0.43313202E+03</pdfrwt>
<totfact> 0.77945492E+04</totfact>
</mgrwt>
</event>
<event>
 7    0  0.4725730E-002  0.4525554E+03  0.7546771E-02  0.1026963E+00
         21   -1    0    0  502  501  0.00000000000E+00  0.00000000000E+00  0.69708857110E+02  0.69708857110E+02  0.00000000000E+00 0. -1.
         21   -1    0    0  501  502 -0.00000000000E+00 -0.00000000000E+00 -0.73450621358E+03  0.73450621358E+03  0.00000000000E+00 0. -1.
      99926    2    1    2    0    0 -0.14210854715E-13  0.00000000000E+00 -0.66479735647E+03  0.80421507069E+03  0.45255536098E+03 0.  0.
      99925    2    3    3    0    0  0.10281600507E+03 -0.40940831369E+02 -0.41670893403E+03  0.50514541991E+03  0.26320766892E+03 0.  0.
         25    1    4    4    0    0  0.66669672442E+02 -0.49692480015E+02 -0.26859136238E+03  0.30773855111E+03  0.12509000000E+03 0.  0.
         25    1    4    4    0    0  0.36146332628E+02  0.87516486458E+01 -0.14811757166E+03  0.19740686880E+03  0.12509000000E+03 0.  0.
         25    1    3    3    0    0 -0.10281600507E+03  0.40940831369E+02 -0.24808842244E+03  0.29906965078E+03  0.12509000000E+03 0.  0.
<mgrwt>
<rscale>  2 0.45255536E+03</rscale>
<asrwt>0</asrwt>
<pdfrwt beam="1">  1       21 0.10251302E-01 0.45255536E+03</pdfrwt>
<pdfrwt beam="2">  1       21 0.10801563E+00 0.45255536E+03</pdfrwt>
<totfact> 0.48485092E+04</totfact>
</mgrwt>
</event>
<event>
 7    0  0.4725730E-002  0.4565958E+03  0.7546771E-02  0.1025773E+00
         21   -1    0    0  502  501  0.00000000000E+00  0.00000000000E+00  0.54781733492E+03  0.54781733492E+03  0.00000000000E+00 0.  1.
         21   -1    0    0  501  502 -0.00000000000E+00 -0.00000000000E+00 -0.95141087165E+02  0.95141087165E+02  0.00000000000E+00 0.  1.
      99926    2    1    2    0    0  0.00000000000E+00  0.71054273576E-14  0.45267624776E+03  0.64295842209E+03  0.45659582483E+03 0.  0.
      99925    2    3    3    0    0 -0.60676807439E+02  0.63591198373E+02  0.38814682924E+03  0.47701545169E+03  0.26298339231E+03 0.  0.
         25    1    3    3    0    0  0.60676807439E+02 -0.63591198373E+02  0.64529418520E+02  0.16594297040E+03  0.12509000000E+03 0.  0.
         25    1    4    4    0    0  0.67005322273E+01  0.11191321467E+02  0.18175582500E+03  0.22102676496E+03  0.12509000000E+03 0.  0.
         25    1    4    4    0    0 -0.67377339666E+02  0.52399876906E+02  0.20639100424E+03  0.25598868673E+03  0.12509000000E+03 0.  0.
<mgrwt>
<rscale>  2 0.45659582E+03</rscale>
<asrwt>0</asrwt>
<pdfrwt beam="1">  1       21 0.80561372E-01 0.45659582E+03</pdfrwt>
<pdfrwt beam="2">  1       21 0.13991337E-01 0.45659582E+03</pdfrwt>
<totfact> 0.55407960E+04</totfact>
</mgrwt>
</event>
<event>
 7    0  0.4725730E-002  0.4549152E+03  0.7546771E-02  0.1026266E+00
         21   -1    0    0  502  501  0.00000000000E+00  0.00000000000E+00  0.14410225863E+03  0.14410225863E+03  0.00000000000E+00 0.  1.
         21   -1    0    0  501  502 -0.00000000000E+00 -0.00000000000E+00 -0.35902943385E+03  0.35902943385E+03  0.00000000000E+00 0.  1.
      99926    2    1    2    0    0  0.00000000000E+00  0.14210854715E-13 -0.21492717522E+03  0.50313169249E+03  0.45491516718E+03 0.  0.
      99925    2    3    3    0    0 -0.12830621138E+02 -0.10937393531E+03 -0.16280739134E+03  0.32851421760E+03  0.26322625614E+03 0.  0.
         25    1    4    4    0    0  0.21406537283E+01 -0.11272489434E+02 -0.74597354353E+02  0.14609560155E+03  0.12509000000E+03 0.  0.
         25    1    4    4    0    0 -0.14971274866E+02 -0.98101445878E+02 -0.88210036991E+02  0.18241861605E+03  0.12509000000E+03 0.  0.
         25    1    3    3    0    0  0.12830621138E+02  0.10937393531E+03 -0.52119783877E+02  0.17461747489E+03  0.12509000000E+03 0.  0.
<mgrwt>
<rscale>  2 0.45491517E+03</rscale>
<asrwt>0</asrwt>
<pdfrwt beam="1">  1       21 0.21191509E-01 0.45491517E+03</pdfrwt>
<pdfrwt beam="2">  1       21 0.52798446E-01 0.45491517E+03</pdfrwt>
<totfact> 0.65095029E+04</totfact>
</mgrwt>
</event>
<event>
 7    0  0.4725730E-002  0.4567285E+03  0.7546771E-02  0.1025734E+00
         21   -1    0    0  502  501  0.00000000000E+00  0.00000000000E+00  0.14625043346E+03  0.14625043346E+03  0.00000000000E+00 0.  1.
         21   -1    0    0  501  502 -0.00000000000E+00 -0.00000000000E+00 -0.35658167096E+03  0.35658167096E+03  0.00000000000E+00 0.  1.
      99926    2    1    2    0    0 -0.14210854715E-13  0.26645352591E-14 -0.21033123750E+03  0.50283210442E+03  0.45672847050E+03 0.  0.
      99925    2    3    3    0    0  0.11184360417E+03 -0.58082049624E+01 -0.15990472554E+03  0.32752360991E+03  0.26298187534E+03 0.  0.
         25    1    4    4    0    0  0.88117689013E+02 -0.30284230947E+02 -0.81125302645E+02  0.17581434694E+03  0.12509000000E+03 0.  0.
         25    1    3    3    0    0 -0.11184360417E+03  0.58082049624E+01 -0.50426511954E+02  0.17530849451E+03  0.12509000000E+03 0.  0.
         25    1    4    4    0    0  0.23725915159E+02  0.24476025985E+02 -0.78779422900E+02  0.15170926297E+03  0.12509000000E+03 0.  0.
<mgrwt>
<rscale>  2 0.45672847E+03</rscale>
<asrwt>0</asrwt>
<pdfrwt beam="1">  1       21 0.21507417E-01 0.45672847E+03</pdfrwt>
<pdfrwt beam="2">  1       21 0.52438479E-01 0.45672847E+03</pdfrwt>
<totfact> 0.64186961E+04</totfact>
</mgrwt>
</event>
<event>
 7    0  0.4725730E-002  0.4539074E+03  0.7546771E-02  0.1026563E+00
         21   -1    0    0  502  501  0.00000000000E+00  0.00000000000E+00  0.62626512864E+03  0.62626512864E+03  0.00000000000E+00 0.  1.
         21   -1    0    0  501  502 -0.00000000000E+00 -0.00000000000E+00 -0.82246269862E+02  0.82246269862E+02  0.00000000000E+00 0.  1.
      99926    2    1    2    0    0  0.00000000000E+00  0.00000000000E+00  0.54401885878E+03  0.70851139850E+03  0.45390735079E+03 0.  0.
      99925    2    3    3    0    0 -0.82833863526E+02  0.87348648050E+01  0.45985070734E+03  0.53626293661E+03  0.26301619213E+03 0.  0.
         25    1    4    4    0    0 -0.63858869724E+02  0.10293767124E+02  0.17537912636E+03  0.22492057031E+03  0.12509000000E+03 0.  0.
         25    1    4    4    0    0 -0.18974993802E+02 -0.15589023187E+01  0.28447158098E+03  0.31134236630E+03  0.12509000000E+03 0.  0.
         25    1    3    3    0    0  0.82833863526E+02 -0.87348648050E+01  0.84168151437E+02  0.17224846190E+03  0.12509000000E+03 0.  0.
<mgrwt>
<rscale>  2 0.45390735E+03</rscale>
<asrwt>0</asrwt>
<pdfrwt beam="1">  1       21 0.92097811E-01 0.45390735E+03</pdfrwt>
<pdfrwt beam="2">  1       21 0.12095040E-01 0.45390735E+03</pdfrwt>
<totfact> 0.52896568E+04</totfact>
</mgrwt>
</event>
<event>
 7    0  0.4725730E-002  0.4544456E+03  0.7546771E-02  0.1026405E+00
         21   -1    0    0  502  501  0.00000000000E+00  0.00000000000E+00  0.53307840709E+03  0.53307840709E+03  0.00000000000E+00 0. -1.
         21   -1    0    0  501  502 -0.00000000000E+00 -0.00000000000E+00 -0.96852916889E+02  0.96852916889E+02  0.00000000000E+00 0. -1.
      99926    2    1    2    0    0  0.00000000000E+00  0.00000000000E+00  0.43622549020E+03  0.62993132398E+03  0.45444559039E+03 0.  0.
      99925    2    3    3    0    0  0.48054296633E+02  0.10211369710E+03  0.27326914037E+03  0.39554125889E+03  0.26275547920E+03 0.  0.
         25    1    3    3    0    0 -0.48054296633E+02 -0.10211369710E+03  0.16295634983E+03  0.23439006509E+03  0.12509000000E+03 0.  0.
         25    1    4    4    0    0  0.38399865521E+02  0.66825551954E+02  0.19267723695E+03  0.24230606638E+03  0.12509000000E+03 0.  0.
         25    1    4    4    0    0  0.96544311121E+01  0.35288145146E+02  0.80591903419E+02  0.15323519251E+03  0.12509000000E+03 0.  0.
<mgrwt>
<rscale>  2 0.45444559E+03</rscale>
<asrwt>0</asrwt>
<pdfrwt beam="1">  1       21 0.78393882E-01 0.45444559E+03</pdfrwt>
<pdfrwt beam="2">  1       21 0.14243076E-01 0.45444559E+03</pdfrwt>
<totfact> 0.57122310E+04</totfact>
</mgrwt>
</event>
<event>
 7    0  0.4725730E-002  0.4542147E+03  0.7546771E-02  0.1026473E+00
         21   -1    0    0  502  501  0.00000000000E+00  0.00000000000E+00  0.10558173812E+03  0.10558173812E+03  0.00000000000E+00 0.  1.
         21   -1    0    0  501  502 -0.00000000000E+00 -0.00000000000E+00 -0.48851015307E+03  0.48851015307E+03  0.00000000000E+00 0.  1.
      99926    2    1    2    0    0 -0.88817841970E-15 -0.14210854715E-13 -0.38292841495E+03  0.59409189119E+03  0.45421471156E+03 0.  0.
      99925    2    3    3    0    0 -0.42214020900E+01  0.96472023315E+02 -0.31632283534E+03  0.42260287447E+03  0.26307485976E+03 0.  0.
         25    1    4    4    0    0  0.11935859789E+02  0.19648873422E+02 -0.10576083592E+03  0.16541283351E+03  0.12509000000E+03 0.  0.
         25    1    3    3    0    0  0.42214020900E+01 -0.96472023315E+02 -0.66605579613E+02  0.17148901671E+03  0.12509000000E+03 0.  0.
         25    1    4    4    0    0 -0.16157261879E+02  0.76823149893E+02 -0.21056199942E+03  0.25719004096E+03  0.12509000000E+03 0.  0.
<mgrwt>
<rscale>  2 0.45421471E+03</rscale>
<asrwt>0</asrwt>
<pdfrwt beam="1">  1       21 0.15526726E-01 0.45421471E+03</pdfrwt>
<pdfrwt beam="2">  1       21 0.71839728E-01 0.45421471E+03</pdfrwt>
<totfact> 0.59411244E+04</totfact>
</mgrwt>
</event>
<event>
 7    0  0.4725730E-002  0.4550464E+03  0.7546771E-02  0.1026228E+00
         21   -1    0    0  502  501  0.00000000000E+00  0.00000000000E+00  0.39757873054E+03  0.39757873054E+03  0.00000000000E+00 0. -1.
         21   -1    0    0  501  502 -0.00000000000E+00 -0.00000000000E+00 -0.13020515655E+03  0.13020515655E+03  0.00000000000E+00 0. -1.
      99926    2    1    2    0    0  0.00000000000E+00  0.71054273576E-14  0.26737357400E+03  0.52778388709E+03  0.45504637500E+03 0.  0.
      99925    2    3    3    0    0  0.28356014086E+02 -0.45175117129E+02  0.52346194474E+02  0.27336467243E+03  0.26295107020E+03 0.  0.
         25    1    4    4    0    0  0.37312869265E+02  0.10569284249E+02  0.21809812918E+02  0.13276722495E+03  0.12509000000E+03 0.  0.
         25    1    4    4    0    0 -0.89568551788E+01 -0.55744401377E+02  0.30536381556E+02  0.14059744748E+03  0.12509000000E+03 0.  0.
         25    1    3    3    0    0 -0.28356014086E+02  0.45175117129E+02  0.21502737952E+03  0.25441921466E+03  0.12509000000E+03 0.  0.
<mgrwt>
<rscale>  2 0.45504638E+03</rscale>
<asrwt>0</asrwt>
<pdfrwt beam="1">  1       21 0.58467460E-01 0.45504638E+03</pdfrwt>
<pdfrwt beam="2">  1       21 0.19147817E-01 0.45504638E+03</pdfrwt>
<totfact> 0.63333522E+04</totfact>
</mgrwt>
</event>
<event>
 7    0  0.4725730E-002  0.4691620E+03  0.7546771E-02  0.1022157E+00
         21   -1    0    0  502  501  0.00000000000E+00  0.00000000000E+00  0.45201934528E+03  0.45201934528E+03  0.00000000000E+00 0.  1.
         21   -1    0    0  501  502 -0.00000000000E+00 -0.00000000000E+00 -0.12173870565E+03  0.12173870565E+03  0.00000000000E+00 0.  1.
      99926    2    1    2    0    0  0.00000000000E+00 -0.71054273576E-14  0.33028063962E+03  0.57375805093E+03  0.46916201903E+03 0.  0.
      99925    2    3    3    0    0 -0.34423370513E+02  0.56488289540E+02  0.33643845330E+03  0.43212005440E+03  0.26298481565E+03 0.  0.
         25    1    4    4    0    0 -0.26287262195E+02  0.42598547381E+02  0.23237129174E+03  0.26860674176E+03  0.12509000000E+03 0.  0.
         25    1    4    4    0    0 -0.81361083177E+01  0.13889742159E+02  0.10406716156E+03  0.16351331264E+03  0.12509000000E+03 0.  0.
         25    1    3    3    0    0  0.34423370513E+02 -0.56488289540E+02 -0.61578136775E+01  0.14163799653E+03  0.12509000000E+03 0.  0.
<mgrwt>
<rscale>  2 0.46916202E+03</rscale>
<asrwt>0</asrwt>
<pdfrwt beam="1">  1       21 0.66473433E-01 0.46916202E+03</pdfrwt>
<pdfrwt beam="2">  1       21 0.17902751E-01 0.46916202E+03</pdfrwt>
<totfact> 0.54015448E+04</totfact>
</mgrwt>
</event>
<event>
 7    0  0.4725730E-002  0.4541481E+03  0.7546771E-02  0.1026492E+00
         21   -1    0    0  502  501  0.00000000000E+00  0.00000000000E+00  0.22515464831E+03  0.22515464831E+03  0.00000000000E+00 0. -1.
         21   -1    0    0  501  502 -0.00000000000E+00 -0.00000000000E+00 -0.22900985558E+03  0.22900985558E+03  0.00000000000E+00 0. -1.
      99926    2    1    2    0    0  0.00000000000E+00  0.71054273576E-14 -0.38552072670E+01  0.45416450389E+03  0.45414814100E+03 0.  0.
      99925    2    3    3    0    0  0.94021511544E+02  0.44711091653E+02  0.39804008310E+02  0.28566298593E+03  0.26302063817E+03 0.  0.
         25    1    4    4    0    0  0.54769184820E+02 -0.17141184147E+02  0.12944194398E+02  0.13823365751E+03  0.12509000000E+03 0.  0.
         25    1    4    4    0    0  0.39252326724E+02  0.61852275800E+02  0.26859813912E+02  0.14742932842E+03  0.12509000000E+03 0.  0.
         25    1    3    3    0    0 -0.94021511544E+02 -0.44711091653E+02 -0.43659215577E+02  0.16850151796E+03  0.12509000000E+03 0.  0.
<mgrwt>
<rscale>  2 0.45414814E+03</rscale>
<asrwt>0</asrwt>
<pdfrwt beam="1">  1       21 0.33110978E-01 0.45414814E+03</pdfrwt>
<pdfrwt beam="2">  1       21 0.33677920E-01 0.45414814E+03</pdfrwt>
<totfact> 0.69075350E+04</totfact>
</mgrwt>
</event>
<event>
 7    0  0.4725730E-002  0.4538919E+03  0.7546771E-02  0.1026568E+00
         21   -1    0    0  502  501  0.00000000000E+00  0.00000000000E+00  0.78583276811E+03  0.78583276811E+03  0.00000000000E+00 0.  1.
         21   -1    0    0  501  502 -0.00000000000E+00 -0.00000000000E+00 -0.65541261385E+02  0.65541261385E+02  0.00000000000E+00 0.  1.
      99926    2    1    2    0    0  0.14210854715E-13  0.00000000000E+00  0.72029150672E+03  0.85137402949E+03  0.45389192925E+03 0.  0.
      99925    2    3    3    0    0  0.64214438444E+02  0.20436324859E+02  0.62182922532E+03  0.67850567948E+03  0.26297763049E+03 0.  0.
         25    1    4    4    0    0 -0.68166440735E+01  0.66384269910E+00  0.25924821494E+03  0.28793063813E+03  0.12509000000E+03 0.  0.
         25    1    4    4    0    0  0.71031082518E+02  0.19772482160E+02  0.36258101038E+03  0.39057504135E+03  0.12509000000E+03 0.  0.
         25    1    3    3    0    0 -0.64214438444E+02 -0.20436324859E+02  0.98462281400E+02  0.17286835001E+03  0.12509000000E+03 0.  0.
<mgrwt>
<rscale>  2 0.45389193E+03</rscale>
<asrwt>0</asrwt>
<pdfrwt beam="1">  1       21 0.11556364E+00 0.45389193E+03</pdfrwt>
<pdfrwt beam="2">  1       21 0.96384213E-02 0.45389193E+03</pdfrwt>
<totfact> 0.45774558E+04</totfact>
</mgrwt>
</event>
<event>
 7    0  0.4725730E-002  0.4290765E+03  0.7546771E-02  0.1034152E+00
         21   -1    0    0  502  501  0.00000000000E+00  0.00000000000E+00  0.27625813792E+03  0.27625813792E+03  0.00000000000E+00 0. -1.
         21   -1    0    0  501  502 -0.00000000000E+00 -0.00000000000E+00 -0.16660740263E+03  0.16660740263E+03  0.00000000000E+00 0. -1.
      99926    2    1    2    0    0  0.00000000000E+00  0.00000000000E+00  0.10965073529E+03  0.44286554054E+03  0.42907645385E+03 0.  0.
      99925    2    3    3    0    0 -0.50422603049E+02 -0.68397800148E+02  0.88033119279E+02  0.29010583583E+03  0.26304157072E+03 0.  0.
         25    1    4    4    0    0 -0.42759251629E+02  0.16778040601E+01  0.52018068296E+02  0.14207236239E+03  0.12509000000E+03 0.  0.
         25    1    4    4    0    0 -0.76633514192E+01 -0.70075604209E+02  0.36015050983E+02  0.14803347344E+03  0.12509000000E+03 0.  0.
         25    1    3    3    0    0  0.50422603049E+02  0.68397800148E+02  0.21617616010E+02  0.15275970472E+03  0.12509000000E+03 0.  0.
<mgrwt>
<rscale>  2 0.42907645E+03</rscale>
<asrwt>0</asrwt>
<pdfrwt beam="1">  1       21 0.40626197E-01 0.42907645E+03</pdfrwt>
<pdfrwt beam="2">  1       21 0.24501089E-01 0.42907645E+03</pdfrwt>
<totfact> 0.85848255E+04</totfact>
</mgrwt>
</event>
<event>
 7    0  0.4725730E-002  0.4490084E+03  0.7546771E-02  0.1028018E+00
         21   -1    0    0  502  501  0.00000000000E+00  0.00000000000E+00  0.35501603638E+02  0.35501603638E+02  0.00000000000E+00 0.  1.
         21   -1    0    0  501  502 -0.00000000000E+00 -0.00000000000E+00 -0.14197145680E+04  0.14197145680E+04  0.00000000000E+00 0.  1.
      99926    2    1    2    0    0  0.00000000000E+00 -0.88817841970E-15 -0.13842129644E+04  0.14552161717E+04  0.44900843588E+03 0.  0.
      99925    2    3    3    0    0  0.24260379570E+02 -0.56175472618E+01 -0.53705398309E+03  0.59850970469E+03  0.26299574712E+03 0.  0.
         25    1    3    3    0    0 -0.24260379570E+02  0.56175472618E+01 -0.84715898131E+03  0.85670646698E+03  0.12509000000E+03 0.  0.
         25    1    4    4    0    0  0.42419935877E+02  0.15883510294E+02 -0.31771256396E+03  0.34444232936E+03  0.12509000000E+03 0.  0.
         25    1    4    4    0    0 -0.18159556307E+02 -0.21501057556E+02 -0.21934141913E+03  0.25406737533E+03  0.12509000000E+03 0.  0.
<mgrwt>
<rscale>  2 0.44900844E+03</rscale>
<asrwt>0</asrwt>
<pdfrwt beam="1">  1       21 0.52208241E-02 0.44900844E+03</pdfrwt>
<pdfrwt beam="2">  1       21 0.20878155E+00 0.44900844E+03</pdfrwt>
<totfact> 0.26090534E+04</totfact>
</mgrwt>
</event>
<event>
 7    0  0.4725730E-002  0.4566919E+03  0.7546771E-02  0.1025745E+00
         21   -1    0    0  502  501  0.00000000000E+00  0.00000000000E+00  0.16137404883E+03  0.16137404883E+03  0.00000000000E+00 0. -1.
         21   -1    0    0  501  502 -0.00000000000E+00 -0.00000000000E+00 -0.32311190608E+03  0.32311190608E+03  0.00000000000E+00 0. -1.
      99926    2    1    2    0    0  0.00000000000E+00  0.00000000000E+00 -0.16173785725E+03  0.48448595491E+03  0.45669191588E+03 0.  0.
      99925    2    3    3    0    0 -0.21670161584E+02  0.10258395792E+03 -0.52189114947E+02  0.28791154313E+03  0.26301385633E+03 0.  0.
         25    1    3    3    0    0  0.21670161584E+02 -0.10258395792E+03 -0.10954874231E+03  0.19657441178E+03  0.12509000000E+03 0.  0.
         25    1    4    4    0    0 -0.37095070765E+02  0.35509048403E+02 -0.52726676173E+02  0.14513630584E+03  0.12509000000E+03 0.  0.
         25    1    4    4    0    0  0.15424909182E+02  0.67074909514E+02  0.53756122593E+00  0.14277523728E+03  0.12509000000E+03 0.  0.
<mgrwt>
<rscale>  2 0.45669192E+03</rscale>
<asrwt>0</asrwt>
<pdfrwt beam="1">  1       21 0.23731478E-01 0.45669192E+03</pdfrwt>
<pdfrwt beam="2">  1       21 0.47516457E-01 0.45669192E+03</pdfrwt>
<totfact> 0.65490963E+04</totfact>
</mgrwt>
</event>
<event>
 7    0  0.4725730E-002  0.5047742E+03  0.7546771E-02  0.1012540E+00
         21   -1    0    0  502  501  0.00000000000E+00  0.00000000000E+00  0.78990828308E+02  0.78990828308E+02  0.00000000000E+00 0.  1.
         21   -1    0    0  501  502 -0.00000000000E+00 -0.00000000000E+00 -0.80641321581E+03  0.80641321581E+03  0.00000000000E+00 0.  1.
      99926    2    1    2    0    0 -0.35527136788E-14  0.00000000000E+00 -0.72742238751E+03  0.88540404412E+03  0.50477419853E+03 0.  0.
      99925    2    3    3    0    0  0.20523573748E+02 -0.95885016179E+02 -0.22751984784E+03  0.36084212149E+03  0.26234824580E+03 0.  0.
         25    1    4    4    0    0  0.48654753115E+02 -0.52529506431E+02 -0.12907995839E+03  0.19348327525E+03  0.12509000000E+03 0.  0.
         25    1    4    4    0    0 -0.28131179367E+02 -0.43355509748E+02 -0.98439889449E+02  0.16735884623E+03  0.12509000000E+03 0.  0.
         25    1    3    3    0    0 -0.20523573748E+02  0.95885016179E+02 -0.49990253967E+03  0.52456192263E+03  0.12509000000E+03 0.  0.
<mgrwt>
<rscale>  2 0.50477420E+03</rscale>
<asrwt>0</asrwt>
<pdfrwt beam="1">  1       21 0.11616298E-01 0.50477420E+03</pdfrwt>
<pdfrwt beam="2">  1       21 0.11859018E+00 0.50477420E+03</pdfrwt>
<totfact> 0.30244045E+04</totfact>
</mgrwt>
</event>
<event>
 7    0  0.4725730E-002  0.4528979E+03  0.7546771E-02  0.1026861E+00
         21   -1    0    0  502  501  0.00000000000E+00  0.00000000000E+00  0.28750836293E+03  0.28750836293E+03  0.00000000000E+00 0. -1.
         21   -1    0    0  501  502 -0.00000000000E+00 -0.00000000000E+00 -0.17835697156E+03  0.17835697156E+03  0.00000000000E+00 0. -1.
      99926    2    1    2    0    0  0.00000000000E+00  0.00000000000E+00  0.10915139136E+03  0.46586533449E+03  0.45289787330E+03 0.  0.
      99925    2    3    3    0    0 -0.66958682158E+02 -0.80303407847E+02  0.10738924352E+03  0.30282326724E+03  0.26312996623E+03 0.  0.
         25    1    3    3    0    0  0.66958682158E+02  0.80303407847E+02  0.17621478394E+01  0.16304206725E+03  0.12509000000E+03 0.  0.
         25    1    4    4    0    0 -0.58820334269E+02 -0.46182155640E+02  0.91150646860E+02  0.17189698004E+03  0.12509000000E+03 0.  0.
         25    1    4    4    0    0 -0.81383478895E+01 -0.34121252207E+02  0.16238596665E+02  0.13092628720E+03  0.12509000000E+03 0.  0.
<mgrwt>
<rscale>  2 0.45289787E+03</rscale>
<asrwt>0</asrwt>
<pdfrwt beam="1">  1       21 0.42280641E-01 0.45289787E+03</pdfrwt>
<pdfrwt beam="2">  1       21 0.26228967E-01 0.45289787E+03</pdfrwt>
<totfact> 0.68886134E+04</totfact>
</mgrwt>
</event>
<event>
 7    0  0.4725730E-002  0.4512246E+03  0.7546771E-02  0.1027357E+00
         21   -1    0    0  502  501  0.00000000000E+00  0.00000000000E+00  0.92396664136E+02  0.92396664136E+02  0.00000000000E+00 0.  1.
         21   -1    0    0  501  502 -0.00000000000E+00 -0.00000000000E+00 -0.55089561344E+03  0.55089561344E+03  0.00000000000E+00 0.  1.
      99926    2    1    2    0    0  0.00000000000E+00  0.00000000000E+00 -0.45849894931E+03  0.64329227758E+03  0.45122463128E+03 0.  0.
      99925    2    3    3    0    0 -0.91883022044E+02 -0.58049022998E+02 -0.30773854614E+03  0.41926463180E+03  0.26318746149E+03 0.  0.
         25    1    3    3    0    0  0.91883022044E+02  0.58049022998E+02 -0.15076040317E+03  0.22402764578E+03  0.12509000000E+03 0.  0.
         25    1    4    4    0    0 -0.50719730683E+02  0.79006989645E+01 -0.17369544899E+03  0.22011935223E+03  0.12509000000E+03 0.  0.
         25    1    4    4    0    0 -0.41163291361E+02 -0.65949721962E+02 -0.13404309715E+03  0.19914527957E+03  0.12509000000E+03 0.  0.
<mgrwt>
<rscale>  2 0.45122463E+03</rscale>
<asrwt>0</asrwt>
<pdfrwt beam="1">  1       21 0.13587744E-01 0.45122463E+03</pdfrwt>
<pdfrwt beam="2">  1       21 0.81014063E-01 0.45122463E+03</pdfrwt>
<totfact> 0.57792023E+04</totfact>
</mgrwt>
</event>
<event>
 7    0  0.4725730E-002  0.4520588E+03  0.7546771E-02  0.1027110E+00
         21   -1    0    0  502  501  0.00000000000E+00  0.00000000000E+00  0.12739031155E+03  0.12739031155E+03  0.00000000000E+00 0.  1.
         21   -1    0    0  501  502 -0.00000000000E+00 -0.00000000000E+00 -0.40104527958E+03  0.40104527958E+03  0.00000000000E+00 0.  1.
      99926    2    1    2    0    0  0.71054273576E-14  0.71054273576E-14 -0.27365496803E+03  0.52843559113E+03  0.45205877101E+03 0.  0.
      99925    2    3    3    0    0 -0.61988876571E+02  0.32280409939E+02 -0.72847987158E+02  0.28174631826E+03  0.26303899508E+03 0.  0.
         25    1    4    4    0    0  0.78627053516E+01  0.22851688132E+02 -0.47355135708E+02  0.13591923618E+03  0.12509000000E+03 0.  0.
         25    1    3    3    0    0  0.61988876571E+02 -0.32280409939E+02 -0.20080698087E+03  0.24668927288E+03  0.12509000000E+03 0.  0.
         25    1    4    4    0    0 -0.69851581922E+02  0.94287218070E+01 -0.25492851449E+02  0.14582708208E+03  0.12509000000E+03 0.  0.
<mgrwt>
<rscale>  2 0.45205877E+03</rscale>
<asrwt>0</asrwt>
<pdfrwt beam="1">  1       21 0.18733870E-01 0.45205877E+03</pdfrwt>
<pdfrwt beam="2">  1       21 0.58977246E-01 0.45205877E+03</pdfrwt>
<totfact> 0.64810260E+04</totfact>
</mgrwt>
</event>
<event>
 7    0  0.4725730E-002  0.4556228E+03  0.7546771E-02  0.1026058E+00
         21   -1    0    0  502  501  0.00000000000E+00  0.00000000000E+00  0.10423533018E+04  0.10423533018E+04  0.00000000000E+00 0.  1.
         21   -1    0    0  501  502 -0.00000000000E+00 -0.00000000000E+00 -0.49789291670E+02  0.49789291670E+02  0.00000000000E+00 0.  1.
      99926    2    1    2    0    0  0.00000000000E+00  0.00000000000E+00  0.99256401014E+03  0.10921425935E+04  0.45562279384E+03 0.  0.
      99925    2    3    3    0    0 -0.68597851534E+02  0.90318378329E+02  0.60447566206E+03  0.66891316549E+03  0.26304167398E+03 0.  0.
         25    1    4    4    0    0  0.40381445263E+01  0.57805854507E+02  0.30737692508E+03  0.33687669198E+03  0.12509000000E+03 0.  0.
         25    1    3    3    0    0  0.68597851534E+02 -0.90318378329E+02  0.38808834809E+03  0.42322942800E+03  0.12509000000E+03 0.  0.
         25    1    4    4    0    0 -0.72635996060E+02  0.32512523822E+02  0.29709873697E+03  0.33203647351E+03  0.12509000000E+03 0.  0.
<mgrwt>
<rscale>  2 0.45562279E+03</rscale>
<asrwt>0</asrwt>
<pdfrwt beam="1">  1       21 0.15328724E+00 0.45562279E+03</pdfrwt>
<pdfrwt beam="2">  1       21 0.73219553E-02 0.45562279E+03</pdfrwt>
<totfact> 0.35594653E+04</totfact>
</mgrwt>
</event>
<event>
 7    0  0.4725730E-002  0.4550531E+03  0.7546771E-02  0.1026226E+00
         21   -1    0    0  502  501  0.00000000000E+00  0.00000000000E+00  0.42337632848E+03  0.42337632848E+03  0.00000000000E+00 0. -1.
         21   -1    0    0  501  502 -0.00000000000E+00 -0.00000000000E+00 -0.12227495605E+03  0.12227495605E+03  0.00000000000E+00 0. -1.
      99926    2    1    2    0    0  0.00000000000E+00 -0.35527136788E-14  0.30110137243E+03  0.54565128453E+03  0.45505306046E+03 0.  0.
      99925    2    3    3    0    0 -0.92931149332E+02  0.18374174969E+02  0.11492537940E+03  0.30217065429E+03  0.26291719735E+03 0.  0.
         25    1    3    3    0    0  0.92931149332E+02 -0.18374174969E+02  0.18617599303E+03  0.24348063024E+03  0.12509000000E+03 0.  0.
         25    1    4    4    0    0 -0.18209692848E+02 -0.12170362027E+02  0.28941301544E+02  0.13024906011E+03  0.12509000000E+03 0.  0.
         25    1    4    4    0    0 -0.74721456484E+02  0.30544536995E+02  0.85984077852E+02  0.17192159417E+03  0.12509000000E+03 0.  0.
<mgrwt>
<rscale>  2 0.45505306E+03</rscale>
<asrwt>0</asrwt>
<pdfrwt beam="1">  1       21 0.62261224E-01 0.45505306E+03</pdfrwt>
<pdfrwt beam="2">  1       21 0.17981611E-01 0.45505306E+03</pdfrwt>
<totfact> 0.62128708E+04</totfact>
</mgrwt>
</event>
<event>
 7    0  0.4725730E-002  0.4532250E+03  0.7546771E-02  0.1026765E+00
         21   -1    0    0  502  501  0.00000000000E+00  0.00000000000E+00  0.45020543566E+03  0.45020543566E+03  0.00000000000E+00 0. -1.
         21   -1    0    0  501  502 -0.00000000000E+00 -0.00000000000E+00 -0.11406621010E+03  0.11406621010E+03  0.00000000000E+00 0. -1.
      99926    2    1    2    0    0  0.00000000000E+00 -0.14210854715E-13  0.33613922556E+03  0.56427164576E+03  0.45322501173E+03 0.  0.
      99925    2    3    3    0    0  0.18277851381E+02  0.10998951058E+03  0.20855200319E+03  0.35365877887E+03  0.26296163513E+03 0.  0.
         25    1    3    3    0    0 -0.18277851381E+02 -0.10998951058E+03  0.12758722237E+03  0.21061286689E+03  0.12509000000E+03 0.  0.
         25    1    4    4    0    0  0.38175005152E+02  0.26807028989E+02  0.86426847211E+02  0.15903790693E+03  0.12509000000E+03 0.  0.
         25    1    4    4    0    0 -0.19897153771E+02  0.83182481596E+02  0.12212515598E+03  0.19462087194E+03  0.12509000000E+03 0.  0.
<mgrwt>
<rscale>  2 0.45322501E+03</rscale>
<asrwt>0</asrwt>
<pdfrwt beam="1">  1       21 0.66206681E-01 0.45322501E+03</pdfrwt>
<pdfrwt beam="2">  1       21 0.16774443E-01 0.45322501E+03</pdfrwt>
<totfact> 0.61796123E+04</totfact>
</mgrwt>
</event>
<event>
 7    0  0.4725730E-002  0.4629346E+03  0.7546771E-02  0.1023934E+00
         21   -1    0    0  502  501  0.00000000000E+00  0.00000000000E+00  0.48897503053E+03  0.48897503053E+03  0.00000000000E+00 0.  1.
         21   -1    0    0  501  502 -0.00000000000E+00 -0.00000000000E+00 -0.10957026195E+03  0.10957026195E+03  0.00000000000E+00 0.  1.
      99926    2    1    2    0    0  0.00000000000E+00  0.00000000000E+00  0.37940476858E+03  0.59854529248E+03  0.46293464845E+03 0.  0.
      99925    2    3    3    0    0  0.33196317423E+02  0.40278609557E+02  0.37746618970E+03  0.46298855873E+03  0.26297018703E+03 0.  0.
         25    1    3    3    0    0 -0.33196317423E+02 -0.40278609557E+02  0.19385788755E+01  0.13555673376E+03  0.12509000000E+03 0.  0.
         25    1    4    4    0    0  0.19690483096E+02 -0.63664033654E+01  0.13067234996E+03  0.18207420839E+03  0.12509000000E+03 0.  0.
         25    1    4    4    0    0  0.13505834326E+02  0.46645012923E+02  0.24679383974E+03  0.28091435034E+03  0.12509000000E+03 0.  0.
<mgrwt>
<rscale>  2 0.46293465E+03</rscale>
<asrwt>0</asrwt>
<pdfrwt beam="1">  1       21 0.71908092E-01 0.46293465E+03</pdfrwt>
<pdfrwt beam="2">  1       21 0.16113274E-01 0.46293465E+03</pdfrwt>
<totfact> 0.55223168E+04</totfact>
</mgrwt>
</event>
<event>
 7    0  0.4725730E-002  0.4559501E+03  0.7546771E-02  0.1025962E+00
         21   -1    0    0  502  501  0.00000000000E+00  0.00000000000E+00  0.37549513982E+03  0.37549513982E+03  0.00000000000E+00 0.  1.
         21   -1    0    0  501  502 -0.00000000000E+00 -0.00000000000E+00 -0.13841090819E+03  0.13841090819E+03  0.00000000000E+00 0.  1.
      99926    2    1    2    0    0  0.00000000000E+00  0.00000000000E+00  0.23708423163E+03  0.51390604801E+03  0.45595009956E+03 0.  0.
      99925    2    3    3    0    0  0.79361473802E+02 -0.48540713849E+02  0.22361869065E+03  0.35743473013E+03  0.26286845202E+03 0.  0.
         25    1    4    4    0    0  0.24095418440E+02 -0.15544156530E+02  0.15402458274E+03  0.20048264309E+03  0.12509000000E+03 0.  0.
         25    1    3    3    0    0 -0.79361473802E+02  0.48540713849E+02  0.13465540981E+02  0.15647131788E+03  0.12509000000E+03 0.  0.
         25    1    4    4    0    0  0.55266055362E+02 -0.32996557319E+02  0.69594107908E+02  0.15695208704E+03  0.12509000000E+03 0.  0.
<mgrwt>
<rscale>  2 0.45595010E+03</rscale>
<asrwt>0</asrwt>
<pdfrwt beam="1">  1       21 0.55219873E-01 0.45595010E+03</pdfrwt>
<pdfrwt beam="2">  1       21 0.20354545E-01 0.45595010E+03</pdfrwt>
<totfact> 0.63821807E+04</totfact>
</mgrwt>
</event>
<event>
 7    0  0.4725730E-002  0.4522332E+03  0.7546771E-02  0.1027058E+00
         21   -1    0    0  502  501  0.00000000000E+00  0.00000000000E+00  0.85631811170E+02  0.85631811170E+02  0.00000000000E+00 0.  1.
         21   -1    0    0  501  502 -0.00000000000E+00 -0.00000000000E+00 -0.59707608812E+03  0.59707608812E+03  0.00000000000E+00 0.  1.
      99926    2    1    2    0    0  0.00000000000E+00  0.14210854715E-13 -0.51144427695E+03  0.68270789929E+03  0.45223315594E+03 0.  0.
      99925    2    3    3    0    0  0.46352798763E+02  0.99991681741E+02 -0.33632174757E+03  0.44091805921E+03  0.26296292263E+03 0.  0.
         25    1    3    3    0    0 -0.46352798763E+02 -0.99991681741E+02 -0.17512252938E+03  0.24178984008E+03  0.12509000000E+03 0.  0.
         25    1    4    4    0    0  0.34810898407E+02  0.98525478875E+01 -0.16375215383E+03  0.20921555232E+03  0.12509000000E+03 0.  0.
         25    1    4    4    0    0  0.11541900357E+02  0.90139133853E+02 -0.17256959374E+03  0.23170250689E+03  0.12509000000E+03 0.  0.
<mgrwt>
<rscale>  2 0.45223316E+03</rscale>
<asrwt>0</asrwt>
<pdfrwt beam="1">  1       21 0.12592913E-01 0.45223316E+03</pdfrwt>
<pdfrwt beam="2">  1       21 0.87805310E-01 0.45223316E+03</pdfrwt>
<totfact> 0.55041509E+04</totfact>
</mgrwt>
</event>
<event>
 7    0  0.4725730E-002  0.4542993E+03  0.7546771E-02  0.1026448E+00
         21   -1    0    0  502  501  0.00000000000E+00  0.00000000000E+00  0.55375201077E+02  0.55375201077E+02  0.00000000000E+00 0.  1.
         21   -1    0    0  501  502 -0.00000000000E+00 -0.00000000000E+00 -0.93177028613E+03  0.93177028613E+03  0.00000000000E+00 0.  1.
      99926    2    1    2    0    0 -0.14210854715E-13  0.00000000000E+00 -0.87639508505E+03  0.98714548720E+03  0.45429931522E+03 0.  0.
      99925    2    3    3    0    0 -0.11187926329E+03  0.12477257594E+02 -0.54606100461E+03  0.61641544484E+03  0.26289299794E+03 0.  0.
         25    1    4    4    0    0 -0.19548345510E+02 -0.18046794530E+01 -0.19922709706E+03  0.23606003258E+03  0.12509000000E+03 0.  0.
         25    1    3    3    0    0  0.11187926329E+03 -0.12477257594E+02 -0.33033408044E+03  0.37073004236E+03  0.12509000000E+03 0.  0.
         25    1    4    4    0    0 -0.92330917784E+02  0.14281937047E+02 -0.34683390755E+03  0.38035541226E+03  0.12509000000E+03 0.  0.
<mgrwt>
<rscale>  2 0.45429932E+03</rscale>
<asrwt>0</asrwt>
<pdfrwt beam="1">  1       21 0.81434119E-02 0.45429932E+03</pdfrwt>
<pdfrwt beam="2">  1       21 0.13702504E+00 0.45429932E+03</pdfrwt>
<totfact> 0.39888291E+04</totfact>
</mgrwt>
</event>
<event>
 7    0  0.4725730E-002  0.4561419E+03  0.7546771E-02  0.1025906E+00
         21   -1    0    0  502  501  0.00000000000E+00  0.00000000000E+00  0.23502195823E+03  0.23502195823E+03  0.00000000000E+00 0. -1.
         21   -1    0    0  501  502 -0.00000000000E+00 -0.00000000000E+00 -0.22132553705E+03  0.22132553705E+03  0.00000000000E+00 0. -1.
      99926    2    1    2    0    0  0.17763568394E-14  0.00000000000E+00  0.13696421184E+02  0.45634749527E+03  0.45614191267E+03 0.  0.
      99925    2    3    3    0    0 -0.15556992783E+02  0.37794897387E+02 -0.98115008984E+02  0.28366345343E+03  0.26299795727E+03 0.  0.
         25    1    4    4    0    0 -0.45388888863E+02  0.11260273749E+02 -0.35456166240E+02  0.13817233016E+03  0.12509000000E+03 0.  0.
         25    1    4    4    0    0  0.29831896080E+02  0.26534623637E+02 -0.62658842745E+02  0.14549112327E+03  0.12509000000E+03 0.  0.
         25    1    3    3    0    0  0.15556992783E+02 -0.37794897387E+02  0.11181143017E+03  0.17268404185E+03  0.12509000000E+03 0.  0.
<mgrwt>
<rscale>  2 0.45614191E+03</rscale>
<asrwt>0</asrwt>
<pdfrwt beam="1">  1       21 0.34562053E-01 0.45614191E+03</pdfrwt>
<pdfrwt beam="2">  1       21 0.32547873E-01 0.45614191E+03</pdfrwt>
<totfact> 0.67827101E+04</totfact>
</mgrwt>
</event>
<event>
 7    0  0.4725730E-002  0.4544961E+03  0.7546771E-02  0.1026390E+00
         21   -1    0    0  502  501  0.00000000000E+00  0.00000000000E+00  0.46953045121E+03  0.46953045121E+03  0.00000000000E+00 0. -1.
         21   -1    0    0  501  502 -0.00000000000E+00 -0.00000000000E+00 -0.10998580292E+03  0.10998580292E+03  0.00000000000E+00 0. -1.
      99926    2    1    2    0    0  0.00000000000E+00  0.00000000000E+00  0.35954464830E+03  0.57951625413E+03  0.45449613275E+03 0.  0.
      99925    2    3    3    0    0 -0.39094121438E+02  0.58865862030E+02  0.11438026669E+03  0.29535675288E+03  0.26298141763E+03 0.  0.
         25    1    3    3    0    0  0.39094121438E+02 -0.58865862030E+02  0.24516438160E+03  0.28415950125E+03  0.12509000000E+03 0.  0.
         25    1    4    4    0    0  0.17733632302E+02  0.31384686655E+02  0.73038578106E+02  0.14927029933E+03  0.12509000000E+03 0.  0.
         25    1    4    4    0    0 -0.56827753740E+02  0.27481175374E+02  0.41341688587E+02  0.14608645355E+03  0.12509000000E+03 0.  0.
<mgrwt>
<rscale>  2 0.45449613E+03</rscale>
<asrwt>0</asrwt>
<pdfrwt beam="1">  1       21 0.69048595E-01 0.45449613E+03</pdfrwt>
<pdfrwt beam="2">  1       21 0.16174383E-01 0.45449613E+03</pdfrwt>
<totfact> 0.60196581E+04</totfact>
</mgrwt>
</event>
<event>
 7    0  0.4725730E-002  0.4527477E+03  0.7546771E-02  0.1026906E+00
         21   -1    0    0  502  501  0.00000000000E+00  0.00000000000E+00  0.70826361041E+02  0.70826361041E+02  0.00000000000E+00 0. -1.
         21   -1    0    0  501  502 -0.00000000000E+00 -0.00000000000E+00 -0.72353171439E+03  0.72353171439E+03  0.00000000000E+00 0. -1.
      99926    2    1    2    0    0  0.17763568394E-14  0.00000000000E+00 -0.65270535335E+03  0.79435807543E+03  0.45274769322E+03 0.  0.
      99925    2    3    3    0    0 -0.14921436845E+02 -0.38785373464E+02 -0.23090159944E+03  0.35243854726E+03  0.26300271195E+03 0.  0.
         25    1    4    4    0    0 -0.18230020122E+02 -0.22063336746E+02 -0.16796675350E+03  0.21137517083E+03  0.12509000000E+03 0.  0.
         25    1    4    4    0    0  0.33085832769E+01 -0.16722036718E+02 -0.62934845945E+02  0.14106337643E+03  0.12509000000E+03 0.  0.
         25    1    3    3    0    0  0.14921436845E+02  0.38785373464E+02 -0.42180375391E+03  0.44191952818E+03  0.12509000000E+03 0.  0.
<mgrwt>
<rscale>  2 0.45274769E+03</rscale>
<asrwt>0</asrwt>
<pdfrwt beam="1">  1       21 0.10415641E-01 0.45274769E+03</pdfrwt>
<pdfrwt beam="2">  1       21 0.10640173E+00 0.45274769E+03</pdfrwt>
<totfact> 0.48897544E+04</totfact>
</mgrwt>
</event>
<event>
 7    0  0.4725730E-002  0.4567819E+03  0.7546771E-02  0.1025719E+00
         21   -1    0    0  502  501  0.00000000000E+00  0.00000000000E+00  0.42076165919E+03  0.42076165919E+03  0.00000000000E+00 0.  1.
         21   -1    0    0  501  502 -0.00000000000E+00 -0.00000000000E+00 -0.12397144437E+03  0.12397144437E+03  0.00000000000E+00 0.  1.
      99926    2    1    2    0    0  0.14210854715E-13 -0.14210854715E-13  0.29679021482E+03  0.54473310356E+03  0.45678192007E+03 0.  0.
      99925    2    3    3    0    0  0.52828851348E+02 -0.82229339070E+02  0.11499833549E+03  0.30338615987E+03  0.26318433292E+03 0.  0.
         25    1    4    4    0    0 -0.11285663868E+02 -0.55223983888E+02  0.48099413762E+02  0.14538953301E+03  0.12509000000E+03 0.  0.
         25    1    4    4    0    0  0.64114515216E+02 -0.27005355182E+02  0.66898921730E+02  0.15799662686E+03  0.12509000000E+03 0.  0.
         25    1    3    3    0    0 -0.52828851348E+02  0.82229339070E+02  0.18179187933E+03  0.24134694369E+03  0.12509000000E+03 0.  0.
<mgrwt>
<rscale>  2 0.45678192E+03</rscale>
<asrwt>0</asrwt>
<pdfrwt beam="1">  1       21 0.61876714E-01 0.45678192E+03</pdfrwt>
<pdfrwt beam="2">  1       21 0.18231095E-01 0.45678192E+03</pdfrwt>
<totfact> 0.61346311E+04</totfact>
</mgrwt>
</event>
<event>
 7    0  0.4725730E-002  0.4519603E+03  0.7546771E-02  0.1027139E+00
         21   -1    0    0  502  501  0.00000000000E+00  0.00000000000E+00  0.58729675277E+03  0.58729675277E+03  0.00000000000E+00 0.  1.
         21   -1    0    0  501  502 -0.00000000000E+00 -0.00000000000E+00 -0.86952676254E+02  0.86952676254E+02  0.00000000000E+00 0.  1.
      99926    2    1    2    0    0  0.00000000000E+00 -0.72164496601E-15  0.50034407652E+03  0.67424942902E+03  0.45196028325E+03 0.  0.
      99925    2    3    3    0    0 -0.98351957098E+02  0.45459704825E+00  0.24152702688E+03  0.37042861439E+03  0.26307553957E+03 0.  0.
         25    1    4    4    0    0 -0.30449577734E+02  0.13002824749E+02  0.16051553413E+03  0.20617709628E+03  0.12509000000E+03 0.  0.
         25    1    3    3    0    0  0.98351957098E+02 -0.45459704825E+00  0.25881704964E+03  0.30382081464E+03  0.12509000000E+03 0.  0.
         25    1    4    4    0    0 -0.67902379364E+02 -0.12548227701E+02  0.81011492750E+02  0.16425151810E+03  0.12509000000E+03 0.  0.
<mgrwt>
<rscale>  2 0.45196028E+03</rscale>
<asrwt>0</asrwt>
<pdfrwt beam="1">  1       21 0.86367168E-01 0.45196028E+03</pdfrwt>
<pdfrwt beam="2">  1       21 0.12787159E-01 0.45196028E+03</pdfrwt>
<totfact> 0.55644361E+04</totfact>
</mgrwt>
</event>
<event>
 7    0  0.4725730E-002  0.4515845E+03  0.7546771E-02  0.1027251E+00
         21   -1    0    0  502  501  0.00000000000E+00  0.00000000000E+00  0.37049561818E+02  0.37049561818E+02  0.00000000000E+00 0. -1.
         21   -1    0    0  501  502 -0.00000000000E+00 -0.00000000000E+00 -0.13760522685E+04  0.13760522685E+04  0.00000000000E+00 0. -1.
      99926    2    1    2    0    0  0.00000000000E+00  0.35527136788E-14 -0.13390027067E+04  0.14131018303E+04  0.45158447089E+03 0.  0.
      99925    2    3    3    0    0  0.66139364170E+02  0.22373062969E+02 -0.11109637861E+04  0.11437986057E+04  0.26298240762E+03 0.  0.
         25    1    4    4    0    0  0.55838375589E+02  0.44867415521E+02 -0.62155827355E+03  0.63805423334E+03  0.12509000000E+03 0.  0.
         25    1    4    4    0    0  0.10300988580E+02 -0.22494352553E+02 -0.48940551260E+03  0.50574437231E+03  0.12509000000E+03 0.  0.
         25    1    3    3    0    0 -0.66139364170E+02 -0.22373062969E+02 -0.22803892055E+03  0.26930322468E+03  0.12509000000E+03 0.  0.
<mgrwt>
<rscale>  2 0.45158447E+03</rscale>
<asrwt>0</asrwt>
<pdfrwt beam="1">  1       21 0.54484656E-02 0.45158447E+03</pdfrwt>
<pdfrwt beam="2">  1       21 0.20236060E+00 0.45158447E+03</pdfrwt>
<totfact> 0.26686245E+04</totfact>
</mgrwt>
</event>
<event>
 7    0  0.4725730E-002  0.4503365E+03  0.7546771E-02  0.1027622E+00
         21   -1    0    0  502  501  0.00000000000E+00  0.00000000000E+00  0.24056392594E+03  0.24056392594E+03  0.00000000000E+00 0. -1.
         21   -1    0    0  501  502 -0.00000000000E+00 -0.00000000000E+00 -0.21075789416E+03  0.21075789416E+03  0.00000000000E+00 0. -1.
      99926    2    1    2    0    0  0.00000000000E+00 -0.35527136788E-14  0.29806031779E+02  0.45132182009E+03  0.45033652502E+03 0.  0.
      99925    2    3    3    0    0 -0.55009151598E+02 -0.28639871504E+02  0.10828601435E+03  0.29115670291E+03  0.26305914875E+03 0.  0.
         25    1    3    3    0    0  0.55009151598E+02  0.28639871504E+02 -0.78479982575E+02  0.16016511719E+03  0.12509000000E+03 0.  0.
         25    1    4    4    0    0 -0.62413474598E+01  0.17143164627E+02  0.33398895571E+02  0.13075104909E+03  0.12509000000E+03 0.  0.
         25    1    4    4    0    0 -0.48767804138E+02 -0.45783036130E+02  0.74887118783E+02  0.16040565382E+03  0.12509000000E+03 0.  0.
<mgrwt>
<rscale>  2 0.45033653E+03</rscale>
<asrwt>0</asrwt>
<pdfrwt beam="1">  1       21 0.35377048E-01 0.45033653E+03</pdfrwt>
<pdfrwt beam="2">  1       21 0.30993808E-01 0.45033653E+03</pdfrwt>
<totfact> 0.71437464E+04</totfact>
</mgrwt>
</event>
<event>
 7    0  0.4725730E-002  0.4659929E+03  0.7546771E-02  0.1023057E+00
         21   -1    0    0  502  501  0.00000000000E+00  0.00000000000E+00  0.69995537017E+02  0.69995537017E+02  0.00000000000E+00 0. -1.
         21   -1    0    0  501  502 -0.00000000000E+00 -0.00000000000E+00 -0.77558288259E+03  0.77558288259E+03  0.00000000000E+00 0. -1.
      99926    2    1    2    0    0  0.00000000000E+00  0.00000000000E+00 -0.70558734557E+03  0.84557841961E+03  0.46599287706E+03 0.  0.
      99925    2    3    3    0    0 -0.32758163868E+02 -0.22804165119E+02 -0.22852790602E+03  0.35077912270E+03  0.26311188086E+03 0.  0.
         25    1    4    4    0    0 -0.72181932661E+01 -0.48922777078E+02 -0.13334802291E+03  0.18940629278E+03  0.12509000000E+03 0.  0.
         25    1    3    3    0    0  0.32758163868E+02  0.22804165119E+02 -0.47705943956E+03  0.49479929690E+03  0.12509000000E+03 0.  0.
         25    1    4    4    0    0 -0.25539970602E+02  0.26118611959E+02 -0.95179883109E+02  0.16137282992E+03  0.12509000000E+03 0.  0.
<mgrwt>
<rscale>  2 0.46599288E+03</rscale>
<asrwt>0</asrwt>
<pdfrwt beam="1">  1       21 0.10293462E-01 0.46599288E+03</pdfrwt>
<pdfrwt beam="2">  1       21 0.11405630E+00 0.46599288E+03</pdfrwt>
<totfact> 0.41905292E+04</totfact>
</mgrwt>
</event>
<event>
 7    0  0.4725730E-002  0.4353430E+03  0.7546771E-02  0.1032185E+00
         21   -1    0    0  502  501  0.00000000000E+00  0.00000000000E+00  0.11645786216E+04  0.11645786216E+04  0.00000000000E+00 0. -1.
         21   -1    0    0  501  502 -0.00000000000E+00 -0.00000000000E+00 -0.40685000387E+02  0.40685000387E+02  0.00000000000E+00 0. -1.
      99926    2    1    2    0    0  0.11102230246E-15  0.35527136788E-14  0.11238936212E+04  0.12052636220E+04  0.43534299890E+03 0.  0.
      99925    2    3    3    0    0 -0.93413353215E+00  0.63823281686E+01  0.97900697925E+03  0.10137401147E+04  0.26300712549E+03 0.  0.
         25    1    4    4    0    0  0.85634526176E+01 -0.32025397435E+02  0.55563945635E+03  0.57051001074E+03  0.12509000000E+03 0.  0.
         25    1    4    4    0    0 -0.94975861497E+01  0.38407725604E+02  0.42336752290E+03  0.44323010398E+03  0.12509000000E+03 0.  0.
         25    1    3    3    0    0  0.93413353215E+00 -0.63823281686E+01  0.14488664198E+03  0.19152350729E+03  0.12509000000E+03 0.  0.
<mgrwt>
<rscale>  2 0.43534300E+03</rscale>
<asrwt>0</asrwt>
<pdfrwt beam="1">  1       21 0.17126154E+00 0.43534300E+03</pdfrwt>
<pdfrwt beam="2">  1       21 0.59830890E-02 0.43534300E+03</pdfrwt>
<totfact> 0.37394849E+04</totfact>
</mgrwt>
</event>
<event>
 7    0  0.4725730E-002  0.4504432E+03  0.7546771E-02  0.1027590E+00
         21   -1    0    0  502  501  0.00000000000E+00  0.00000000000E+00  0.10585819358E+03  0.10585819358E+03  0.00000000000E+00 0. -1.
         21   -1    0    0  501  502 -0.00000000000E+00 -0.00000000000E+00 -0.47917660074E+03  0.47917660074E+03  0.00000000000E+00 0. -1.
      99926    2    1    2    0    0  0.14210854715E-13  0.14210854715E-13 -0.37331840716E+03  0.58503479432E+03  0.45044320112E+03 0.  0.
      99925    2    3    3    0    0 -0.70139294390E+02 -0.81842981433E+02 -0.25627391067E+03  0.38263737218E+03  0.26290159199E+03 0.  0.
         25    1    4    4    0    0 -0.13097131441E+02 -0.34087979890E+01 -0.11656737052E+03  0.17151855504E+03  0.12509000000E+03 0.  0.
         25    1    4    4    0    0 -0.57042162949E+02 -0.78434183444E+02 -0.13970654015E+03  0.21111881713E+03  0.12509000000E+03 0.  0.
         25    1    3    3    0    0  0.70139294390E+02  0.81842981433E+02 -0.11704449650E+03  0.20239742214E+03  0.12509000000E+03 0.  0.
<mgrwt>
<rscale>  2 0.45044320E+03</rscale>
<asrwt>0</asrwt>
<pdfrwt beam="1">  1       21 0.15567381E-01 0.45044320E+03</pdfrwt>
<pdfrwt beam="2">  1       21 0.70467148E-01 0.45044320E+03</pdfrwt>
<totfact> 0.61805269E+04</totfact>
</mgrwt>
</event>
<event>
 7    0  0.4725730E-002  0.4557365E+03  0.7546771E-02  0.1026025E+00
         21   -1    0    0  502  501  0.00000000000E+00  0.00000000000E+00  0.54851834135E+03  0.54851834135E+03  0.00000000000E+00 0. -1.
         21   -1    0    0  501  502 -0.00000000000E+00 -0.00000000000E+00 -0.94662170205E+02  0.94662170205E+02  0.00000000000E+00 0. -1.
      99926    2    1    2    0    0  0.00000000000E+00  0.00000000000E+00  0.45385617114E+03  0.64318051155E+03  0.45573648785E+03 0.  0.
      99925    2    3    3    0    0  0.10299347302E+03 -0.38986512970E+02  0.33005065523E+03  0.43556809008E+03  0.26202771304E+03 0.  0.
         25    1    4    4    0    0  0.64502995015E+02  0.10892691496E+02  0.19724878366E+03  0.24255695795E+03  0.12509000000E+03 0.  0.
         25    1    4    4    0    0  0.38490478003E+02 -0.49879204466E+02  0.13280187156E+03  0.19301113213E+03  0.12509000000E+03 0.  0.
         25    1    3    3    0    0 -0.10299347302E+03  0.38986512970E+02  0.12380551592E+03  0.20761242147E+03  0.12509000000E+03 0.  0.
<mgrwt>
<rscale>  2 0.45573649E+03</rscale>
<asrwt>0</asrwt>
<pdfrwt beam="1">  1       21 0.80664461E-01 0.45573649E+03</pdfrwt>
<pdfrwt beam="2">  1       21 0.13920908E-01 0.45573649E+03</pdfrwt>
<totfact> 0.55771258E+04</totfact>
</mgrwt>
</event>
<event>
 7    0  0.4725730E-002  0.4616737E+03  0.7546771E-02  0.1024297E+00
         21   -1    0    0  502  501  0.00000000000E+00  0.00000000000E+00  0.12585162396E+03  0.12585162396E+03  0.00000000000E+00 0. -1.
         21   -1    0    0  501  502 -0.00000000000E+00 -0.00000000000E+00 -0.42340065773E+03  0.42340065773E+03  0.00000000000E+00 0. -1.
      99926    2    1    2    0    0  0.00000000000E+00  0.00000000000E+00 -0.29754903378E+03  0.54925228169E+03  0.46167373917E+03 0.  0.
      99925    2    3    3    0    0 -0.35871209973E+02  0.65830860643E+02 -0.75720926665E+02  0.28377975369E+03  0.26301491203E+03 0.  0.
         25    1    4    4    0    0 -0.19529641238E+02 -0.47617477498E+01 -0.17342894018E+02  0.12787636686E+03  0.12509000000E+03 0.  0.
         25    1    3    3    0    0  0.35871209973E+02 -0.65830860643E+02 -0.22182810711E+03  0.26547252800E+03  0.12509000000E+03 0.  0.
         25    1    4    4    0    0 -0.16341568735E+02  0.70592608393E+02 -0.58378032647E+02  0.15590338683E+03  0.12509000000E+03 0.  0.
<mgrwt>
<rscale>  2 0.46167374E+03</rscale>
<asrwt>0</asrwt>
<pdfrwt beam="1">  1       21 0.18507592E-01 0.46167374E+03</pdfrwt>
<pdfrwt beam="2">  1       21 0.62264802E-01 0.46167374E+03</pdfrwt>
<totfact> 0.58751625E+04</totfact>
</mgrwt>
</event>
<event>
 7    0  0.4725730E-002  0.4695106E+03  0.7546771E-02  0.1022058E+00
         21   -1    0    0  502  501  0.00000000000E+00  0.00000000000E+00  0.30956724030E+03  0.30956724030E+03  0.00000000000E+00 0.  1.
         21   -1    0    0  501  502 -0.00000000000E+00 -0.00000000000E+00 -0.17802288626E+03  0.17802288626E+03  0.00000000000E+00 0.  1.
      99926    2    1    2    0    0  0.14210854715E-13 -0.35527136788E-14  0.13154435403E+03  0.48759012656E+03  0.46951061164E+03 0.  0.
      99925    2    3    3    0    0 -0.10498479042E+03  0.71326257539E+01  0.15428715491E+03  0.32255248339E+03  0.26298839861E+03 0.  0.
         25    1    3    3    0    0  0.10498479042E+03 -0.71326257539E+01 -0.22742800880E+02  0.16503764317E+03  0.12509000000E+03 0.  0.
         25    1    4    4    0    0 -0.85950592317E+02 -0.16094153681E+02  0.10264792471E+03  0.18393104863E+03  0.12509000000E+03 0.  0.
         25    1    4    4    0    0 -0.19034198106E+02  0.23226779435E+02  0.51639230205E+02  0.13862143477E+03  0.12509000000E+03 0.  0.
<mgrwt>
<rscale>  2 0.46951061E+03</rscale>
<asrwt>0</asrwt>
<pdfrwt beam="1">  1       21 0.45524594E-01 0.46951061E+03</pdfrwt>
<pdfrwt beam="2">  1       21 0.26179836E-01 0.46951061E+03</pdfrwt>
<totfact> 0.59051799E+04</totfact>
</mgrwt>
</event>
<event>
 7    0  0.4725730E-002  0.4581707E+03  0.7546771E-02  0.1025313E+00
         21   -1    0    0  502  501  0.00000000000E+00  0.00000000000E+00  0.58812759024E+03  0.58812759024E+03  0.00000000000E+00 0.  1.
         21   -1    0    0  501  502 -0.00000000000E+00 -0.00000000000E+00 -0.89232516764E+02  0.89232516764E+02  0.00000000000E+00 0.  1.
      99926    2    1    2    0    0  0.00000000000E+00  0.00000000000E+00  0.49889507348E+03  0.67736010701E+03  0.45817073261E+03 0.  0.
      99925    2    3    3    0    0 -0.38516060628E+02  0.71291811017E+02  0.18986749140E+03  0.33426891821E+03  0.26290689635E+03 0.  0.
         25    1    3    3    0    0  0.38516060628E+02 -0.71291811017E+02  0.30902758208E+03  0.34309118879E+03  0.12509000000E+03 0.  0.
         25    1    4    4    0    0 -0.51736050524E+02  0.27937295373E+02  0.68859772427E+02  0.15442243281E+03  0.12509000000E+03 0.  0.
         25    1    4    4    0    0  0.13219989896E+02  0.43354515644E+02  0.12100771898E+03  0.17984648540E+03  0.12509000000E+03 0.  0.
<mgrwt>
<rscale>  2 0.45817073E+03</rscale>
<asrwt>0</asrwt>
<pdfrwt beam="1">  1       21 0.86489350E-01 0.45817073E+03</pdfrwt>
<pdfrwt beam="2">  1       21 0.13122429E-01 0.45817073E+03</pdfrwt>
<totfact> 0.52817734E+04</totfact>
</mgrwt>
</event>
<event>
 7    0  0.4725730E-002  0.4437161E+03  0.7546771E-02  0.1029613E+00
         21   -1    0    0  502  501  0.00000000000E+00  0.00000000000E+00  0.39732313022E+03  0.39732313022E+03  0.00000000000E+00 0.  1.
         21   -1    0    0  501  502 -0.00000000000E+00 -0.00000000000E+00 -0.12388150822E+03  0.12388150822E+03  0.00000000000E+00 0.  1.
      99926    2    1    2    0    0  0.00000000000E+00  0.00000000000E+00  0.27344162200E+03  0.52120463845E+03  0.44371607419E+03 0.  0.
      99925    2    3    3    0    0  0.54073484479E+02 -0.83390196849E+02  0.20274494565E+03  0.34649518020E+03  0.26282224080E+03 0.  0.
         25    1    3    3    0    0 -0.54073484479E+02  0.83390196849E+02  0.70696676351E+02  0.17470945825E+03  0.12509000000E+03 0.  0.
         25    1    4    4    0    0  0.22099903792E+02 -0.71328575285E+01  0.64948963256E+02  0.14284662870E+03  0.12509000000E+03 0.  0.
         25    1    4    4    0    0  0.31973580686E+02 -0.76257339320E+02  0.13779598239E+03  0.20364855149E+03  0.12509000000E+03 0.  0.
<mgrwt>
<rscale>  2 0.44371607E+03</rscale>
<asrwt>0</asrwt>
<pdfrwt beam="1">  1       21 0.58429872E-01 0.44371607E+03</pdfrwt>
<pdfrwt beam="2">  1       21 0.18217869E-01 0.44371607E+03</pdfrwt>
<totfact> 0.69844323E+04</totfact>
</mgrwt>
</event>
<event>
 7    0  0.4725730E-002  0.4070855E+03  0.7546771E-02  0.1041353E+00
         21   -1    0    0  502  501  0.00000000000E+00  0.00000000000E+00  0.11694086009E+04  0.11694086009E+04  0.00000000000E+00 0. -1.
         21   -1    0    0  501  502 -0.00000000000E+00 -0.00000000000E+00 -0.35427857642E+02  0.35427857642E+02  0.00000000000E+00 0. -1.
      99926    2    1    2    0    0  0.00000000000E+00  0.00000000000E+00  0.11339807433E+04  0.12048364585E+04  0.40708545264E+03 0.  0.
      99925    2    3    3    0    0 -0.24295550657E+02 -0.49664138042E+02  0.69899096446E+03  0.74885354642E+03  0.26293813949E+03 0.  0.
         25    1    4    4    0    0  0.81631618518E+01 -0.28089704034E+02  0.44343216414E+03  0.46166574595E+03  0.12509000000E+03 0.  0.
         25    1    3    3    0    0  0.24295550657E+02  0.49664138042E+02  0.43498977879E+03  0.45598291212E+03  0.12509000000E+03 0.  0.
         25    1    4    4    0    0 -0.32458712509E+02 -0.21574434008E+02  0.25555880031E+03  0.28718780047E+03  0.12509000000E+03 0.  0.
<mgrwt>
<rscale>  2 0.40708545E+03</rscale>
<asrwt>0</asrwt>
<pdfrwt beam="1">  1       21 0.17197183E+00 0.40708545E+03</pdfrwt>
<pdfrwt beam="2">  1       21 0.52099798E-02 0.40708545E+03</pdfrwt>
<totfact> 0.47356917E+04</totfact>
</mgrwt>
</event>
<event>
 7    0  0.4725730E-002  0.4588188E+03  0.7546771E-02  0.1025124E+00
         21   -1    0    0  502  501  0.00000000000E+00  0.00000000000E+00  0.91892252554E+02  0.91892252554E+02  0.00000000000E+00 0.  1.
         21   -1    0    0  501  502 -0.00000000000E+00 -0.00000000000E+00 -0.57272147363E+03  0.57272147363E+03  0.00000000000E+00 0.  1.
      99926    2    1    2    0    0  0.00000000000E+00 -0.35527136788E-14 -0.48082922107E+03  0.66461372618E+03  0.45881877162E+03 0.  0.
      99925    2    3    3    0    0  0.11004413363E+03 -0.22977194343E+02 -0.25665362788E+03  0.38436407410E+03  0.26311023156E+03 0.  0.
         25    1    4    4    0    0  0.73032602867E+02 -0.29001318409E+02 -0.91295953309E+02  0.17365856369E+03  0.12509000000E+03 0.  0.
         25    1    3    3    0    0 -0.11004413363E+03  0.22977194343E+02 -0.22417559319E+03  0.28024965208E+03  0.12509000000E+03 0.  0.
         25    1    4    4    0    0  0.37011530765E+02  0.60241240661E+01 -0.16535767457E+03  0.21070551041E+03  0.12509000000E+03 0.  0.
<mgrwt>
<rscale>  2 0.45881877E+03</rscale>
<asrwt>0</asrwt>
<pdfrwt beam="1">  1       21 0.13513566E-01 0.45881877E+03</pdfrwt>
<pdfrwt beam="2">  1       21 0.84223747E-01 0.45881877E+03</pdfrwt>
<totfact> 0.53245043E+04</totfact>
</mgrwt>
</event>
<event>
 7    0  0.4725730E-002  0.4531698E+03  0.7546771E-02  0.1026781E+00
         21   -1    0    0  502  501  0.00000000000E+00  0.00000000000E+00  0.12955085811E+03  0.12955085811E+03  0.00000000000E+00 0.  1.
         21   -1    0    0  501  502 -0.00000000000E+00 -0.00000000000E+00 -0.39629779657E+03  0.39629779657E+03  0.00000000000E+00 0.  1.
      99926    2    1    2    0    0  0.00000000000E+00  0.00000000000E+00 -0.26674693846E+03  0.52584865468E+03  0.45316981194E+03 0.  0.
      99925    2    3    3    0    0 -0.78180406614E+02 -0.64251215173E+02 -0.22225240262E+03  0.35891253981E+03  0.26302411701E+03 0.  0.
         25    1    3    3    0    0  0.78180406614E+02  0.64251215173E+02 -0.44494535839E+02  0.16693611487E+03  0.12509000000E+03 0.  0.
         25    1    4    4    0    0 -0.32514917595E+02  0.48500102760E+01 -0.79465710811E+02  0.15179937339E+03  0.12509000000E+03 0.  0.
         25    1    4    4    0    0 -0.45665489019E+02 -0.69101225449E+02 -0.14278669181E+03  0.20711316642E+03  0.12509000000E+03 0.  0.
<mgrwt>
<rscale>  2 0.45316981E+03</rscale>
<asrwt>0</asrwt>
<pdfrwt beam="1">  1       21 0.19051597E-01 0.45316981E+03</pdfrwt>
<pdfrwt beam="2">  1       21 0.58279087E-01 0.45316981E+03</pdfrwt>
<totfact> 0.64417911E+04</totfact>
</mgrwt>
</event>
<event>
 7    0  0.4725730E-002  0.4468308E+03  0.7546771E-02  0.1028671E+00
         21   -1    0    0  502  501  0.00000000000E+00  0.00000000000E+00  0.99100586997E+03  0.99100586997E+03  0.00000000000E+00 0. -1.
         21   -1    0    0  501  502 -0.00000000000E+00 -0.00000000000E+00 -0.50367447796E+02  0.50367447796E+02  0.00000000000E+00 0. -1.
      99926    2    1    2    0    0  0.00000000000E+00  0.00000000000E+00  0.94063842218E+03  0.10413733178E+04  0.44683077970E+03 0.  0.
      99925    2    3    3    0    0  0.98119274121E+02 -0.26420537149E+01  0.68626053860E+03  0.74139000464E+03  0.26281407828E+03 0.  0.
         25    1    3    3    0    0 -0.98119274121E+02  0.26420537149E+01  0.25437788358E+03  0.29998331313E+03  0.12509000000E+03 0.  0.
         25    1    4    4    0    0  0.43863045525E+02 -0.46207355275E+01  0.44399070700E+03  0.46337951397E+03  0.12509000000E+03 0.  0.
         25    1    4    4    0    0  0.54256228596E+02  0.19786818126E+01  0.24226983159E+03  0.27801049067E+03  0.12509000000E+03 0.  0.
<mgrwt>
<rscale>  2 0.44683078E+03</rscale>
<asrwt>0</asrwt>
<pdfrwt beam="1">  1       21 0.14573615E+00 0.44683078E+03</pdfrwt>
<pdfrwt beam="2">  1       21 0.74069782E-02 0.44683078E+03</pdfrwt>
<totfact> 0.40091740E+04</totfact>
</mgrwt>
</event>
<event>
 7    0  0.4725730E-002  0.4697014E+03  0.7546771E-02  0.1022005E+00
         21   -1    0    0  502  501  0.00000000000E+00  0.00000000000E+00  0.12923407485E+04  0.12923407485E+04  0.00000000000E+00 0.  1.
         21   -1    0    0  501  502 -0.00000000000E+00 -0.00000000000E+00 -0.42678263836E+02  0.42678263836E+02  0.00000000000E+00 0.  1.
      99926    2    1    2    0    0  0.26645352591E-14  0.00000000000E+00  0.12496624846E+04  0.13350190123E+04  0.46970143465E+03 0.  0.
      99925    2    3    3    0    0 -0.35809175745E+01  0.86349648891E+02  0.10386976810E+04  0.10749752827E+04  0.26307774722E+03 0.  0.
         25    1    4    4    0    0 -0.38323688659E+02  0.39907592343E+02  0.44895836266E+03  0.46933190871E+03  0.12509000000E+03 0.  0.
         25    1    3    3    0    0  0.35809175745E+01 -0.86349648891E+02  0.21096480366E+03  0.26004372963E+03  0.12509000000E+03 0.  0.
         25    1    4    4    0    0  0.34742771084E+02  0.46442056548E+02  0.58973931831E+03  0.60564337396E+03  0.12509000000E+03 0.  0.
<mgrwt>
<rscale>  2 0.46970143E+03</rscale>
<asrwt>0</asrwt>
<pdfrwt beam="1">  1       21 0.19005008E+00 0.46970143E+03</pdfrwt>
<pdfrwt beam="2">  1       21 0.62762161E-02 0.46970143E+03</pdfrwt>
<totfact> 0.25117626E+04</totfact>
</mgrwt>
</event>
<event>
 7    0  0.4725730E-002  0.4590363E+03  0.7546771E-02  0.1025061E+00
         21   -1    0    0  502  501  0.00000000000E+00  0.00000000000E+00  0.10158854257E+04  0.10158854257E+04  0.00000000000E+00 0. -1.
         21   -1    0    0  501  502 -0.00000000000E+00 -0.00000000000E+00 -0.51854846260E+02  0.51854846260E+02  0.00000000000E+00 0. -1.
      99926    2    1    2    0    0  0.00000000000E+00  0.71054273576E-14  0.96403057943E+03  0.10677402720E+04  0.45903630605E+03 0.  0.
      99925    2    3    3    0    0 -0.76303679367E+02  0.60087556911E+02  0.75614301728E+03  0.80640234402E+03  0.26286824052E+03 0.  0.
         25    1    4    4    0    0 -0.18292712513E+02  0.23014183963E+02  0.46039364502E+03  0.47798963636E+03  0.12509000000E+03 0.  0.
         25    1    4    4    0    0 -0.58010966853E+02  0.37073372948E+02  0.29574937226E+03  0.32841270766E+03  0.12509000000E+03 0.  0.
         25    1    3    3    0    0  0.76303679367E+02 -0.60087556911E+02  0.20788756215E+03  0.26133792794E+03  0.12509000000E+03 0.  0.
<mgrwt>
<rscale>  2 0.45903631E+03</rscale>
<asrwt>0</asrwt>
<pdfrwt beam="1">  1       21 0.14939490E+00 0.45903631E+03</pdfrwt>
<pdfrwt beam="2">  1       21 0.76257133E-02 0.45903631E+03</pdfrwt>
<totfact> 0.35501608E+04</totfact>
</mgrwt>
</event>
<event>
 7    0  0.4725730E-002  0.4584056E+03  0.7546771E-02  0.1025245E+00
         21   -1    0    0  502  501  0.00000000000E+00  0.00000000000E+00  0.16406985467E+03  0.16406985467E+03  0.00000000000E+00 0. -1.
         21   -1    0    0  501  502 -0.00000000000E+00 -0.00000000000E+00 -0.32019245455E+03  0.32019245455E+03  0.00000000000E+00 0. -1.
      99926    2    1    2    0    0  0.00000000000E+00  0.00000000000E+00 -0.15612259989E+03  0.48426230922E+03  0.45840562599E+03 0.  0.
      99925    2    3    3    0    0  0.56107160845E+01 -0.97990354147E+02 -0.16420553045E+03  0.32505668273E+03  0.26280182860E+03 0.  0.
         25    1    4    4    0    0  0.10758370796E+02 -0.72403388285E+02 -0.12500781077E+03  0.19139606587E+03  0.12509000000E+03 0.  0.
         25    1    3    3    0    0 -0.56107160845E+01  0.97990354147E+02  0.80829305632E+01  0.15920562649E+03  0.12509000000E+03 0.  0.
         25    1    4    4    0    0 -0.51476547115E+01 -0.25586965862E+02 -0.39197719681E+02  0.13366061686E+03  0.12509000000E+03 0.  0.
<mgrwt>
<rscale>  2 0.45840563E+03</rscale>
<asrwt>0</asrwt>
<pdfrwt beam="1">  1       21 0.24127920E-01 0.45840563E+03</pdfrwt>
<pdfrwt beam="2">  1       21 0.47087126E-01 0.45840563E+03</pdfrwt>
<totfact> 0.64626288E+04</totfact>
</mgrwt>
</event>
<event>
 7    0  0.4725730E-002  0.4649446E+03  0.7546771E-02  0.1023357E+00
         21   -1    0    0  502  501  0.00000000000E+00  0.00000000000E+00  0.25240676232E+03  0.25240676232E+03  0.00000000000E+00 0. -1.
         21   -1    0    0  501  502 -0.00000000000E+00 -0.00000000000E+00 -0.21411217258E+03  0.21411217258E+03  0.00000000000E+00 0. -1.
      99926    2    1    2    0    0  0.00000000000E+00 -0.14210854715E-13  0.38294589743E+02  0.46651893490E+03  0.46494455693E+03 0.  0.
      99925    2    3    3    0    0  0.73787565899E+02  0.91019336022E+02 -0.11188513786E+02  0.28812271845E+03  0.26298363758E+03 0.  0.
         25    1    3    3    0    0 -0.73787565899E+02 -0.91019336022E+02  0.49483103529E+02  0.17839621646E+03  0.12509000000E+03 0.  0.
         25    1    4    4    0    0  0.25397745370E+02  0.85568701665E+02 -0.63542363382E+01  0.15380160140E+03  0.12509000000E+03 0.  0.
         25    1    4    4    0    0  0.48389820529E+02  0.54506343563E+01 -0.48342774479E+01  0.13432111704E+03  0.12509000000E+03 0.  0.
<mgrwt>
<rscale>  2 0.46494456E+03</rscale>
<asrwt>0</asrwt>
<pdfrwt beam="1">  1       21 0.37118641E-01 0.46494456E+03</pdfrwt>
<pdfrwt beam="2">  1       21 0.31487084E-01 0.46494456E+03</pdfrwt>
<totfact> 0.62594157E+04</totfact>
</mgrwt>
</event>
<event>
 7    0  0.4725730E-002  0.4478961E+03  0.7546771E-02  0.1028351E+00
         21   -1    0    0  502  501  0.00000000000E+00  0.00000000000E+00  0.11577988984E+04  0.11577988984E+04  0.00000000000E+00 0.  1.
         21   -1    0    0  501  502 -0.00000000000E+00 -0.00000000000E+00 -0.43317298572E+02  0.43317298572E+02  0.00000000000E+00 0.  1.
      99926    2    1    2    0    0 -0.35527136788E-14  0.00000000000E+00  0.11144815998E+04  0.12011161970E+04  0.44789606191E+03 0.  0.
      99925    2    3    3    0    0 -0.10155293224E+02 -0.93120214178E+02  0.84138841360E+03  0.88647052207E+03  0.26290876686E+03 0.  0.
         25    1    3    3    0    0  0.10155293224E+02  0.93120214178E+02  0.27309318624E+03  0.31464567491E+03  0.12509000000E+03 0.  0.
         25    1    4    4    0    0 -0.40096042975E+02 -0.68466711851E+02  0.44504053355E+03  0.46904580576E+03  0.12509000000E+03 0.  0.
         25    1    4    4    0    0  0.29940749751E+02 -0.24653502327E+02  0.39634788005E+03  0.41742471632E+03  0.12509000000E+03 0.  0.
<mgrwt>
<rscale>  2 0.44789606E+03</rscale>
<asrwt>0</asrwt>
<pdfrwt beam="1">  1       21 0.17026452E+00 0.44789606E+03</pdfrwt>
<pdfrwt beam="2">  1       21 0.63701917E-02 0.44789606E+03</pdfrwt>
<totfact> 0.33961395E+04</totfact>
</mgrwt>
</event>
<event>
 7    0  0.4725730E-002  0.4523368E+03  0.7546771E-02  0.1027027E+00
         21   -1    0    0  502  501  0.00000000000E+00  0.00000000000E+00  0.24143241820E+03  0.24143241820E+03  0.00000000000E+00 0.  1.
         21   -1    0    0  501  502 -0.00000000000E+00 -0.00000000000E+00 -0.21186945116E+03  0.21186945116E+03  0.00000000000E+00 0.  1.
      99926    2    1    2    0    0  0.00000000000E+00  0.00000000000E+00  0.29562967044E+02  0.45330186936E+03  0.45233683881E+03 0.  0.
      99925    2    3    3    0    0 -0.86223099163E+02  0.16922066749E+02  0.86078701541E+02  0.29032237520E+03  0.26297672807E+03 0.  0.
         25    1    3    3    0    0  0.86223099163E+02 -0.16922066749E+02 -0.56515734497E+02  0.16297949416E+03  0.12509000000E+03 0.  0.
         25    1    4    4    0    0 -0.20608507974E+02  0.35266318449E+02  0.63475896137E+02  0.14609969647E+03  0.12509000000E+03 0.  0.
         25    1    4    4    0    0 -0.65614591189E+02 -0.18344251699E+02  0.22602805403E+02  0.14422267873E+03  0.12509000000E+03 0.  0.
<mgrwt>
<rscale>  2 0.45233684E+03</rscale>
<asrwt>0</asrwt>
<pdfrwt beam="1">  1       21 0.35504767E-01 0.45233684E+03</pdfrwt>
<pdfrwt beam="2">  1       21 0.31157272E-01 0.45233684E+03</pdfrwt>
<totfact> 0.70149189E+04</totfact>
</mgrwt>
</event>
<event>
 7    0  0.4725730E-002  0.4396448E+03  0.7546771E-02  0.1030856E+00
         21   -1    0    0  502  501  0.00000000000E+00  0.00000000000E+00  0.81037705509E+02  0.81037705509E+02  0.00000000000E+00 0.  1.
         21   -1    0    0  501  502 -0.00000000000E+00 -0.00000000000E+00 -0.59628899362E+03  0.59628899362E+03  0.00000000000E+00 0.  1.
      99926    2    1    2    0    0  0.00000000000E+00  0.00000000000E+00 -0.51525128811E+03  0.67732669913E+03  0.43964481966E+03 0.  0.
      99925    2    3    3    0    0  0.49460243214E+02  0.24506668230E+02 -0.45388458654E+03  0.52745918228E+03  0.26297353216E+03 0.  0.
         25    1    3    3    0    0 -0.49460243214E+02 -0.24506668230E+02 -0.61366701567E+02  0.14986751685E+03  0.12509000000E+03 0.  0.
         25    1    4    4    0    0  0.58103157523E+02  0.17298698751E+02 -0.28394928053E+03  0.31614857885E+03  0.12509000000E+03 0.  0.
         25    1    4    4    0    0 -0.86429143091E+01  0.72079694789E+01 -0.16993530601E+03  0.21131060343E+03  0.12509000000E+03 0.  0.
<mgrwt>
<rscale>  2 0.43964482E+03</rscale>
<asrwt>0</asrwt>
<pdfrwt beam="1">  1       21 0.11917310E-01 0.43964482E+03</pdfrwt>
<pdfrwt beam="2">  1       21 0.87689556E-01 0.43964482E+03</pdfrwt>
<totfact> 0.61225857E+04</totfact>
</mgrwt>
</event>
<event>
 7    0  0.4725730E-002  0.4527690E+03  0.7546771E-02  0.1026900E+00
         21   -1    0    0  502  501  0.00000000000E+00  0.00000000000E+00  0.84869305524E+02  0.84869305524E+02  0.00000000000E+00 0. -1.
         21   -1    0    0  501  502 -0.00000000000E+00 -0.00000000000E+00 -0.60386891934E+03  0.60386891934E+03  0.00000000000E+00 0. -1.
      99926    2    1    2    0    0  0.00000000000E+00 -0.71054273576E-14 -0.51899961381E+03  0.68873822486E+03  0.45276897337E+03 0.  0.
      99925    2    3    3    0    0 -0.91790497229E+02 -0.59679089506E+02 -0.30111336469E+03  0.41467798557E+03  0.26325175063E+03 0.  0.
         25    1    4    4    0    0 -0.52189219524E+02  0.11154497879E+02 -0.14485005241E+03  0.19868865906E+03  0.12509000000E+03 0.  0.
         25    1    4    4    0    0 -0.39601277705E+02 -0.70833587385E+02 -0.15626331229E+03  0.21598932651E+03  0.12509000000E+03 0.  0.
         25    1    3    3    0    0  0.91790497229E+02  0.59679089506E+02 -0.21788624912E+03  0.27406023929E+03  0.12509000000E+03 0.  0.
<mgrwt>
<rscale>  2 0.45276897E+03</rscale>
<asrwt>0</asrwt>
<pdfrwt beam="1">  1       21 0.12480780E-01 0.45276897E+03</pdfrwt>
<pdfrwt beam="2">  1       21 0.88804252E-01 0.45276897E+03</pdfrwt>
<totfact> 0.54469164E+04</totfact>
</mgrwt>
</event>
<event>
 7    0  0.4725730E-002  0.4584564E+03  0.7546771E-02  0.1025230E+00
         21   -1    0    0  502  501  0.00000000000E+00  0.00000000000E+00  0.30736153708E+03  0.30736153708E+03  0.00000000000E+00 0. -1.
         21   -1    0    0  501  502 -0.00000000000E+00 -0.00000000000E+00 -0.17095684482E+03  0.17095684482E+03  0.00000000000E+00 0. -1.
      99926    2    1    2    0    0  0.00000000000E+00  0.71054273576E-14  0.13640469226E+03  0.47831838190E+03  0.45845636041E+03 0.  0.
      99925    2    3    3    0    0  0.10139535113E+03  0.40961822070E+02  0.42208156657E+02  0.28732261358E+03  0.26232397467E+03 0.  0.
         25    1    4    4    0    0  0.87172134872E+02  0.39271499810E+02  0.12380850195E+02  0.15793044465E+03  0.12509000000E+03 0.  0.
         25    1    4    4    0    0  0.14223216257E+02  0.16903222599E+01  0.29827306462E+02  0.12939216893E+03  0.12509000000E+03 0.  0.
         25    1    3    3    0    0 -0.10139535113E+03 -0.40961822070E+02  0.94196535599E+02  0.19099576832E+03  0.12509000000E+03 0.  0.
<mgrwt>
<rscale>  2 0.45845636E+03</rscale>
<asrwt>0</asrwt>
<pdfrwt beam="1">  1       21 0.45200226E-01 0.45845636E+03</pdfrwt>
<pdfrwt beam="2">  1       21 0.25140712E-01 0.45845636E+03</pdfrwt>
<totfact> 0.65020757E+04</totfact>
</mgrwt>
</event>
<event>
 7    0  0.4725730E-002  0.4561918E+03  0.7546771E-02  0.1025892E+00
         21   -1    0    0  502  501  0.00000000000E+00  0.00000000000E+00  0.58909231115E+02  0.58909231115E+02  0.00000000000E+00 0. -1.
         21   -1    0    0  501  502 -0.00000000000E+00 -0.00000000000E+00 -0.88318464942E+03  0.88318464942E+03  0.00000000000E+00 0. -1.
      99926    2    1    2    0    0  0.00000000000E+00  0.00000000000E+00 -0.82427541830E+03  0.94209388053E+03  0.45619175192E+03 0.  0.
      99925    2    3    3    0    0 -0.10997464720E+03 -0.93961830401E+01 -0.57942857869E+03  0.64581665520E+03  0.26298091765E+03 0.  0.
         25    1    4    4    0    0 -0.49208508126E+02  0.29417142285E+02 -0.23453748506E+03  0.27192312430E+03  0.12509000000E+03 0.  0.
         25    1    3    3    0    0  0.10997464720E+03  0.93961830401E+01 -0.24484683961E+03  0.29627722533E+03  0.12509000000E+03 0.  0.
         25    1    4    4    0    0 -0.60766139076E+02 -0.38813325325E+02 -0.34489109363E+03  0.37389353090E+03  0.12509000000E+03 0.  0.
<mgrwt>
<rscale>  2 0.45619175E+03</rscale>
<asrwt>0</asrwt>
<pdfrwt beam="1">  1       21 0.86631232E-02 0.45619175E+03</pdfrwt>
<pdfrwt beam="2">  1       21 0.12988008E+00 0.45619175E+03</pdfrwt>
<totfact> 0.41078420E+04</totfact>
</mgrwt>
</event>
<event>
 7    0  0.4725730E-002  0.4545199E+03  0.7546771E-02  0.1026383E+00
         21   -1    0    0  502  501  0.00000000000E+00  0.00000000000E+00  0.14163077565E+04  0.14163077565E+04  0.00000000000E+00 0.  1.
         21   -1    0    0  501  502 -0.00000000000E+00 -0.00000000000E+00 -0.36466007154E+02  0.36466007154E+02  0.00000000000E+00 0.  1.
      99926    2    1    2    0    0  0.00000000000E+00  0.00000000000E+00  0.13798417494E+04  0.14527737637E+04  0.45451991720E+03 0.  0.
      99925    2    3    3    0    0 -0.10225484993E+03 -0.32616671127E+02  0.97273177996E+03  0.10135631799E+04  0.26378647128E+03 0.  0.
         25    1    4    4    0    0 -0.45648769079E+02 -0.55520632246E+02  0.44630867225E+03  0.46904721484E+03  0.12509000000E+03 0.  0.
         25    1    3    3    0    0  0.10225484993E+03  0.32616671127E+02  0.40710996943E+03  0.43921058375E+03  0.12509000000E+03 0.  0.
         25    1    4    4    0    0 -0.56606080856E+02  0.22903961119E+02  0.52642310771E+03  0.54451596510E+03  0.12509000000E+03 0.  0.
<mgrwt>
<rscale>  2 0.45451992E+03</rscale>
<asrwt>0</asrwt>
<pdfrwt beam="1">  1       21 0.20828052E+00 0.45451992E+03</pdfrwt>
<pdfrwt beam="2">  1       21 0.53626490E-02 0.45451992E+03</pdfrwt>
<totfact> 0.25052261E+04</totfact>
</mgrwt>
</event>
<event>
 7    0  0.4725730E-002  0.4581924E+03  0.7546771E-02  0.1025307E+00
         21   -1    0    0  502  501  0.00000000000E+00  0.00000000000E+00  0.63578633083E+03  0.63578633083E+03  0.00000000000E+00 0.  1.
         21   -1    0    0  501  502 -0.00000000000E+00 -0.00000000000E+00 -0.82551434467E+02  0.82551434467E+02  0.00000000000E+00 0.  1.
      99926    2    1    2    0    0  0.14210854715E-13  0.00000000000E+00  0.55323489636E+03  0.71833776529E+03  0.45819242082E+03 0.  0.
      99925    2    3    3    0    0 -0.91329808522E+02 -0.31054106983E+02  0.24662284752E+03  0.37342625769E+03  0.26328473090E+03 0.  0.
         25    1    3    3    0    0  0.91329808522E+02  0.31054106983E+02  0.30661204884E+03  0.34491150761E+03  0.12509000000E+03 0.  0.
         25    1    4    4    0    0 -0.75878268586E+02  0.12972030714E+02  0.12738277362E+03  0.19442135772E+03  0.12509000000E+03 0.  0.
         25    1    4    4    0    0 -0.15451539936E+02 -0.44026137697E+02  0.11924007390E+03  0.17900489996E+03  0.12509000000E+03 0.  0.
<mgrwt>
<rscale>  2 0.45819242E+03</rscale>
<asrwt>0</asrwt>
<pdfrwt beam="1">  1       21 0.93497988E-01 0.45819242E+03</pdfrwt>
<pdfrwt beam="2">  1       21 0.12139917E-01 0.45819242E+03</pdfrwt>
<totfact> 0.50635101E+04</totfact>
</mgrwt>
</event>
<event>
 7    0  0.4725730E-002  0.4276320E+03  0.7546771E-02  0.1034611E+00
         21   -1    0    0  502  501  0.00000000000E+00  0.00000000000E+00  0.32089593036E+03  0.32089593036E+03  0.00000000000E+00 0. -1.
         21   -1    0    0  501  502 -0.00000000000E+00 -0.00000000000E+00 -0.14246765050E+03  0.14246765050E+03  0.00000000000E+00 0. -1.
      99926    2    1    2    0    0  0.00000000000E+00  0.00000000000E+00  0.17842827986E+03  0.46336358086E+03  0.42763203460E+03 0.  0.
      99925    2    3    3    0    0 -0.83081264824E+02 -0.15312910574E+02  0.12135837098E+03  0.30198990149E+03  0.26331172514E+03 0.  0.
         25    1    4    4    0    0 -0.83821406460E+00 -0.11235944944E+02  0.69255775745E+02  0.14342531030E+03  0.12509000000E+03 0.  0.
         25    1    4    4    0    0 -0.82243050760E+02 -0.40769656296E+01  0.52102595239E+02  0.15856459118E+03  0.12509000000E+03 0.  0.
         25    1    3    3    0    0  0.83081264824E+02  0.15312910574E+02  0.57069908876E+02  0.16137367937E+03  0.12509000000E+03 0.  0.
<mgrwt>
<rscale>  2 0.42763203E+03</rscale>
<asrwt>0</asrwt>
<pdfrwt beam="1">  1       21 0.47190578E-01 0.42763203E+03</pdfrwt>
<pdfrwt beam="2">  1       21 0.20951125E-01 0.42763203E+03</pdfrwt>
<totfact> 0.84935669E+04</totfact>
</mgrwt>
</event>
<event>
 7    0  0.4725730E-002  0.5004558E+03  0.7546771E-02  0.1013660E+00
         21   -1    0    0  502  501  0.00000000000E+00  0.00000000000E+00  0.21144374221E+03  0.21144374221E+03  0.00000000000E+00 0.  1.
         21   -1    0    0  501  502 -0.00000000000E+00 -0.00000000000E+00 -0.29612602358E+03  0.29612602358E+03  0.00000000000E+00 0.  1.
      99926    2    1    2    0    0  0.14210854715E-13  0.00000000000E+00 -0.84682281368E+02  0.50756976579E+03  0.50045577064E+03 0.  0.
      99925    2    3    3    0    0 -0.11010976267E+03  0.95869097797E+02 -0.93759737037E+02  0.31509911336E+03  0.26302379969E+03 0.  0.
         25    1    3    3    0    0  0.11010976267E+03 -0.95869097797E+02  0.90774556686E+01  0.19247065243E+03  0.12509000000E+03 0.  0.
         25    1    4    4    0    0 -0.73766976672E+02  0.61930690330E+02 -0.87136166992E+02  0.18032525322E+03  0.12509000000E+03 0.  0.
         25    1    4    4    0    0 -0.36342785993E+02  0.33938407467E+02 -0.66235700450E+01  0.13477386013E+03  0.12509000000E+03 0.  0.
<mgrwt>
<rscale>  2 0.50045577E+03</rscale>
<asrwt>0</asrwt>
<pdfrwt beam="1">  1       21 0.31094668E-01 0.50045577E+03</pdfrwt>
<pdfrwt beam="2">  1       21 0.43547945E-01 0.50045577E+03</pdfrwt>
<totfact> 0.45826464E+04</totfact>
</mgrwt>
</event>
<event>
 7    0  0.4725730E-002  0.4520827E+03  0.7546771E-02  0.1027103E+00
         21   -1    0    0  502  501  0.00000000000E+00  0.00000000000E+00  0.45845063077E+02  0.45845063077E+02  0.00000000000E+00 0. -1.
         21   -1    0    0  501  502 -0.00000000000E+00 -0.00000000000E+00 -0.11145082787E+04  0.11145082787E+04  0.00000000000E+00 0. -1.
      99926    2    1    2    0    0  0.00000000000E+00  0.00000000000E+00 -0.10686632157E+04  0.11603533418E+04  0.45208274613E+03 0.  0.
      99925    2    3    3    0    0  0.92391355170E+02 -0.33088630304E+02 -0.54450282153E+03  0.61261011106E+03  0.26301483903E+03 0.  0.
         25    1    3    3    0    0 -0.92391355170E+02  0.33088630304E+02 -0.52416039412E+03  0.54774323075E+03  0.12509000000E+03 0.  0.
         25    1    4    4    0    0  0.63257402443E+02 -0.48792255671E+02 -0.24663537982E+03  0.28785187485E+03  0.12509000000E+03 0.  0.
         25    1    4    4    0    0  0.29133952726E+02  0.15703625367E+02 -0.29786744171E+03  0.32475823621E+03  0.12509000000E+03 0.  0.
<mgrwt>
<rscale>  2 0.45208275E+03</rscale>
<asrwt>0</asrwt>
<pdfrwt beam="1">  1       21 0.67419216E-02 0.45208275E+03</pdfrwt>
<pdfrwt beam="2">  1       21 0.16389826E+00 0.45208275E+03</pdfrwt>
<totfact> 0.34209690E+04</totfact>
</mgrwt>
</event>
<event>
 7    0  0.4725730E-002  0.4106151E+03  0.7546771E-02  0.1040165E+00
         21   -1    0    0  502  501  0.00000000000E+00  0.00000000000E+00  0.26547234472E+03  0.26547234472E+03  0.00000000000E+00 0. -1.
         21   -1    0    0  501  502 -0.00000000000E+00 -0.00000000000E+00 -0.15877804820E+03  0.15877804820E+03  0.00000000000E+00 0. -1.
      99926    2    1    2    0    0  0.00000000000E+00  0.71054273576E-14  0.10669429651E+03  0.42425039292E+03  0.41061505451E+03 0.  0.
      99925    2    3    3    0    0 -0.25233794382E+02 -0.39005317590E+02  0.11482149589E+03  0.29056524547E+03  0.26284220890E+03 0.  0.
         25    1    4    4    0    0  0.51561053533E+01 -0.51435785218E+02  0.77465849874E+02  0.15595092632E+03  0.12509000000E+03 0.  0.
         25    1    3    3    0    0  0.25233794382E+02  0.39005317590E+02 -0.81271993778E+01  0.13368514745E+03  0.12509000000E+03 0.  0.
         25    1    4    4    0    0 -0.30389899735E+02  0.12430467628E+02  0.37355646017E+02  0.13461431915E+03  0.12509000000E+03 0.  0.
<mgrwt>
<rscale>  2 0.41061505E+03</rscale>
<asrwt>0</asrwt>
<pdfrwt beam="1">  1       21 0.39040051E-01 0.41061505E+03</pdfrwt>
<pdfrwt beam="2">  1       21 0.23349713E-01 0.41061505E+03</pdfrwt>
<totfact> 0.10264259E+05</totfact>
</mgrwt>
</event>
<event>
 7    0  0.4725730E-002  0.4543152E+03  0.7546771E-02  0.1026443E+00
         21   -1    0    0  502  501  0.00000000000E+00  0.00000000000E+00  0.38995384037E+03  0.38995384037E+03  0.00000000000E+00 0. -1.
         21   -1    0    0  501  502 -0.00000000000E+00 -0.00000000000E+00 -0.13232480686E+03  0.13232480686E+03  0.00000000000E+00 0. -1.
      99926    2    1    2    0    0  0.00000000000E+00  0.00000000000E+00  0.25762903351E+03  0.52227864722E+03  0.45431516201E+03 0.  0.
      99925    2    3    3    0    0 -0.80434082066E+02  0.26143213207E+02  0.76777005852E+02  0.28667713372E+03  0.26293718112E+03 0.  0.
         25    1    3    3    0    0  0.80434082066E+02 -0.26143213207E+02  0.18085202766E+03  0.23560151350E+03  0.12509000000E+03 0.  0.
         25    1    4    4    0    0 -0.55896907061E+02  0.29579655090E+02  0.48080329984E+01  0.14024993938E+03  0.12509000000E+03 0.  0.
         25    1    4    4    0    0 -0.24537175006E+02 -0.34364418836E+01  0.71968972854E+02  0.14642719434E+03  0.12509000000E+03 0.  0.
<mgrwt>
<rscale>  2 0.45431516E+03</rscale>
<asrwt>0</asrwt>
<pdfrwt beam="1">  1       21 0.57346152E-01 0.45431516E+03</pdfrwt>
<pdfrwt beam="2">  1       21 0.19459531E-01 0.45431516E+03</pdfrwt>
<totfact> 0.64079386E+04</totfact>
</mgrwt>
</event>
<event>
 7    0  0.4725730E-002  0.4591550E+03  0.7546771E-02  0.1025027E+00
         21   -1    0    0  502  501  0.00000000000E+00  0.00000000000E+00  0.14333463685E+04  0.14333463685E+04  0.00000000000E+00 0. -1.
         21   -1    0    0  501  502 -0.00000000000E+00 -0.00000000000E+00 -0.36771171462E+02  0.36771171462E+02  0.00000000000E+00 0. -1.
      99926    2    1    2    0    0 -0.14210854715E-13  0.00000000000E+00  0.13965751970E+04  0.14701175399E+04  0.45915498508E+03 0.  0.
      99925    2    3    3    0    0 -0.10071535985E+03 -0.30757987217E+02  0.10393669000E+04  0.10772627155E+04  0.26291019004E+03 0.  0.
         25    1    4    4    0    0 -0.91241873067E+01 -0.43807152414E+01  0.43124117566E+03  0.44913127384E+03  0.12509000000E+03 0.  0.
         25    1    4    4    0    0 -0.91591172539E+02 -0.26377271975E+02  0.60812572430E+03  0.62813144168E+03  0.12509000000E+03 0.  0.
         25    1    3    3    0    0  0.10071535985E+03  0.30757987217E+02  0.35720829706E+03  0.39285482443E+03  0.12509000000E+03 0.  0.
<mgrwt>
<rscale>  2 0.45915499E+03</rscale>
<asrwt>0</asrwt>
<pdfrwt beam="1">  1       21 0.21078619E+00 0.45915499E+03</pdfrwt>
<pdfrwt beam="2">  1       21 0.54075262E-02 0.45915499E+03</pdfrwt>
<totfact> 0.23745371E+04</totfact>
</mgrwt>
</event>
<event>
 7    0  0.4725730E-002  0.4438997E+03  0.7546771E-02  0.1029557E+00
         21   -1    0    0  502  501  0.00000000000E+00  0.00000000000E+00  0.35116716328E+02  0.35116716328E+02  0.00000000000E+00 0. -1.
         21   -1    0    0  501  502 -0.00000000000E+00 -0.00000000000E+00 -0.14027999624E+04  0.14027999624E+04  0.00000000000E+00 0. -1.
      99926    2    1    2    0    0  0.71054273576E-14 -0.14210854715E-13 -0.13676832461E+04  0.14379166787E+04  0.44389966589E+03 0.  0.
      99925    2    3    3    0    0 -0.36116293682E+02  0.95839929987E+02 -0.87345637697E+03  0.91791919307E+03  0.26298274409E+03 0.  0.
         25    1    4    4    0    0 -0.31212151621E+02  0.85070966628E+02 -0.42524201683E+03  0.45242629096E+03  0.12509000000E+03 0.  0.
         25    1    3    3    0    0  0.36116293682E+02 -0.95839929987E+02 -0.49422686911E+03  0.51999748567E+03  0.12509000000E+03 0.  0.
         25    1    4    4    0    0 -0.49041420615E+01  0.10768963359E+02 -0.44821436013E+03  0.46549290210E+03  0.12509000000E+03 0.  0.
<mgrwt>
<rscale>  2 0.44389967E+03</rscale>
<asrwt>0</asrwt>
<pdfrwt beam="1">  1       21 0.51642225E-02 0.44389967E+03</pdfrwt>
<pdfrwt beam="2">  1       21 0.20629413E+00 0.44389967E+03</pdfrwt>
<totfact> 0.27647742E+04</totfact>
</mgrwt>
</event>
<event>
 7    0  0.4725730E-002  0.4561948E+03  0.7546771E-02  0.1025891E+00
         21   -1    0    0  502  501  0.00000000000E+00  0.00000000000E+00  0.17925700113E+03  0.17925700113E+03  0.00000000000E+00 0. -1.
         21   -1    0    0  501  502 -0.00000000000E+00 -0.00000000000E+00 -0.29024488354E+03  0.29024488354E+03  0.00000000000E+00 0. -1.
      99926    2    1    2    0    0  0.00000000000E+00  0.00000000000E+00 -0.11098788240E+03  0.46950188467E+03  0.45619481548E+03 0.  0.
      99925    2    3    3    0    0  0.28522744313E+02  0.10537550272E+03 -0.34780711552E+02  0.28682023670E+03  0.26294221184E+03 0.  0.
         25    1    4    4    0    0  0.44548790630E+02  0.75941572292E+02 -0.94391300093E+00  0.15297096529E+03  0.12509000000E+03 0.  0.
         25    1    4    4    0    0 -0.16026046316E+02  0.29433930432E+02 -0.33836798551E+02  0.13384927141E+03  0.12509000000E+03 0.  0.
         25    1    3    3    0    0 -0.28522744313E+02 -0.10537550272E+03 -0.76207170851E+02  0.18268164797E+03  0.12509000000E+03 0.  0.
<mgrwt>
<rscale>  2 0.45619482E+03</rscale>
<asrwt>0</asrwt>
<pdfrwt beam="1">  1       21 0.26361324E-01 0.45619482E+03</pdfrwt>
<pdfrwt beam="2">  1       21 0.42683071E-01 0.45619482E+03</pdfrwt>
<totfact> 0.66837124E+04</totfact>
</mgrwt>
</event>
<event>
 7    0  0.4725730E-002  0.4526443E+03  0.7546771E-02  0.1026936E+00
         21   -1    0    0  502  501  0.00000000000E+00  0.00000000000E+00  0.11035671562E+03  0.11035671562E+03  0.00000000000E+00 0.  1.
         21   -1    0    0  501  502 -0.00000000000E+00 -0.00000000000E+00 -0.46414681914E+03  0.46414681914E+03  0.00000000000E+00 0.  1.
      99926    2    1    2    0    0  0.00000000000E+00  0.00000000000E+00 -0.35379010352E+03  0.57450353475E+03  0.45264431301E+03 0.  0.
      99925    2    3    3    0    0 -0.10756845371E+03  0.85370869721E+01 -0.25595045770E+03  0.38250364288E+03  0.26297251934E+03 0.  0.
         25    1    4    4    0    0 -0.56869418543E+02 -0.72620953886E+01 -0.76609297237E+02  0.15749082931E+03  0.12509000000E+03 0.  0.
         25    1    3    3    0    0  0.10756845371E+03 -0.85370869721E+01 -0.97839645812E+02  0.19199989188E+03  0.12509000000E+03 0.  0.
         25    1    4    4    0    0 -0.50699035167E+02  0.15799182361E+02 -0.17934116047E+03  0.22501281356E+03  0.12509000000E+03 0.  0.
<mgrwt>
<rscale>  2 0.45264431E+03</rscale>
<asrwt>0</asrwt>
<pdfrwt beam="1">  1       21 0.16228929E-01 0.45264431E+03</pdfrwt>
<pdfrwt beam="2">  1       21 0.68256885E-01 0.45264431E+03</pdfrwt>
<totfact> 0.61411630E+04</totfact>
</mgrwt>
</event>
<event>
 7    0  0.4725730E-002  0.4511250E+03  0.7546771E-02  0.1027387E+00
         21   -1    0    0  502  501  0.00000000000E+00  0.00000000000E+00  0.14734740721E+03  0.14734740721E+03  0.00000000000E+00 0. -1.
         21   -1    0    0  501  502 -0.00000000000E+00 -0.00000000000E+00 -0.34529580258E+03  0.34529580258E+03  0.00000000000E+00 0. -1.
      99926    2    1    2    0    0  0.00000000000E+00  0.00000000000E+00 -0.19794839537E+03  0.49264320979E+03  0.45112499922E+03 0.  0.
      99925    2    3    3    0    0 -0.53277978373E+02 -0.37985305004E+02 -0.22092520027E+03  0.34961570181E+03  0.26294822392E+03 0.  0.
         25    1    4    4    0    0 -0.46276431558E+02  0.12147611844E+02 -0.13175085874E+03  0.18786928826E+03  0.12509000000E+03 0.  0.
         25    1    3    3    0    0  0.53277978373E+02  0.37985305004E+02  0.22976804897E+02  0.14302750798E+03  0.12509000000E+03 0.  0.
         25    1    4    4    0    0 -0.70015468149E+01 -0.50132916848E+02 -0.89174341524E+02  0.16174641355E+03  0.12509000000E+03 0.  0.
<mgrwt>
<rscale>  2 0.45112500E+03</rscale>
<asrwt>0</asrwt>
<pdfrwt beam="1">  1       21 0.21668736E-01 0.45112500E+03</pdfrwt>
<pdfrwt beam="2">  1       21 0.50778794E-01 0.45112500E+03</pdfrwt>
<totfact> 0.67854063E+04</totfact>
</mgrwt>
</event>
<event>
 7    0  0.4725730E-002  0.4550860E+03  0.7546771E-02  0.1026216E+00
         21   -1    0    0  502  501  0.00000000000E+00  0.00000000000E+00  0.14521901094E+04  0.14521901094E+04  0.00000000000E+00 0. -1.
         21   -1    0    0  501  502 -0.00000000000E+00 -0.00000000000E+00 -0.35653602520E+02  0.35653602520E+02  0.00000000000E+00 0. -1.
      99926    2    1    2    0    0  0.00000000000E+00  0.35527136788E-14  0.14165365069E+04  0.14878437119E+04  0.45508596526E+03 0.  0.
      99925    2    3    3    0    0 -0.51030483631E+02 -0.31780578265E+02  0.12043240866E+04  0.12342776755E+04  0.26349717115E+03 0.  0.
         25    1    4    4    0    0 -0.22484023562E+02  0.92960594331E+01  0.43639253047E+03  0.45461840789E+03  0.12509000000E+03 0.  0.
         25    1    3    3    0    0  0.51030483631E+02  0.31780578265E+02  0.21221242027E+03  0.25356603643E+03  0.12509000000E+03 0.  0.
         25    1    4    4    0    0 -0.28546460069E+02 -0.41076637698E+02  0.76793155611E+03  0.77965926758E+03  0.12509000000E+03 0.  0.
<mgrwt>
<rscale>  2 0.45508597E+03</rscale>
<asrwt>0</asrwt>
<pdfrwt beam="1">  1       21 0.21355733E+00 0.45508597E+03</pdfrwt>
<pdfrwt beam="2">  1       21 0.52431778E-02 0.45508597E+03</pdfrwt>
<totfact> 0.24062569E+04</totfact>
</mgrwt>
</event>
<event>
 7    0  0.4725730E-002  0.4166443E+03  0.7546771E-02  0.1038164E+00
         21   -1    0    0  502  501  0.00000000000E+00  0.00000000000E+00  0.69174282672E+03  0.69174282672E+03  0.00000000000E+00 0.  1.
         21   -1    0    0  501  502 -0.00000000000E+00 -0.00000000000E+00 -0.62737359859E+02  0.62737359859E+02  0.00000000000E+00 0.  1.
      99926    2    1    2    0    0  0.35527136788E-14 -0.71054273576E-14  0.62900546686E+03  0.75448018658E+03  0.41664430225E+03 0.  0.
      99925    2    3    3    0    0 -0.25319665460E+02  0.39646268190E+02  0.31350362878E+03  0.41184068218E+03  0.26289790833E+03 0.  0.
         25    1    3    3    0    0  0.25319665460E+02 -0.39646268190E+02  0.31550183808E+03  0.34263950440E+03  0.12509000000E+03 0.  0.
         25    1    4    4    0    0  0.16121899874E+02  0.85714805137E+01  0.19226095698E+03  0.23009817386E+03  0.12509000000E+03 0.  0.
         25    1    4    4    0    0 -0.41441565334E+02  0.31074787677E+02  0.12124267179E+03  0.18174250832E+03  0.12509000000E+03 0.  0.
<mgrwt>
<rscale>  2 0.41664430E+03</rscale>
<asrwt>0</asrwt>
<pdfrwt beam="1">  1       21 0.10172688E+00 0.41664430E+03</pdfrwt>
<pdfrwt beam="2">  1       21 0.92260827E-02 0.41664430E+03</pdfrwt>
<totfact> 0.68447663E+04</totfact>
</mgrwt>
</event>
<event>
 7    0  0.4725730E-002  0.4541855E+03  0.7546771E-02  0.1026481E+00
         21   -1    0    0  502  501  0.00000000000E+00  0.00000000000E+00  0.15799256712E+03  0.15799256712E+03  0.00000000000E+00 0. -1.
         21   -1    0    0  501  502 -0.00000000000E+00 -0.00000000000E+00 -0.32641477598E+03  0.32641477598E+03  0.00000000000E+00 0. -1.
      99926    2    1    2    0    0  0.00000000000E+00  0.00000000000E+00 -0.16842220886E+03  0.48440734311E+03  0.45418546170E+03 0.  0.
      99925    2    3    3    0    0 -0.80377096654E+02 -0.22737017533E+02 -0.25936118034E+02  0.27721843459E+03  0.26305879310E+03 0.  0.
         25    1    3    3    0    0  0.80377096654E+02  0.22737017533E+02 -0.14248609083E+03  0.20718890852E+03  0.12509000000E+03 0.  0.
         25    1    4    4    0    0 -0.15160660787E+02 -0.43732727112E+02 -0.12590165988E+02  0.13397170386E+03  0.12509000000E+03 0.  0.
         25    1    4    4    0    0 -0.65216435867E+02  0.20995709580E+02 -0.13345952046E+02  0.14324673073E+03  0.12509000000E+03 0.  0.
<mgrwt>
<rscale>  2 0.45418546E+03</rscale>
<asrwt>0</asrwt>
<pdfrwt beam="1">  1       21 0.23234201E-01 0.45418546E+03</pdfrwt>
<pdfrwt beam="2">  1       21 0.48002173E-01 0.45418546E+03</pdfrwt>
<totfact> 0.66811620E+04</totfact>
</mgrwt>
</event>
<event>
 7    0  0.4725730E-002  0.4649999E+03  0.7546771E-02  0.1023341E+00
         21   -1    0    0  502  501  0.00000000000E+00  0.00000000000E+00  0.10046366361E+03  0.10046366361E+03  0.00000000000E+00 0. -1.
         21   -1    0    0  501  502 -0.00000000000E+00 -0.00000000000E+00 -0.53806736550E+03  0.53806736550E+03  0.00000000000E+00 0. -1.
      99926    2    1    2    0    0  0.00000000000E+00  0.00000000000E+00 -0.43760370189E+03  0.63853102911E+03  0.46499986583E+03 0.  0.
      99925    2    3    3    0    0  0.86811435796E+02  0.83729044786E+02 -0.30077665897E+03  0.41736157801E+03  0.26301579780E+03 0.  0.
         25    1    4    4    0    0  0.56214861302E+01  0.58087523225E+02 -0.14393335981E+03  0.19942437571E+03  0.12509000000E+03 0.  0.
         25    1    3    3    0    0 -0.86811435796E+02 -0.83729044786E+02 -0.13682704292E+03  0.22116945110E+03  0.12509000000E+03 0.  0.
         25    1    4    4    0    0  0.81189949666E+02  0.25641521561E+02 -0.15684329916E+03  0.21793720230E+03  0.12509000000E+03 0.  0.
<mgrwt>
<rscale>  2 0.46499987E+03</rscale>
<asrwt>0</asrwt>
<pdfrwt beam="1">  1       21 0.14774068E-01 0.46499987E+03</pdfrwt>
<pdfrwt beam="2">  1       21 0.79127553E-01 0.46499987E+03</pdfrwt>
<totfact> 0.52129382E+04</totfact>
</mgrwt>
</event>
<event>
 7    0  0.4725730E-002  0.4514454E+03  0.7546771E-02  0.1027292E+00
         21   -1    0    0  502  501  0.00000000000E+00  0.00000000000E+00  0.10285361556E+03  0.10285361556E+03  0.00000000000E+00 0.  1.
         21   -1    0    0  501  502 -0.00000000000E+00 -0.00000000000E+00 -0.49537129810E+03  0.49537129810E+03  0.00000000000E+00 0.  1.
      99926    2    1    2    0    0 -0.14210854715E-13  0.35527136788E-14 -0.39251768254E+03  0.59822491365E+03  0.45144536348E+03 0.  0.
      99925    2    3    3    0    0  0.93058720143E+02 -0.24463553931E+02 -0.17735715314E+03  0.33139172161E+03  0.26288119468E+03 0.  0.
         25    1    4    4    0    0  0.16733312829E+02 -0.31760355596E+02 -0.59017449826E+02  0.14289608613E+03  0.12509000000E+03 0.  0.
         25    1    4    4    0    0  0.76325407313E+02  0.72968016651E+01 -0.11833970332E+03  0.18849563549E+03  0.12509000000E+03 0.  0.
         25    1    3    3    0    0 -0.93058720143E+02  0.24463553931E+02 -0.21516052940E+03  0.26683319204E+03  0.12509000000E+03 0.  0.
<mgrwt>
<rscale>  2 0.45144536E+03</rscale>
<asrwt>0</asrwt>
<pdfrwt beam="1">  1       21 0.15125532E-01 0.45144536E+03</pdfrwt>
<pdfrwt beam="2">  1       21 0.72848720E-01 0.45144536E+03</pdfrwt>
<totfact> 0.60468224E+04</totfact>
</mgrwt>
</event>
<event>
 7    0  0.4725730E-002  0.4328057E+03  0.7546771E-02  0.1032977E+00
         21   -1    0    0  502  501  0.00000000000E+00  0.00000000000E+00  0.12889510788E+03  0.12889510788E+03  0.00000000000E+00 0. -1.
         21   -1    0    0  501  502 -0.00000000000E+00 -0.00000000000E+00 -0.36332019872E+03  0.36332019872E+03  0.00000000000E+00 0. -1.
      99926    2    1    2    0    0  0.00000000000E+00  0.17763568394E-14 -0.23442509084E+03  0.49221530660E+03  0.43280571258E+03 0.  0.
      99925    2    3    3    0    0  0.75223302375E+02  0.15636663668E+02 -0.95503094154E+02  0.29010177481E+03  0.26293563525E+03 0.  0.
         25    1    4    4    0    0  0.53851457127E+02  0.16656811400E+02 -0.87945232316E+02  0.16297024510E+03  0.12509000000E+03 0.  0.
         25    1    4    4    0    0  0.21371845248E+02 -0.10201477316E+01 -0.75578618384E+01  0.12713152971E+03  0.12509000000E+03 0.  0.
         25    1    3    3    0    0 -0.75223302375E+02 -0.15636663668E+02 -0.13892199668E+03  0.20211353179E+03  0.12509000000E+03 0.  0.
<mgrwt>
<rscale>  2 0.43280571E+03</rscale>
<asrwt>0</asrwt>
<pdfrwt beam="1">  1       21 0.18955163E-01 0.43280571E+03</pdfrwt>
<pdfrwt beam="2">  1       21 0.53429440E-01 0.43280571E+03</pdfrwt>
<totfact> 0.78816789E+04</totfact>
</mgrwt>
</event>
<event>
 7    0  0.4725730E-002  0.4571527E+03  0.7546771E-02  0.1025610E+00
         21   -1    0    0  502  501  0.00000000000E+00  0.00000000000E+00  0.28994535560E+03  0.28994535560E+03  0.00000000000E+00 0. -1.
         21   -1    0    0  501  502 -0.00000000000E+00 -0.00000000000E+00 -0.18019654908E+03  0.18019654908E+03  0.00000000000E+00 0. -1.
      99926    2    1    2    0    0  0.17763568394E-14 -0.14210854715E-13  0.10974880652E+03  0.47014190467E+03  0.45715272065E+03 0.  0.
      99925    2    3    3    0    0  0.15201755681E+02  0.10070115207E+03  0.12513454453E+03  0.30810473475E+03  0.26248439560E+03 0.  0.
         25    1    4    4    0    0 -0.55057836080E+01  0.81245085302E+02  0.41320478422E+02  0.15487403777E+03  0.12509000000E+03 0.  0.
         25    1    4    4    0    0  0.20707539289E+02  0.19456066768E+02  0.83814066108E+02  0.15323069697E+03  0.12509000000E+03 0.  0.
         25    1    3    3    0    0 -0.15201755681E+02 -0.10070115207E+03 -0.15385738009E+02  0.16203716993E+03  0.12509000000E+03 0.  0.
<mgrwt>
<rscale>  2 0.45715272E+03</rscale>
<asrwt>0</asrwt>
<pdfrwt beam="1">  1       21 0.42639023E-01 0.45715272E+03</pdfrwt>
<pdfrwt beam="2">  1       21 0.26499492E-01 0.45715272E+03</pdfrwt>
<totfact> 0.66286059E+04</totfact>
</mgrwt>
</event>
<event>
 7    0  0.4725730E-002  0.4541933E+03  0.7546771E-02  0.1026479E+00
         21   -1    0    0  502  501  0.00000000000E+00  0.00000000000E+00  0.17128057245E+03  0.17128057245E+03  0.00000000000E+00 0. -1.
         21   -1    0    0  501  502 -0.00000000000E+00 -0.00000000000E+00 -0.30110179664E+03  0.30110179664E+03  0.00000000000E+00 0. -1.
      99926    2    1    2    0    0  0.00000000000E+00  0.71054273576E-14 -0.12982122419E+03  0.47238236909E+03  0.45419329848E+03 0.  0.
      99925    2    3    3    0    0  0.62572660471E+02  0.57032041393E+02 -0.47697599897E+01  0.27628706476E+03  0.26295208681E+03 0.  0.
         25    1    4    4    0    0  0.47910618169E+02  0.65424013761E+02  0.88001197147E+01  0.14933411906E+03  0.12509000000E+03 0.  0.
         25    1    3    3    0    0 -0.62572660471E+02 -0.57032041393E+02 -0.12505146420E+03  0.19609530434E+03  0.12509000000E+03 0.  0.
         25    1    4    4    0    0  0.14662042302E+02 -0.83919723677E+01 -0.13569879704E+02  0.12695294569E+03  0.12509000000E+03 0.  0.
<mgrwt>
<rscale>  2 0.45419330E+03</rscale>
<asrwt>0</asrwt>
<pdfrwt beam="1">  1       21 0.25188320E-01 0.45419330E+03</pdfrwt>
<pdfrwt beam="2">  1       21 0.44279675E-01 0.45419330E+03</pdfrwt>
<totfact> 0.67691231E+04</totfact>
</mgrwt>
</event>
<event>
 7    0  0.4725730E-002  0.4527087E+03  0.7546771E-02  0.1026917E+00
         21   -1    0    0  502  501  0.00000000000E+00  0.00000000000E+00  0.12077831562E+04  0.12077831562E+04  0.00000000000E+00 0. -1.
         21   -1    0    0  501  502 -0.00000000000E+00 -0.00000000000E+00 -0.42421768367E+02  0.42421768367E+02  0.00000000000E+00 0. -1.
      99926    2    1    2    0    0  0.00000000000E+00  0.00000000000E+00  0.11653613878E+04  0.12502049245E+04  0.45270872441E+03 0.  0.
      99925    2    3    3    0    0  0.40997929005E+02  0.65065288536E+02  0.95571696440E+03  0.99425060377E+03  0.26310649005E+03 0.  0.
         25    1    3    3    0    0 -0.40997929005E+02 -0.65065288536E+02  0.20964442341E+03  0.25595432077E+03  0.12509000000E+03 0.  0.
         25    1    4    4    0    0 -0.17597540828E+02  0.31191432825E+02  0.51328412509E+03  0.52951929152E+03  0.12509000000E+03 0.  0.
         25    1    4    4    0    0  0.58595469834E+02  0.33873855711E+02  0.44243283931E+03  0.46473131225E+03  0.12509000000E+03 0.  0.
<mgrwt>
<rscale>  2 0.45270872E+03</rscale>
<asrwt>0</asrwt>
<pdfrwt beam="1">  1       21 0.17761515E+00 0.45270872E+03</pdfrwt>
<pdfrwt beam="2">  1       21 0.62384961E-02 0.45270872E+03</pdfrwt>
<totfact> 0.31147675E+04</totfact>
</mgrwt>
</event>
<event>
 7    0  0.4725730E-002  0.4542157E+03  0.7546771E-02  0.1026472E+00
         21   -1    0    0  502  501  0.00000000000E+00  0.00000000000E+00  0.33197121524E+03  0.33197121524E+03  0.00000000000E+00 0. -1.
         21   -1    0    0  501  502 -0.00000000000E+00 -0.00000000000E+00 -0.15536884223E+03  0.15536884223E+03  0.00000000000E+00 0. -1.
      99926    2    1    2    0    0  0.00000000000E+00  0.00000000000E+00  0.17660237301E+03  0.48734005748E+03  0.45421573450E+03 0.  0.
      99925    2    3    3    0    0 -0.15259320187E+02  0.10826932292E+03  0.83290986241E+02  0.29678923450E+03  0.26304252163E+03 0.  0.
         25    1    4    4    0    0  0.30654817349E+02  0.51548344246E+02  0.55011414265E+02  0.14923375429E+03  0.12509000000E+03 0.  0.
         25    1    4    4    0    0 -0.45914137537E+02  0.56720978670E+02  0.28279571976E+02  0.14755548020E+03  0.12509000000E+03 0.  0.
         25    1    3    3    0    0  0.15259320187E+02 -0.10826932292E+03  0.93311386766E+02  0.19055082298E+03  0.12509000000E+03 0.  0.
<mgrwt>
<rscale>  2 0.45421573E+03</rscale>
<asrwt>0</asrwt>
<pdfrwt beam="1">  1       21 0.48819297E-01 0.45421573E+03</pdfrwt>
<pdfrwt beam="2">  1       21 0.22848359E-01 0.45421573E+03</pdfrwt>
<totfact> 0.66583137E+04</totfact>
</mgrwt>
</event>
<event>
 7    0  0.4725730E-002  0.4466106E+03  0.7546771E-02  0.1028738E+00
         21   -1    0    0  502  501  0.00000000000E+00  0.00000000000E+00  0.74850398772E+02  0.74850398772E+02  0.00000000000E+00 0.  1.
         21   -1    0    0  501  502 -0.00000000000E+00 -0.00000000000E+00 -0.66619896638E+03  0.66619896638E+03  0.00000000000E+00 0.  1.
      99926    2    1    2    0    0  0.00000000000E+00  0.00000000000E+00 -0.59134856760E+03  0.74104936515E+03  0.44661060576E+03 0.  0.
      99925    2    3    3    0    0 -0.31439243393E+01  0.86736267445E+02 -0.47333232843E+03  0.54841394483E+03  0.26302337805E+03 0.  0.
         25    1    4    4    0    0 -0.41112421630E+02  0.41408128294E+02 -0.21861318060E+03  0.25854225019E+03  0.12509000000E+03 0.  0.
         25    1    3    3    0    0  0.31439243393E+01 -0.86736267445E+02 -0.11801623918E+03  0.19263542032E+03  0.12509000000E+03 0.  0.
         25    1    4    4    0    0  0.37968497291E+02  0.45328139151E+02 -0.25471914783E+03  0.28987169464E+03  0.12509000000E+03 0.  0.
<mgrwt>
<rscale>  2 0.44661061E+03</rscale>
<asrwt>0</asrwt>
<pdfrwt beam="1">  1       21 0.11007412E-01 0.44661061E+03</pdfrwt>
<pdfrwt beam="2">  1       21 0.97970435E-01 0.44661061E+03</pdfrwt>
<totfact> 0.54218509E+04</totfact>
</mgrwt>
</event>
<event>
 7    0  0.4725730E-002  0.3941159E+03  0.7546771E-02  0.1045836E+00
         21   -1    0    0  502  501  0.00000000000E+00  0.00000000000E+00  0.10546110542E+03  0.10546110542E+03  0.00000000000E+00 0.  1.
         21   -1    0    0  501  502 -0.00000000000E+00 -0.00000000000E+00 -0.36820996731E+03  0.36820996731E+03  0.00000000000E+00 0.  1.
      99926    2    1    2    0    0  0.00000000000E+00  0.00000000000E+00 -0.26274886190E+03  0.47367107273E+03  0.39411587219E+03 0.  0.
      99925    2    3    3    0    0 -0.20018978332E+02  0.20429627660E+02 -0.19480211594E+03  0.32847328498E+03  0.26292338312E+03 0.  0.
         25    1    4    4    0    0 -0.46602228581E+02 -0.68196427361E+01 -0.95052370245E+02  0.16401443968E+03  0.12509000000E+03 0.  0.
         25    1    4    4    0    0  0.26583250249E+02  0.27249270396E+02 -0.99749745692E+02  0.16445884530E+03  0.12509000000E+03 0.  0.
         25    1    3    3    0    0  0.20018978332E+02 -0.20429627660E+02 -0.67946745959E+02  0.14519778775E+03  0.12509000000E+03 0.  0.
<mgrwt>
<rscale>  2 0.39411587E+03</rscale>
<asrwt>0</asrwt>
<pdfrwt beam="1">  1       21 0.15508986E-01 0.39411587E+03</pdfrwt>
<pdfrwt beam="2">  1       21 0.54148524E-01 0.39411587E+03</pdfrwt>
<totfact> 0.11240925E+05</totfact>
</mgrwt>
</event>
<event>
 7    0  0.4725730E-002  0.4583310E+03  0.7546771E-02  0.1025266E+00
         21   -1    0    0  502  501  0.00000000000E+00  0.00000000000E+00  0.46510053260E+03  0.46510053260E+03  0.00000000000E+00 0.  1.
         21   -1    0    0  501  502 -0.00000000000E+00 -0.00000000000E+00 -0.11291501675E+03  0.11291501675E+03  0.00000000000E+00 0.  1.
      99926    2    1    2    0    0  0.00000000000E+00  0.00000000000E+00  0.35218551586E+03  0.57801554935E+03  0.45833103507E+03 0.  0.
      99925    2    3    3    0    0 -0.90348291002E+02 -0.30896871728E+02  0.13731182797E+03  0.31167809382E+03  0.26300430738E+03 0.  0.
         25    1    4    4    0    0 -0.43618605928E+02  0.98750292527E+00  0.10887107292E+03  0.17147587750E+03  0.12509000000E+03 0.  0.
         25    1    3    3    0    0  0.90348291002E+02  0.30896871728E+02  0.21487368789E+03  0.26633745553E+03  0.12509000000E+03 0.  0.
         25    1    4    4    0    0 -0.46729685074E+02 -0.31884374653E+02  0.28440755044E+02  0.14020221632E+03  0.12509000000E+03 0.  0.
<mgrwt>
<rscale>  2 0.45833104E+03</rscale>
<asrwt>0</asrwt>
<pdfrwt beam="1">  1       21 0.68397136E-01 0.45833104E+03</pdfrwt>
<pdfrwt beam="2">  1       21 0.16605150E-01 0.45833104E+03</pdfrwt>
<totfact> 0.58496448E+04</totfact>
</mgrwt>
</event>
<event>
 7    0  0.4725730E-002  0.4581896E+03  0.7546771E-02  0.1025308E+00
         21   -1    0    0  502  501  0.00000000000E+00  0.00000000000E+00  0.61222128153E+02  0.61222128153E+02  0.00000000000E+00 0.  1.
         21   -1    0    0  501  502 -0.00000000000E+00 -0.00000000000E+00 -0.85727865870E+03  0.85727865870E+03  0.00000000000E+00 0.  1.
      99926    2    1    2    0    0  0.00000000000E+00  0.00000000000E+00 -0.79605653055E+03  0.91850078685E+03  0.45818958480E+03 0.  0.
      99925    2    3    3    0    0 -0.58891356401E+02 -0.22156993593E+02 -0.30379410753E+03  0.40671086370E+03  0.26299000487E+03 0.  0.
         25    1    4    4    0    0 -0.11727297034E+02 -0.13478955685E+02 -0.20278088761E+03  0.23892845838E+03  0.12509000000E+03 0.  0.
         25    1    3    3    0    0  0.58891356401E+02  0.22156993593E+02 -0.49226242302E+03  0.51178992315E+03  0.12509000000E+03 0.  0.
         25    1    4    4    0    0 -0.47164059367E+02 -0.86780379075E+01 -0.10101321991E+03  0.16778240532E+03  0.12509000000E+03 0.  0.
<mgrwt>
<rscale>  2 0.45818958E+03</rscale>
<asrwt>0</asrwt>
<pdfrwt beam="1">  1       21 0.90032545E-02 0.45818958E+03</pdfrwt>
<pdfrwt beam="2">  1       21 0.12607039E+00 0.45818958E+03</pdfrwt>
<totfact> 0.41400240E+04</totfact>
</mgrwt>
</event>
<event>
 7    0  0.4725730E-002  0.4527044E+03  0.7546771E-02  0.1026919E+00
         21   -1    0    0  502  501  0.00000000000E+00  0.00000000000E+00  0.23219564005E+03  0.23219564005E+03  0.00000000000E+00 0. -1.
         21   -1    0    0  501  502 -0.00000000000E+00 -0.00000000000E+00 -0.22065584379E+03  0.22065584379E+03  0.00000000000E+00 0. -1.
      99926    2    1    2    0    0  0.00000000000E+00  0.00000000000E+00  0.11539796261E+02  0.45285148384E+03  0.45270442842E+03 0.  0.
      99925    2    3    3    0    0 -0.46908401222E+02  0.85079171229E+02  0.60820278137E+02  0.28697521225E+03  0.26309086402E+03 0.  0.
         25    1    4    4    0    0 -0.13285686813E+02  0.82157925983E+02  0.22932837133E+02  0.15198637240E+03  0.12509000000E+03 0.  0.
         25    1    4    4    0    0 -0.33622714409E+02  0.29212452461E+01  0.37887441003E+02  0.13498883985E+03  0.12509000000E+03 0.  0.
         25    1    3    3    0    0  0.46908401222E+02 -0.85079171229E+02 -0.49280481876E+02  0.16587627159E+03  0.12509000000E+03 0.  0.
<mgrwt>
<rscale>  2 0.45270443E+03</rscale>
<asrwt>0</asrwt>
<pdfrwt beam="1">  1       21 0.34146418E-01 0.45270443E+03</pdfrwt>
<pdfrwt beam="2">  1       21 0.32449389E-01 0.45270443E+03</pdfrwt>
<totfact> 0.69976432E+04</totfact>
</mgrwt>
</event>
<event>
 7    0  0.4725730E-002  0.4572261E+03  0.7546771E-02  0.1025589E+00
         21   -1    0    0  502  501  0.00000000000E+00  0.00000000000E+00  0.17587944386E+03  0.17587944386E+03  0.00000000000E+00 0. -1.
         21   -1    0    0  501  502 -0.00000000000E+00 -0.00000000000E+00 -0.29715761220E+03  0.29715761220E+03  0.00000000000E+00 0. -1.
      99926    2    1    2    0    0  0.35527136788E-14 -0.71054273576E-14 -0.12127816834E+03  0.47303705606E+03  0.45722605163E+03 0.  0.
      99925    2    3    3    0    0 -0.23508554049E+02 -0.62656878992E+02 -0.17342466405E+03  0.32189043284E+03  0.26279041088E+03 0.  0.
         25    1    3    3    0    0  0.23508554049E+02  0.62656878992E+02  0.52146495705E+02  0.15114662323E+03  0.12509000000E+03 0.  0.
         25    1    4    4    0    0 -0.37085610127E+02 -0.33716664770E+02 -0.12557884216E+03  0.18420018909E+03  0.12509000000E+03 0.  0.
         25    1    4    4    0    0  0.13577056078E+02 -0.28940214222E+02 -0.47845821886E+02  0.13769024375E+03  0.12509000000E+03 0.  0.
<mgrwt>
<rscale>  2 0.45722605E+03</rscale>
<asrwt>0</asrwt>
<pdfrwt beam="1">  1       21 0.25864625E-01 0.45722605E+03</pdfrwt>
<pdfrwt beam="2">  1       21 0.43699648E-01 0.45722605E+03</pdfrwt>
<totfact> 0.66036553E+04</totfact>
</mgrwt>
</event>
<event>
 7    0  0.4725730E-002  0.4463864E+03  0.7546771E-02  0.1028805E+00
         21   -1    0    0  502  501  0.00000000000E+00  0.00000000000E+00  0.36551530790E+03  0.36551530790E+03  0.00000000000E+00 0. -1.
         21   -1    0    0  501  502 -0.00000000000E+00 -0.00000000000E+00 -0.13628759245E+03  0.13628759245E+03  0.00000000000E+00 0. -1.
      99926    2    1    2    0    0  0.00000000000E+00 -0.71054273576E-14  0.22922771546E+03  0.50180290035E+03  0.44638638562E+03 0.  0.
      99925    2    3    3    0    0 -0.85438614752E+02  0.59317028975E+02  0.15998389071E+03  0.32499655945E+03  0.26307727297E+03 0.  0.
         25    1    3    3    0    0  0.85438614752E+02 -0.59317028975E+02  0.69243824751E+02  0.17680634090E+03  0.12509000000E+03 0.  0.
         25    1    4    4    0    0 -0.66094568227E+02  0.42069292248E+02  0.48268078080E+02  0.15529208853E+03  0.12509000000E+03 0.  0.
         25    1    4    4    0    0 -0.19344046525E+02  0.17247736727E+02  0.11171581263E+03  0.16970447092E+03  0.12509000000E+03 0.  0.
<mgrwt>
<rscale>  2 0.44638639E+03</rscale>
<asrwt>0</asrwt>
<pdfrwt beam="1">  1       21 0.53752251E-01 0.44638639E+03</pdfrwt>
<pdfrwt beam="2">  1       21 0.20042293E-01 0.44638639E+03</pdfrwt>
<totfact> 0.69795111E+04</totfact>
</mgrwt>
</event>
<event>
 7    0  0.4725730E-002  0.4648588E+03  0.7546771E-02  0.1023381E+00
         21   -1    0    0  502  501  0.00000000000E+00  0.00000000000E+00  0.44761785580E+03  0.44761785580E+03  0.00000000000E+00 0.  1.
         21   -1    0    0  501  502 -0.00000000000E+00 -0.00000000000E+00 -0.12069093922E+03  0.12069093922E+03  0.00000000000E+00 0.  1.
      99926    2    1    2    0    0 -0.71054273576E-14  0.00000000000E+00  0.32692691658E+03  0.56830879502E+03  0.46485877179E+03 0.  0.
      99925    2    3    3    0    0  0.41986793211E+02  0.10449278559E+03  0.26194630394E+03  0.38788811670E+03  0.26298230337E+03 0.  0.
         25    1    3    3    0    0 -0.41986793211E+02 -0.10449278559E+03  0.64980612641E+02  0.18042067831E+03  0.12509000000E+03 0.  0.
         25    1    4    4    0    0  0.39529492922E+02  0.55873788850E+02  0.18360238109E+03  0.23246893026E+03  0.12509000000E+03 0.  0.
         25    1    4    4    0    0  0.24573002898E+01  0.48618996738E+02  0.78343922848E+02  0.15541918645E+03  0.12509000000E+03 0.  0.
<mgrwt>
<rscale>  2 0.46485877E+03</rscale>
<asrwt>0</asrwt>
<pdfrwt beam="1">  1       21 0.65826154E-01 0.46485877E+03</pdfrwt>
<pdfrwt beam="2">  1       21 0.17748668E-01 0.46485877E+03</pdfrwt>
<totfact> 0.56163902E+04</totfact>
</mgrwt>
</event>
<event>
 7    0  0.4725730E-002  0.4607520E+03  0.7546771E-02  0.1024563E+00
         21   -1    0    0  502  501  0.00000000000E+00  0.00000000000E+00  0.73987414616E+02  0.73987414616E+02  0.00000000000E+00 0.  1.
         21   -1    0    0  501  502 -0.00000000000E+00 -0.00000000000E+00 -0.71732607840E+03  0.71732607840E+03  0.00000000000E+00 0.  1.
      99926    2    1    2    0    0  0.00000000000E+00  0.00000000000E+00 -0.64333866378E+03  0.79131349301E+03  0.46075200261E+03 0.  0.
      99925    2    3    3    0    0  0.55602558898E+02  0.40988538852E+02 -0.56809773779E+03  0.62981918996E+03  0.26299328412E+03 0.  0.
         25    1    4    4    0    0 -0.68271666378E+01  0.39428055700E+02 -0.25158428348E+03  0.28380158839E+03  0.12509000000E+03 0.  0.
         25    1    4    4    0    0  0.62429725536E+02  0.15604831520E+01 -0.31651345431E+03  0.34601760157E+03  0.12509000000E+03 0.  0.
         25    1    3    3    0    0 -0.55602558898E+02 -0.40988538852E+02 -0.75240925992E+02  0.16149430305E+03  0.12509000000E+03 0.  0.
<mgrwt>
<rscale>  2 0.46075200E+03</rscale>
<asrwt>0</asrwt>
<pdfrwt beam="1">  1       21 0.10880502E-01 0.46075200E+03</pdfrwt>
<pdfrwt beam="2">  1       21 0.10548913E+00 0.46075200E+03</pdfrwt>
<totfact> 0.46072503E+04</totfact>
</mgrwt>
</event>
<event>
 7    0  0.4725730E-002  0.4553196E+03  0.7546771E-02  0.1026147E+00
         21   -1    0    0  502  501  0.00000000000E+00  0.00000000000E+00  0.38847394070E+03  0.38847394070E+03  0.00000000000E+00 0. -1.
         21   -1    0    0  501  502 -0.00000000000E+00 -0.00000000000E+00 -0.13341689012E+03  0.13341689012E+03  0.00000000000E+00 0. -1.
      99926    2    1    2    0    0  0.00000000000E+00  0.00000000000E+00  0.25505705058E+03  0.52189083082E+03  0.45531960230E+03 0.  0.
      99925    2    3    3    0    0 -0.43266293252E+02 -0.74387034018E+02  0.75207291189E+02  0.28652123419E+03  0.26274108555E+03 0.  0.
         25    1    4    4    0    0 -0.85637700292E+01 -0.16863203053E+02  0.14535801311E+01  0.12652006469E+03  0.12509000000E+03 0.  0.
         25    1    3    3    0    0  0.43266293252E+02  0.74387034018E+02  0.17984975940E+03  0.23536959663E+03  0.12509000000E+03 0.  0.
         25    1    4    4    0    0 -0.34702523223E+02 -0.57523830965E+02  0.73753711058E+02  0.16000116950E+03  0.12509000000E+03 0.  0.
<mgrwt>
<rscale>  2 0.45531960E+03</rscale>
<asrwt>0</asrwt>
<pdfrwt beam="1">  1       21 0.57128520E-01 0.45531960E+03</pdfrwt>
<pdfrwt beam="2">  1       21 0.19620131E-01 0.45531960E+03</pdfrwt>
<totfact> 0.63597202E+04</totfact>
</mgrwt>
</event>
<event>
 7    0  0.4725730E-002  0.4448542E+03  0.7546771E-02  0.1029268E+00
         21   -1    0    0  502  501  0.00000000000E+00  0.00000000000E+00  0.12642512058E+03  0.12642512058E+03  0.00000000000E+00 0.  1.
         21   -1    0    0  501  502 -0.00000000000E+00 -0.00000000000E+00 -0.39132900865E+03  0.39132900865E+03  0.00000000000E+00 0.  1.
      99926    2    1    2    0    0 -0.14210854715E-13  0.00000000000E+00 -0.26490388807E+03  0.51775412924E+03  0.44485421031E+03 0.  0.
      99925    2    3    3    0    0  0.83798359502E+02 -0.12726233385E+02 -0.99558449308E+02  0.29376586104E+03  0.26306344142E+03 0.  0.
         25    1    4    4    0    0  0.70087242948E+02 -0.28512028089E+02 -0.76008611118E+02  0.16477249295E+03  0.12509000000E+03 0.  0.
         25    1    3    3    0    0 -0.83798359502E+02  0.12726233385E+02 -0.16534543876E+03  0.22398826820E+03  0.12509000000E+03 0.  0.
         25    1    4    4    0    0  0.13711116554E+02  0.15785794704E+02 -0.23549838190E+02  0.12899336809E+03  0.12509000000E+03 0.  0.
<mgrwt>
<rscale>  2 0.44485421E+03</rscale>
<asrwt>0</asrwt>
<pdfrwt beam="1">  1       21 0.18591930E-01 0.44485421E+03</pdfrwt>
<pdfrwt beam="2">  1       21 0.57548383E-01 0.44485421E+03</pdfrwt>
<totfact> 0.69463511E+04</totfact>
</mgrwt>
</event>
<event>
 7    0  0.4725730E-002  0.4591534E+03  0.7546771E-02  0.1025027E+00
         21   -1    0    0  502  501  0.00000000000E+00  0.00000000000E+00  0.10863027032E+03  0.10863027032E+03  0.00000000000E+00 0.  1.
         21   -1    0    0  501  502 -0.00000000000E+00 -0.00000000000E+00 -0.48518218777E+03  0.48518218777E+03  0.00000000000E+00 0.  1.
      99926    2    1    2    0    0  0.00000000000E+00 -0.17763568394E-14 -0.37655191745E+03  0.59381245810E+03  0.45915344805E+03 0.  0.
      99925    2    3    3    0    0 -0.11397129961E+03  0.10065381599E+02 -0.26724071899E+03  0.39210173639E+03  0.26312620689E+03 0.  0.
         25    1    3    3    0    0  0.11397129961E+03 -0.10065381599E+02 -0.10931119846E+03  0.20171072171E+03  0.12509000000E+03 0.  0.
         25    1    4    4    0    0 -0.25959779914E+02  0.33682357963E+02 -0.12643990475E+03  0.18287418906E+03  0.12509000000E+03 0.  0.
         25    1    4    4    0    0 -0.88011519697E+02 -0.23616976364E+02 -0.14080081424E+03  0.20922754733E+03  0.12509000000E+03 0.  0.
<mgrwt>
<rscale>  2 0.45915345E+03</rscale>
<asrwt>0</asrwt>
<pdfrwt beam="1">  1       21 0.15975040E-01 0.45915345E+03</pdfrwt>
<pdfrwt beam="2">  1       21 0.71350322E-01 0.45915345E+03</pdfrwt>
<totfact> 0.57161262E+04</totfact>
</mgrwt>
</event>
<event>
 7    0  0.4725730E-002  0.4598869E+03  0.7546771E-02  0.1024814E+00
         21   -1    0    0  502  501  0.00000000000E+00  0.00000000000E+00  0.38140367646E+02  0.38140367646E+02  0.00000000000E+00 0. -1.
         21   -1    0    0  501  502 -0.00000000000E+00 -0.00000000000E+00 -0.13862998022E+04  0.13862998022E+04  0.00000000000E+00 0. -1.
      99926    2    1    2    0    0  0.35527136788E-14  0.71054273576E-14 -0.13481594346E+04  0.14244401699E+04  0.45988687359E+03 0.  0.
      99925    2    3    3    0    0 -0.30745142662E+02  0.56154513622E+02 -0.53528396285E+03  0.59950827339E+03  0.26226447677E+03 0.  0.
         25    1    3    3    0    0  0.30745142662E+02 -0.56154513622E+02 -0.81287547173E+03  0.82493189648E+03  0.12509000000E+03 0.  0.
         25    1    4    4    0    0 -0.13505946182E+02  0.49515554789E+02 -0.34981807136E+03  0.37503918715E+03  0.12509000000E+03 0.  0.
         25    1    4    4    0    0 -0.17239196480E+02  0.66389588333E+01 -0.18546589149E+03  0.22446908624E+03  0.12509000000E+03 0.  0.
<mgrwt>
<rscale>  2 0.45988687E+03</rscale>
<asrwt>0</asrwt>
<pdfrwt beam="1">  1       21 0.56088772E-02 0.45988687E+03</pdfrwt>
<pdfrwt beam="2">  1       21 0.20386763E+00 0.45988687E+03</pdfrwt>
<totfact> 0.24735269E+04</totfact>
</mgrwt>
</event>
<event>
 7    0  0.4725730E-002  0.4514790E+03  0.7546771E-02  0.1027282E+00
         21   -1    0    0  502  501  0.00000000000E+00  0.00000000000E+00  0.63096939179E+03  0.63096939179E+03  0.00000000000E+00 0. -1.
         21   -1    0    0  501  502 -0.00000000000E+00 -0.00000000000E+00 -0.80761944267E+02  0.80761944267E+02  0.00000000000E+00 0. -1.
      99926    2    1    2    0    0  0.17763568394E-14  0.00000000000E+00  0.55020744752E+03  0.71173133605E+03  0.45147896896E+03 0.  0.
      99925    2    3    3    0    0  0.55335025523E+01 -0.53015557759E+02  0.49918262011E+03  0.56649941764E+03  0.26248244312E+03 0.  0.
         25    1    4    4    0    0 -0.32606044082E+02 -0.34671793377E+02  0.21715972121E+03  0.25509045451E+03  0.12509000000E+03 0.  0.
         25    1    3    3    0    0 -0.55335025523E+01  0.53015557759E+02  0.51024827406E+02  0.14523191842E+03  0.12509000000E+03 0.  0.
         25    1    4    4    0    0  0.38139546634E+02 -0.18343764382E+02  0.28202289890E+03  0.31140896313E+03  0.12509000000E+03 0.  0.
<mgrwt>
<rscale>  2 0.45147897E+03</rscale>
<asrwt>0</asrwt>
<pdfrwt beam="1">  1       21 0.92789614E-01 0.45147897E+03</pdfrwt>
<pdfrwt beam="2">  1       21 0.11876757E-01 0.45147897E+03</pdfrwt>
<totfact> 0.53744015E+04</totfact>
</mgrwt>
</event>
<event>
 7    0  0.4725730E-002  0.4367754E+03  0.7546771E-02  0.1031741E+00
         21   -1    0    0  502  501  0.00000000000E+00  0.00000000000E+00  0.24489973976E+03  0.24489973976E+03  0.00000000000E+00 0. -1.
         21   -1    0    0  501  502 -0.00000000000E+00 -0.00000000000E+00 -0.19474575696E+03  0.19474575696E+03  0.00000000000E+00 0. -1.
      99926    2    1    2    0    0  0.00000000000E+00  0.00000000000E+00  0.50153982808E+02  0.43964549672E+03  0.43677538941E+03 0.  0.
      99925    2    3    3    0    0 -0.26314193404E+02  0.89700502973E+02  0.14618736070E+02  0.27949282310E+03  0.26299033007E+03 0.  0.
         25    1    3    3    0    0  0.26314193404E+02 -0.89700502973E+02  0.35535246738E+02  0.16015267362E+03  0.12509000000E+03 0.  0.
         25    1    4    4    0    0  0.24731839187E+02  0.57919652355E+02  0.13473089665E+02  0.14069606336E+03  0.12509000000E+03 0.  0.
         25    1    4    4    0    0 -0.51046032591E+02  0.31780850617E+02  0.11456464049E+01  0.13879675974E+03  0.12509000000E+03 0.  0.
<mgrwt>
<rscale>  2 0.43677539E+03</rscale>
<asrwt>0</asrwt>
<pdfrwt beam="1">  1       21 0.36014668E-01 0.43677539E+03</pdfrwt>
<pdfrwt beam="2">  1       21 0.28639082E-01 0.43677539E+03</pdfrwt>
<totfact> 0.80811994E+04</totfact>
</mgrwt>
</event>
<event>
 7    0  0.4725730E-002  0.4542234E+03  0.7546771E-02  0.1026470E+00
         21   -1    0    0  502  501  0.00000000000E+00  0.00000000000E+00  0.26804398608E+02  0.26804398608E+02  0.00000000000E+00 0.  1.
         21   -1    0    0  501  502 -0.00000000000E+00 -0.00000000000E+00 -0.19243009917E+04  0.19243009917E+04  0.00000000000E+00 0.  1.
      99926    2    1    2    0    0  0.00000000000E+00 -0.71054273576E-14 -0.18974965931E+04  0.19511053903E+04  0.45422342882E+03 0.  0.
      99925    2    3    3    0    0  0.68814366424E+02 -0.59720799951E+02 -0.91361899988E+03  0.95513118507E+03  0.26319937838E+03 0.  0.
         25    1    4    4    0    0  0.33245172971E+02  0.93350258310E+01 -0.37873854173E+03  0.40035331311E+03  0.12509000000E+03 0.  0.
         25    1    4    4    0    0  0.35569193453E+02 -0.69055825782E+02 -0.53488045815E+03  0.55477787196E+03  0.12509000000E+03 0.  0.
         25    1    3    3    0    0 -0.68814366424E+02  0.59720799951E+02 -0.98387759319E+03  0.99597420522E+03  0.12509000000E+03 0.  0.
<mgrwt>
<rscale>  2 0.45422343E+03</rscale>
<asrwt>0</asrwt>
<pdfrwt beam="1">  1       21 0.39418241E-02 0.45422343E+03</pdfrwt>
<pdfrwt beam="2">  1       21 0.28298539E+00 0.45422343E+03</pdfrwt>
<totfact> 0.14612670E+04</totfact>
</mgrwt>
</event>
<event>
 7    0  0.4725730E-002  0.4559007E+03  0.7546771E-02  0.1025977E+00
         21   -1    0    0  502  501  0.00000000000E+00  0.00000000000E+00  0.48103820615E+03  0.48103820615E+03  0.00000000000E+00 0. -1.
         21   -1    0    0  501  502 -0.00000000000E+00 -0.00000000000E+00 -0.10801920404E+03  0.10801920404E+03  0.00000000000E+00 0. -1.
      99926    2    1    2    0    0  0.00000000000E+00  0.00000000000E+00  0.37301900211E+03  0.58905741020E+03  0.45590070912E+03 0.  0.
      99925    2    3    3    0    0  0.27226556640E+02  0.10481164483E+03  0.28054618528E+03  0.39951718695E+03  0.26302291594E+03 0.  0.
         25    1    3    3    0    0 -0.27226556640E+02 -0.10481164483E+03  0.92472816825E+02  0.18954022325E+03  0.12509000000E+03 0.  0.
         25    1    4    4    0    0  0.50628262011E+02  0.46199358926E+02  0.11972072102E+03  0.18622073145E+03  0.12509000000E+03 0.  0.
         25    1    4    4    0    0 -0.23401705371E+02  0.58612285903E+02  0.16082546426E+03  0.21329645550E+03  0.12509000000E+03 0.  0.
<mgrwt>
<rscale>  2 0.45590071E+03</rscale>
<asrwt>0</asrwt>
<pdfrwt beam="1">  1       21 0.70740912E-01 0.45590071E+03</pdfrwt>
<pdfrwt beam="2">  1       21 0.15885177E-01 0.45590071E+03</pdfrwt>
<totfact> 0.58936229E+04</totfact>
</mgrwt>
</event>
<event>
 7    0  0.4725730E-002  0.4550978E+03  0.7546771E-02  0.1026213E+00
         21   -1    0    0  502  501  0.00000000000E+00  0.00000000000E+00  0.11261613939E+03  0.11261613939E+03  0.00000000000E+00 0. -1.
         21   -1    0    0  501  502 -0.00000000000E+00 -0.00000000000E+00 -0.45977867180E+03  0.45977867180E+03  0.00000000000E+00 0. -1.
      99926    2    1    2    0    0 -0.44408920985E-15  0.00000000000E+00 -0.34716253241E+03  0.57239481118E+03  0.45509778725E+03 0.  0.
      99925    2    3    3    0    0  0.24337383473E+01  0.10903663513E+03 -0.25664276737E+03  0.38335447992E+03  0.26305937799E+03 0.  0.
         25    1    4    4    0    0 -0.82219997025E+01  0.82043707422E+02 -0.17847170406E+03  0.23302023186E+03  0.12509000000E+03 0.  0.
         25    1    4    4    0    0  0.10655738050E+02  0.26992927710E+02 -0.78171063309E+02  0.15033424806E+03  0.12509000000E+03 0.  0.
         25    1    3    3    0    0 -0.24337383473E+01 -0.10903663513E+03 -0.90519765041E+02  0.18904033127E+03  0.12509000000E+03 0.  0.
<mgrwt>
<rscale>  2 0.45509779E+03</rscale>
<asrwt>0</asrwt>
<pdfrwt beam="1">  1       21 0.16561197E-01 0.45509779E+03</pdfrwt>
<pdfrwt beam="2">  1       21 0.67614509E-01 0.45509779E+03</pdfrwt>
<totfact> 0.60363761E+04</totfact>
</mgrwt>
</event>
<event>
 7    0  0.4725730E-002  0.4509751E+03  0.7546771E-02  0.1027432E+00
         21   -1    0    0  502  501  0.00000000000E+00  0.00000000000E+00  0.33858652787E+03  0.33858652787E+03  0.00000000000E+00 0. -1.
         21   -1    0    0  501  502 -0.00000000000E+00 -0.00000000000E+00 -0.15016733027E+03  0.15016733027E+03  0.00000000000E+00 0. -1.
      99926    2    1    2    0    0  0.00000000000E+00  0.55511151231E-14  0.18841919760E+03  0.48875385814E+03  0.45097509889E+03 0.  0.
      99925    2    3    3    0    0  0.83803904701E+02  0.18792503274E+01  0.19532607058E+03  0.33801620849E+03  0.26282324351E+03 0.  0.
         25    1    4    4    0    0  0.56522077300E+02 -0.33607602658E+02  0.11930157721E+03  0.18494483124E+03  0.12509000000E+03 0.  0.
         25    1    4    4    0    0  0.27281827401E+02  0.35486852986E+02  0.76024493377E+02  0.15307137725E+03  0.12509000000E+03 0.  0.
         25    1    3    3    0    0 -0.83803904701E+02 -0.18792503274E+01 -0.69068729858E+01  0.15073764964E+03  0.12509000000E+03 0.  0.
<mgrwt>
<rscale>  2 0.45097510E+03</rscale>
<asrwt>0</asrwt>
<pdfrwt beam="1">  1       21 0.49792136E-01 0.45097510E+03</pdfrwt>
<pdfrwt beam="2">  1       21 0.22083431E-01 0.45097510E+03</pdfrwt>
<totfact> 0.68222132E+04</totfact>
</mgrwt>
</event>
<event>
 7    0  0.4725730E-002  0.4556294E+03  0.7546771E-02  0.1026056E+00
         21   -1    0    0  502  501  0.00000000000E+00  0.00000000000E+00  0.59915809581E+03  0.59915809581E+03  0.00000000000E+00 0. -1.
         21   -1    0    0  501  502 -0.00000000000E+00 -0.00000000000E+00 -0.86620765307E+02  0.86620765307E+02  0.00000000000E+00 0. -1.
      99926    2    1    2    0    0  0.00000000000E+00  0.00000000000E+00  0.51253733050E+03  0.68577886112E+03  0.45562937921E+03 0.  0.
      99925    2    3    3    0    0 -0.37959694704E+02 -0.13883518806E+02  0.16213482786E+03  0.31152879435E+03  0.26292355693E+03 0.  0.
         25    1    4    4    0    0  0.96147818001E+01 -0.14828120163E+02  0.11129235291E+03  0.16836214863E+03  0.12509000000E+03 0.  0.
         25    1    3    3    0    0  0.37959694704E+02  0.13883518806E+02  0.35040250265E+03  0.37425006677E+03  0.12509000000E+03 0.  0.
         25    1    4    4    0    0 -0.47574476504E+02  0.94460135666E+00  0.50842474952E+02  0.14316664572E+03  0.12509000000E+03 0.  0.
<mgrwt>
<rscale>  2 0.45562938E+03</rscale>
<asrwt>0</asrwt>
<pdfrwt beam="1">  1       21 0.88111483E-01 0.45562938E+03</pdfrwt>
<pdfrwt beam="2">  1       21 0.12738348E-01 0.45562938E+03</pdfrwt>
<totfact> 0.53416927E+04</totfact>
</mgrwt>
</event>
<event>
 7    0  0.4725730E-002  0.4498710E+03  0.7546771E-02  0.1027761E+00
         21   -1    0    0  502  501  0.00000000000E+00  0.00000000000E+00  0.14741283336E+03  0.14741283336E+03  0.00000000000E+00 0. -1.
         21   -1    0    0  501  502 -0.00000000000E+00 -0.00000000000E+00 -0.34322642915E+03  0.34322642915E+03  0.00000000000E+00 0. -1.
      99926    2    1    2    0    0  0.00000000000E+00 -0.71054273576E-14 -0.19581359580E+03  0.49063926251E+03  0.44987100553E+03 0.  0.
      99925    2    3    3    0    0 -0.88604770244E+02  0.61968719078E+02 -0.12538785533E+03  0.31092220580E+03  0.26317214203E+03 0.  0.
         25    1    3    3    0    0  0.88604770244E+02 -0.61968719078E+02 -0.70425740462E+02  0.17971705671E+03  0.12509000000E+03 0.  0.
         25    1    4    4    0    0 -0.64776291436E+02  0.67855408645E+02 -0.79765856376E+02  0.17552898438E+03  0.12509000000E+03 0.  0.
         25    1    4    4    0    0 -0.23828478808E+02 -0.58866895675E+01 -0.45621998958E+02  0.13539322142E+03  0.12509000000E+03 0.  0.
<mgrwt>
<rscale>  2 0.44987101E+03</rscale>
<asrwt>0</asrwt>
<pdfrwt beam="1">  1       21 0.21678358E-01 0.44987101E+03</pdfrwt>
<pdfrwt beam="2">  1       21 0.50474475E-01 0.44987101E+03</pdfrwt>
<totfact> 0.68687867E+04</totfact>
</mgrwt>
</event>
<event>
 7    0  0.4725730E-002  0.4552078E+03  0.7546771E-02  0.1026180E+00
         21   -1    0    0  502  501  0.00000000000E+00  0.00000000000E+00  0.16197475899E+03  0.16197475899E+03  0.00000000000E+00 0. -1.
         21   -1    0    0  501  502 -0.00000000000E+00 -0.00000000000E+00 -0.31982471644E+03  0.31982471644E+03  0.00000000000E+00 0. -1.
      99926    2    1    2    0    0  0.00000000000E+00  0.00000000000E+00 -0.15784995745E+03  0.48179947542E+03  0.45520778272E+03 0.  0.
      99925    2    3    3    0    0 -0.59535862725E+02  0.92095752682E+02 -0.68641532478E+02  0.29303560759E+03  0.26292976386E+03 0.  0.
         25    1    4    4    0    0 -0.98216255990E+00  0.30943221473E+02 -0.58861147352E+02  0.14167071104E+03  0.12509000000E+03 0.  0.
         25    1    3    3    0    0  0.59535862725E+02 -0.92095752682E+02 -0.89208424971E+02  0.18876386783E+03  0.12509000000E+03 0.  0.
         25    1    4    4    0    0 -0.58553700165E+02  0.61152531209E+02 -0.97803851261E+01  0.15136489656E+03  0.12509000000E+03 0.  0.
<mgrwt>
<rscale>  2 0.45520778E+03</rscale>
<asrwt>0</asrwt>
<pdfrwt beam="1">  1       21 0.23819818E-01 0.45520778E+03</pdfrwt>
<pdfrwt beam="2">  1       21 0.47033046E-01 0.45520778E+03</pdfrwt>
<totfact> 0.66459661E+04</totfact>
</mgrwt>
</event>
<event>
 7    0  0.4725730E-002  0.4310396E+03  0.7546771E-02  0.1033532E+00
         21   -1    0    0  502  501  0.00000000000E+00  0.00000000000E+00  0.82482287726E+03  0.82482287726E+03  0.00000000000E+00 0. -1.
         21   -1    0    0  501  502 -0.00000000000E+00 -0.00000000000E+00 -0.56313649297E+02  0.56313649297E+02  0.00000000000E+00 0. -1.
      99926    2    1    2    0    0  0.00000000000E+00  0.71054273576E-14  0.76850922797E+03  0.88113652656E+03  0.43103960951E+03 0.  0.
      99925    2    3    3    0    0 -0.50871906984E+02  0.63569480094E+02  0.42358067586E+03  0.50530113190E+03  0.26321021109E+03 0.  0.
         25    1    4    4    0    0 -0.47970800711E+02  0.67987951629E+02  0.22508522153E+03  0.27061859570E+03  0.12509000000E+03 0.  0.
         25    1    3    3    0    0  0.50871906984E+02 -0.63569480094E+02  0.34492855211E+03  0.37583539466E+03  0.12509000000E+03 0.  0.
         25    1    4    4    0    0 -0.29011062730E+01 -0.44184715344E+01  0.19849545433E+03  0.23468253621E+03  0.12509000000E+03 0.  0.
<mgrwt>
<rscale>  2 0.43103961E+03</rscale>
<asrwt>0</asrwt>
<pdfrwt beam="1">  1       21 0.12129748E+00 0.43103961E+03</pdfrwt>
<pdfrwt beam="2">  1       21 0.82814195E-02 0.43103961E+03</pdfrwt>
<totfact> 0.53392114E+04</totfact>
</mgrwt>
</event>
<event>
 7    0  0.4725730E-002  0.4418903E+03  0.7546771E-02  0.1030168E+00
         21   -1    0    0  502  501  0.00000000000E+00  0.00000000000E+00  0.39301346787E+03  0.39301346787E+03  0.00000000000E+00 0.  1.
         21   -1    0    0  501  502 -0.00000000000E+00 -0.00000000000E+00 -0.12421139909E+03  0.12421139909E+03  0.00000000000E+00 0.  1.
      99926    2    1    2    0    0  0.00000000000E+00  0.17763568394E-14  0.26880206878E+03  0.51722486696E+03  0.44189027012E+03 0.  0.
      99925    2    3    3    0    0  0.99894291048E+02  0.11268198009E+02  0.17090926806E+03  0.32924521327E+03  0.26284328198E+03 0.  0.
         25    1    4    4    0    0  0.12441103043E+02  0.12573082072E+02  0.99086172246E+02  0.16055665999E+03  0.12509000000E+03 0.  0.
         25    1    4    4    0    0  0.87453188005E+02 -0.13048840631E+01  0.71823095814E+02  0.16868855328E+03  0.12509000000E+03 0.  0.
         25    1    3    3    0    0 -0.99894291048E+02 -0.11268198009E+02  0.97892800719E+02  0.18797965369E+03  0.12509000000E+03 0.  0.
<mgrwt>
<rscale>  2 0.44189027E+03</rscale>
<asrwt>0</asrwt>
<pdfrwt beam="1">  1       21 0.57796098E-01 0.44189027E+03</pdfrwt>
<pdfrwt beam="2">  1       21 0.18266382E-01 0.44189027E+03</pdfrwt>
<totfact> 0.71193214E+04</totfact>
</mgrwt>
</event>
<event>
 6    0  0.4725730E-002  0.4526845E+03  0.7546771E-02  0.1026925E+00
         21   -1    0    0  502  501  0.00000000000E+00  0.00000000000E+00  0.34810174746E+02  0.34810174746E+02  0.00000000000E+00 0. -1.
         21   -1    0    0  501  502 -0.00000000000E+00 -0.00000000000E+00 -0.14717194159E+04  0.14717194159E+04  0.00000000000E+00 0. -1.
      99926    2    1    2    0    0  0.00000000000E+00  0.00000000000E+00 -0.14369092412E+04  0.15065295907E+04  0.45268448193E+03 0.  0.
         25    1    3    3    0    0  0.12289319771E+02  0.28606874030E+02 -0.24618994683E+03  0.27789634514E+03  0.12509000000E+03 0.  0.
         25    1    3    3    0    0 -0.37263384838E+02 -0.91637141418E+02 -0.68138265791E+03  0.69979694207E+03  0.12509000000E+03 0.  0.
         25    1    3    3    0    0  0.24974065067E+02  0.63030267388E+02 -0.50933663643E+03  0.52883630345E+03  0.12509000000E+03 0.  0.
<mgrwt>
<rscale>  2 0.45268448E+03</rscale>
<asrwt>0</asrwt>
<pdfrwt beam="1">  1       21 0.51191427E-02 0.45268448E+03</pdfrwt>
<pdfrwt beam="2">  1       21 0.21642935E+00 0.45268448E+03</pdfrwt>
<totfact> 0.24049163E+04</totfact>
</mgrwt>
</event>
<event>
 7    0  0.4725730E-002  0.4516755E+03  0.7546771E-02  0.1027224E+00
         21   -1    0    0  502  501  0.00000000000E+00  0.00000000000E+00  0.45730128303E+03  0.45730128303E+03  0.00000000000E+00 0.  1.
         21   -1    0    0  501  502 -0.00000000000E+00 -0.00000000000E+00 -0.11152972047E+03  0.11152972047E+03  0.00000000000E+00 0.  1.
      99926    2    1    2    0    0  0.00000000000E+00  0.00000000000E+00  0.34577156257E+03  0.56883100350E+03  0.45167547760E+03 0.  0.
      99925    2    3    3    0    0  0.10403975865E+03 -0.12446534409E+02  0.17661037575E+03  0.33379440460E+03  0.26315070229E+03 0.  0.
         25    1    3    3    0    0 -0.10403975865E+03  0.12446534409E+02  0.16916118681E+03  0.23503659890E+03  0.12509000000E+03 0.  0.
         25    1    4    4    0    0  0.70868690699E+02 -0.42807816680E+02  0.10140928016E+03  0.18106968463E+03  0.12509000000E+03 0.  0.
         25    1    4    4    0    0  0.33171067954E+02  0.30361282270E+02  0.75201095590E+02  0.15272471996E+03  0.12509000000E+03 0.  0.
<mgrwt>
<rscale>  2 0.45167548E+03</rscale>
<asrwt>0</asrwt>
<pdfrwt beam="1">  1       21 0.67250188E-01 0.45167548E+03</pdfrwt>
<pdfrwt beam="2">  1       21 0.16401430E-01 0.45167548E+03</pdfrwt>
<totfact> 0.62259784E+04</totfact>
</mgrwt>
</event>
<event>
 7    0  0.4725730E-002  0.4709950E+03  0.7546771E-02  0.1021640E+00
         21   -1    0    0  502  501  0.00000000000E+00  0.00000000000E+00  0.33864648047E+03  0.33864648047E+03  0.00000000000E+00 0. -1.
         21   -1    0    0  501  502 -0.00000000000E+00 -0.00000000000E+00 -0.16376684596E+03  0.16376684596E+03  0.00000000000E+00 0. -1.
      99926    2    1    2    0    0  0.35527136788E-14  0.00000000000E+00  0.17487963452E+03  0.50241332643E+03  0.47099497238E+03 0.  0.
      99925    2    3    3    0    0 -0.21961448982E+02  0.24069947398E+02  0.24009326385E+03  0.35763075442E+03  0.26304621942E+03 0.  0.
         25    1    3    3    0    0  0.21961448982E+02 -0.24069947398E+02 -0.65213629330E+02  0.14478257202E+03  0.12509000000E+03 0.  0.
         25    1    4    4    0    0  0.26902160272E+02  0.17817155987E+02  0.99124614174E+02  0.16283235093E+03  0.12509000000E+03 0.  0.
         25    1    4    4    0    0 -0.48863609253E+02  0.62527914113E+01  0.14096864967E+03  0.19479840348E+03  0.12509000000E+03 0.  0.
<mgrwt>
<rscale>  2 0.47099497E+03</rscale>
<asrwt>0</asrwt>
<pdfrwt beam="1">  1       21 0.49800953E-01 0.47099497E+03</pdfrwt>
<pdfrwt beam="2">  1       21 0.24083360E-01 0.47099497E+03</pdfrwt>
<totfact> 0.57452440E+04</totfact>
</mgrwt>
</event>
<event>
 7    0  0.4725730E-002  0.4623766E+03  0.7546771E-02  0.1024094E+00
         21   -1    0    0  502  501  0.00000000000E+00  0.00000000000E+00  0.28725381325E+03  0.28725381325E+03  0.00000000000E+00 0. -1.
         21   -1    0    0  501  502 -0.00000000000E+00 -0.00000000000E+00 -0.18606552588E+03  0.18606552588E+03  0.00000000000E+00 0. -1.
      99926    2    1    2    0    0  0.00000000000E+00  0.00000000000E+00  0.10118828737E+03  0.47331933913E+03  0.46237660764E+03 0.  0.
      99925    2    3    3    0    0  0.59398266363E+02  0.85413925736E+02  0.12451420367E+03  0.30895602440E+03  0.26291889499E+03 0.  0.
         25    1    3    3    0    0 -0.59398266363E+02 -0.85413925736E+02 -0.23325916300E+02  0.16436331473E+03  0.12509000000E+03 0.  0.
         25    1    4    4    0    0  0.10272026115E+02  0.58147025450E+02  0.97387017065E+02  0.16916953119E+03  0.12509000000E+03 0.  0.
         25    1    4    4    0    0  0.49126240247E+02  0.27266900286E+02  0.27127186605E+02  0.13978649321E+03  0.12509000000E+03 0.  0.
<mgrwt>
<rscale>  2 0.46237661E+03</rscale>
<asrwt>0</asrwt>
<pdfrwt beam="1">  1       21 0.42243208E-01 0.46237661E+03</pdfrwt>
<pdfrwt beam="2">  1       21 0.27362577E-01 0.46237661E+03</pdfrwt>
<totfact> 0.63397477E+04</totfact>
</mgrwt>
</event>
<event>
 7    0  0.4725730E-002  0.4461437E+03  0.7546771E-02  0.1028878E+00
         21   -1    0    0  502  501  0.00000000000E+00  0.00000000000E+00  0.73556301342E+02  0.73556301342E+02  0.00000000000E+00 0. -1.
         21   -1    0    0  501  502 -0.00000000000E+00 -0.00000000000E+00 -0.67650297376E+03  0.67650297376E+03  0.00000000000E+00 0. -1.
      99926    2    1    2    0    0  0.00000000000E+00  0.00000000000E+00 -0.60294667241E+03  0.75005927510E+03  0.44614372840E+03 0.  0.
      99925    2    3    3    0    0  0.92609718667E+02  0.37674148633E+02 -0.33028833947E+03  0.43385368361E+03  0.26295005252E+03 0.  0.
         25    1    4    4    0    0  0.10436942137E+02  0.12705058446E+02 -0.18387769067E+03  0.22299968946E+03  0.12509000000E+03 0.  0.
         25    1    3    3    0    0 -0.92609718667E+02 -0.37674148633E+02 -0.27265833294E+03  0.31620559149E+03  0.12509000000E+03 0.  0.
         25    1    4    4    0    0  0.82172776530E+02  0.24969090187E+02 -0.14641064880E+03  0.21085399415E+03  0.12509000000E+03 0.  0.
<mgrwt>
<rscale>  2 0.44614373E+03</rscale>
<asrwt>0</asrwt>
<pdfrwt beam="1">  1       21 0.10817103E-01 0.44614373E+03</pdfrwt>
<pdfrwt beam="2">  1       21 0.99485728E-01 0.44614373E+03</pdfrwt>
<totfact> 0.53924430E+04</totfact>
</mgrwt>
</event>
<event>
 7    0  0.4725730E-002  0.4549054E+03  0.7546771E-02  0.1026269E+00
         21   -1    0    0  502  501  0.00000000000E+00  0.00000000000E+00  0.16449439397E+03  0.16449439397E+03  0.00000000000E+00 0.  1.
         21   -1    0    0  501  502 -0.00000000000E+00 -0.00000000000E+00 -0.31450750274E+03  0.31450750274E+03  0.00000000000E+00 0.  1.
      99926    2    1    2    0    0  0.00000000000E+00  0.00000000000E+00 -0.15001310877E+03  0.47900189672E+03  0.45490535747E+03 0.  0.
      99925    2    3    3    0    0  0.53714012370E+02 -0.99117803119E+02 -0.85689684622E+02  0.29873946299E+03  0.26304564371E+03 0.  0.
         25    1    4    4    0    0  0.27181247648E+02 -0.41297683387E+02 -0.83633295411E+02  0.15838672633E+03  0.12509000000E+03 0.  0.
         25    1    3    3    0    0 -0.53714012370E+02  0.99117803119E+02 -0.64323424148E+02  0.18026243373E+03  0.12509000000E+03 0.  0.
         25    1    4    4    0    0  0.26532764722E+02 -0.57820119732E+02 -0.20563892112E+01  0.14035273665E+03  0.12509000000E+03 0.  0.
<mgrwt>
<rscale>  2 0.45490536E+03</rscale>
<asrwt>0</asrwt>
<pdfrwt beam="1">  1       21 0.24190352E-01 0.45490536E+03</pdfrwt>
<pdfrwt beam="2">  1       21 0.46251103E-01 0.45490536E+03</pdfrwt>
<totfact> 0.66823005E+04</totfact>
</mgrwt>
</event>
<event>
 7    0  0.4725730E-002  0.4550624E+03  0.7546771E-02  0.1026223E+00
         21   -1    0    0  502  501  0.00000000000E+00  0.00000000000E+00  0.12094877183E+04  0.12094877183E+04  0.00000000000E+00 0. -1.
         21   -1    0    0  501  502 -0.00000000000E+00 -0.00000000000E+00 -0.42803608338E+02  0.42803608338E+02  0.00000000000E+00 0. -1.
      99926    2    1    2    0    0  0.88817841970E-15  0.17763568394E-14  0.11666841100E+04  0.12522913267E+04  0.45506236314E+03 0.  0.
      99925    2    3    3    0    0 -0.28202106860E+01  0.10843040593E+02  0.42442011908E+03  0.49947736198E+03  0.26309631799E+03 0.  0.
         25    1    4    4    0    0  0.34911901334E+02 -0.12392890857E+02  0.21930317188E+03  0.25517408547E+03  0.12509000000E+03 0.  0.
         25    1    4    4    0    0 -0.37732112020E+02  0.23235931450E+02  0.20511694720E+03  0.24430327652E+03  0.12509000000E+03 0.  0.
         25    1    3    3    0    0  0.28202106860E+01 -0.10843040593E+02  0.74226399092E+03  0.75281396469E+03  0.12509000000E+03 0.  0.
<mgrwt>
<rscale>  2 0.45506236E+03</rscale>
<asrwt>0</asrwt>
<pdfrwt beam="1">  1       21 0.17786582E+00 0.45506236E+03</pdfrwt>
<pdfrwt beam="2">  1       21 0.62946491E-02 0.45506236E+03</pdfrwt>
<totfact> 0.30517512E+04</totfact>
</mgrwt>
</event>
<event>
 7    0  0.4725730E-002  0.4535355E+03  0.7546771E-02  0.1026673E+00
         21   -1    0    0  502  501  0.00000000000E+00  0.00000000000E+00  0.26222285342E+03  0.26222285342E+03  0.00000000000E+00 0.  1.
         21   -1    0    0  501  502 -0.00000000000E+00 -0.00000000000E+00 -0.19610648837E+03  0.19610648837E+03  0.00000000000E+00 0.  1.
      99926    2    1    2    0    0  0.00000000000E+00  0.17763568394E-14  0.66116365044E+02  0.45832934179E+03  0.45353545817E+03 0.  0.
      99925    2    3    3    0    0  0.75250102516E+02 -0.72436237018E+01  0.12489972091E+03  0.30079192071E+03  0.26298439358E+03 0.  0.
         25    1    4    4    0    0  0.57131324978E+02 -0.17045891621E+02  0.28359819117E+02  0.14144376322E+03  0.12509000000E+03 0.  0.
         25    1    4    4    0    0  0.18118777538E+02  0.98022679192E+01  0.96539901797E+02  0.15934815749E+03  0.12509000000E+03 0.  0.
         25    1    3    3    0    0 -0.75250102516E+02  0.72436237018E+01 -0.58783355870E+02  0.15753742108E+03  0.12509000000E+03 0.  0.
<mgrwt>
<rscale>  2 0.45353546E+03</rscale>
<asrwt>0</asrwt>
<pdfrwt beam="1">  1       21 0.38562185E-01 0.45353546E+03</pdfrwt>
<pdfrwt beam="2">  1       21 0.28839189E-01 0.45353546E+03</pdfrwt>
<totfact> 0.69106088E+04</totfact>
</mgrwt>
</event>
<event>
 7    0  0.4725730E-002  0.4550079E+03  0.7546771E-02  0.1026239E+00
         21   -1    0    0  502  501  0.00000000000E+00  0.00000000000E+00  0.47414103823E+02  0.47414103823E+02  0.00000000000E+00 0.  1.
         21   -1    0    0  501  502 -0.00000000000E+00 -0.00000000000E+00 -0.10916171098E+04  0.10916171098E+04  0.00000000000E+00 0.  1.
      99926    2    1    2    0    0  0.00000000000E+00 -0.62172489379E-14 -0.10442030060E+04  0.11390312136E+04  0.45500789874E+03 0.  0.
      99925    2    3    3    0    0 -0.11042276079E+03 -0.27945914177E+00 -0.59611023816E+03  0.66088071340E+03  0.26310195192E+03 0.  0.
         25    1    3    3    0    0  0.11042276079E+03  0.27945914177E+00 -0.44809276782E+03  0.47815050023E+03  0.12509000000E+03 0.  0.
         25    1    4    4    0    0 -0.74163390358E+02  0.36245195063E+02 -0.32564216255E+03  0.35847489279E+03  0.12509000000E+03 0.  0.
         25    1    4    4    0    0 -0.36259370434E+02 -0.36524654205E+02 -0.27046807562E+03  0.30240582061E+03  0.12509000000E+03 0.  0.
<mgrwt>
<rscale>  2 0.45500790E+03</rscale>
<asrwt>0</asrwt>
<pdfrwt beam="1">  1       21 0.69726629E-02 0.45500790E+03</pdfrwt>
<pdfrwt beam="2">  1       21 0.16053191E+00 0.45500790E+03</pdfrwt>
<totfact> 0.34148611E+04</totfact>
</mgrwt>
</event>
<event>
 7    0  0.4725730E-002  0.4571323E+03  0.7546771E-02  0.1025616E+00
         21   -1    0    0  502  501  0.00000000000E+00  0.00000000000E+00  0.37010484056E+03  0.37010484056E+03  0.00000000000E+00 0.  1.
         21   -1    0    0  501  502 -0.00000000000E+00 -0.00000000000E+00 -0.14115590402E+03  0.14115590402E+03  0.00000000000E+00 0.  1.
      99926    2    1    2    0    0  0.00000000000E+00  0.00000000000E+00  0.22894893655E+03  0.51126074458E+03  0.45713229311E+03 0.  0.
      99925    2    3    3    0    0  0.11005530832E+02 -0.72687206508E+02  0.44712849909E+02  0.27675062663E+03  0.26303444394E+03 0.  0.
         25    1    4    4    0    0  0.10878969705E+02 -0.75656415755E+02  0.38032624165E+02  0.15144713212E+03  0.12509000000E+03 0.  0.
         25    1    4    4    0    0  0.12656112705E+00  0.29692092467E+01  0.66802257445E+01  0.12530349451E+03  0.12509000000E+03 0.  0.
         25    1    3    3    0    0 -0.11005530832E+02  0.72687206508E+02  0.18423608664E+03  0.23451011795E+03  0.12509000000E+03 0.  0.
<mgrwt>
<rscale>  2 0.45713229E+03</rscale>
<asrwt>0</asrwt>
<pdfrwt beam="1">  1       21 0.54427182E-01 0.45713229E+03</pdfrwt>
<pdfrwt beam="2">  1       21 0.20758221E-01 0.45713229E+03</pdfrwt>
<totfact> 0.63406768E+04</totfact>
</mgrwt>
</event>
<event>
 7    0  0.4725730E-002  0.4609506E+03  0.7546771E-02  0.1024506E+00
         21   -1    0    0  502  501  0.00000000000E+00  0.00000000000E+00  0.60179245054E+03  0.60179245054E+03  0.00000000000E+00 0.  1.
         21   -1    0    0  501  502 -0.00000000000E+00 -0.00000000000E+00 -0.88267737182E+02  0.88267737182E+02  0.00000000000E+00 0.  1.
      99926    2    1    2    0    0  0.00000000000E+00 -0.17763568394E-14  0.51352471336E+03  0.69006018772E+03  0.46095057376E+03 0.  0.
      99925    2    3    3    0    0 -0.10723448782E+03 -0.14605757147E+02  0.24850340295E+03  0.37765601587E+03  0.26297825296E+03 0.  0.
         25    1    3    3    0    0  0.10723448782E+03  0.14605757147E+02  0.26502131041E+03  0.31240417185E+03  0.12509000000E+03 0.  0.
         25    1    4    4    0    0 -0.55469306394E+02 -0.47618649416E+02  0.13272202040E+03  0.19648669808E+03  0.12509000000E+03 0.  0.
         25    1    4    4    0    0 -0.51765181423E+02  0.33012892269E+02  0.11578138255E+03  0.18116931779E+03  0.12509000000E+03 0.  0.
<mgrwt>
<rscale>  2 0.46095057E+03</rscale>
<asrwt>0</asrwt>
<pdfrwt beam="1">  1       21 0.88498888E-01 0.46095057E+03</pdfrwt>
<pdfrwt beam="2">  1       21 0.12980550E-01 0.46095057E+03</pdfrwt>
<totfact> 0.51013718E+04</totfact>
</mgrwt>
</event>
<event>
 7    0  0.4725730E-002  0.4559031E+03  0.7546771E-02  0.1025976E+00
         21   -1    0    0  502  501  0.00000000000E+00  0.00000000000E+00  0.65134544399E+03  0.65134544399E+03  0.00000000000E+00 0. -1.
         21   -1    0    0  501  502 -0.00000000000E+00 -0.00000000000E+00 -0.79776282825E+02  0.79776282825E+02  0.00000000000E+00 0. -1.
      99926    2    1    2    0    0  0.00000000000E+00  0.00000000000E+00  0.57156916116E+03  0.73112172681E+03  0.45590314040E+03 0.  0.
      99925    2    3    3    0    0  0.82124494782E+02 -0.39206206254E+02  0.46965231400E+03  0.54587564430E+03  0.26291702824E+03 0.  0.
         25    1    4    4    0    0  0.65378060201E+02  0.70616947982E+01  0.27695004498E+03  0.31092281004E+03  0.12509000000E+03 0.  0.
         25    1    3    3    0    0 -0.82124494782E+02  0.39206206254E+02  0.10191684716E+03  0.18524608251E+03  0.12509000000E+03 0.  0.
         25    1    4    4    0    0  0.16746434582E+02 -0.46267901052E+02  0.19270226902E+03  0.23495283426E+03  0.12509000000E+03 0.  0.
<mgrwt>
<rscale>  2 0.45590314E+03</rscale>
<asrwt>0</asrwt>
<pdfrwt beam="1">  1       21 0.95786092E-01 0.45590314E+03</pdfrwt>
<pdfrwt beam="2">  1       21 0.11731807E-01 0.45590314E+03</pdfrwt>
<totfact> 0.50883322E+04</totfact>
</mgrwt>
</event>
<event>
 7    0  0.4725730E-002  0.4564393E+03  0.7546771E-02  0.1025819E+00
         21   -1    0    0  502  501  0.00000000000E+00  0.00000000000E+00  0.46515770842E+03  0.46515770842E+03  0.00000000000E+00 0. -1.
         21   -1    0    0  501  502 -0.00000000000E+00 -0.00000000000E+00 -0.11197107334E+03  0.11197107334E+03  0.00000000000E+00 0. -1.
      99926    2    1    2    0    0  0.00000000000E+00  0.00000000000E+00  0.35318663508E+03  0.57712878176E+03  0.45643929666E+03 0.  0.
      99925    2    3    3    0    0 -0.31543617622E+02 -0.92848062013E+02  0.14663076718E+03  0.31649763033E+03  0.26278204978E+03 0.  0.
         25    1    4    4    0    0 -0.40336280732E+01 -0.29253126332E+02  0.30038356768E+02  0.13199176691E+03  0.12509000000E+03 0.  0.
         25    1    4    4    0    0 -0.27509989549E+02 -0.63594935681E+02  0.11659241042E+03  0.18450586342E+03  0.12509000000E+03 0.  0.
         25    1    3    3    0    0  0.31543617622E+02  0.92848062013E+02  0.20655586789E+03  0.26063115143E+03  0.12509000000E+03 0.  0.
<mgrwt>
<rscale>  2 0.45643930E+03</rscale>
<asrwt>0</asrwt>
<pdfrwt beam="1">  1       21 0.68405545E-01 0.45643930E+03</pdfrwt>
<pdfrwt beam="2">  1       21 0.16466335E-01 0.45643930E+03</pdfrwt>
<totfact> 0.59429433E+04</totfact>
</mgrwt>
</event>
<event>
 7    0  0.4725730E-002  0.4512961E+03  0.7546771E-02  0.1027336E+00
         21   -1    0    0  502  501  0.00000000000E+00  0.00000000000E+00  0.28472310334E+03  0.28472310334E+03  0.00000000000E+00 0.  1.
         21   -1    0    0  501  502 -0.00000000000E+00 -0.00000000000E+00 -0.17883006229E+03  0.17883006229E+03  0.00000000000E+00 0.  1.
      99926    2    1    2    0    0 -0.35527136788E-14  0.00000000000E+00  0.10589304105E+03  0.46355316563E+03  0.45129613473E+03 0.  0.
      99925    2    3    3    0    0  0.19322628284E+02  0.72393120853E+02 -0.15095278491E+02  0.27408071519E+03  0.26320760455E+03 0.  0.
         25    1    4    4    0    0  0.46655274380E+02  0.47119567829E+02 -0.22517617224E+02  0.14335801158E+03  0.12509000000E+03 0.  0.
         25    1    3    3    0    0 -0.19322628284E+02 -0.72393120853E+02  0.12098831954E+03  0.18947245044E+03  0.12509000000E+03 0.  0.
         25    1    4    4    0    0 -0.27332646096E+02  0.25273553023E+02  0.74223387331E+01  0.13072270360E+03  0.12509000000E+03 0.  0.
<mgrwt>
<rscale>  2 0.45129613E+03</rscale>
<asrwt>0</asrwt>
<pdfrwt beam="1">  1       21 0.41871045E-01 0.45129613E+03</pdfrwt>
<pdfrwt beam="2">  1       21 0.26298538E-01 0.45129613E+03</pdfrwt>
<totfact> 0.69951117E+04</totfact>
</mgrwt>
</event>
<event>
 7    0  0.4725730E-002  0.4692290E+03  0.7546771E-02  0.1022138E+00
         21   -1    0    0  502  501  0.00000000000E+00  0.00000000000E+00  0.17453224729E+03  0.17453224729E+03  0.00000000000E+00 0. -1.
         21   -1    0    0  501  502 -0.00000000000E+00 -0.00000000000E+00 -0.31537995136E+03  0.31537995136E+03  0.00000000000E+00 0. -1.
      99926    2    1    2    0    0 -0.71054273576E-14  0.00000000000E+00 -0.14084770407E+03  0.48991219865E+03  0.46922903431E+03 0.  0.
      99925    2    3    3    0    0 -0.48962779267E+02  0.62173849948E+02 -0.18997790951E+03  0.33394993861E+03  0.26299812551E+03 0.  0.
         25    1    4    4    0    0 -0.16828504118E+02  0.53880240315E+02 -0.57640266684E+02  0.14884954582E+03  0.12509000000E+03 0.  0.
         25    1    4    4    0    0 -0.32134275149E+02  0.82936096329E+01 -0.13233764283E+03  0.18510039279E+03  0.12509000000E+03 0.  0.
         25    1    3    3    0    0  0.48962779267E+02 -0.62173849948E+02  0.49130205441E+02  0.15596226004E+03  0.12509000000E+03 0.  0.
<mgrwt>
<rscale>  2 0.46922903E+03</rscale>
<asrwt>0</asrwt>
<pdfrwt beam="1">  1       21 0.25666507E-01 0.46922903E+03</pdfrwt>
<pdfrwt beam="2">  1       21 0.46379404E-01 0.46922903E+03</pdfrwt>
<totfact> 0.59030985E+04</totfact>
</mgrwt>
</event>
<event>
 7    0  0.4725730E-002  0.4590042E+03  0.7546771E-02  0.1025070E+00
         21   -1    0    0  502  501  0.00000000000E+00  0.00000000000E+00  0.67717616696E+03  0.67717616696E+03  0.00000000000E+00 0. -1.
         21   -1    0    0  501  502 -0.00000000000E+00 -0.00000000000E+00 -0.77780669681E+02  0.77780669681E+02  0.00000000000E+00 0. -1.
      99926    2    1    2    0    0  0.00000000000E+00  0.00000000000E+00  0.59939549727E+03  0.75495683664E+03  0.45900420808E+03 0.  0.
      99925    2    3    3    0    0  0.53988696880E+02  0.92063209811E+02  0.29756457164E+03  0.41124208606E+03  0.26303035008E+03 0.  0.
         25    1    4    4    0    0  0.16453463197E+02  0.38956376031E+01  0.12832045327E+03  0.17999872019E+03  0.12509000000E+03 0.  0.
         25    1    3    3    0    0 -0.53988696880E+02 -0.92063209811E+02  0.30183092564E+03  0.34371475057E+03  0.12509000000E+03 0.  0.
         25    1    4    4    0    0  0.37535233682E+02  0.88167572208E+02  0.16924411837E+03  0.23124336587E+03  0.12509000000E+03 0.  0.
<mgrwt>
<rscale>  2 0.45900421E+03</rscale>
<asrwt>0</asrwt>
<pdfrwt beam="1">  1       21 0.99584728E-01 0.45900421E+03</pdfrwt>
<pdfrwt beam="2">  1       21 0.11438334E-01 0.45900421E+03</pdfrwt>
<totfact> 0.48475207E+04</totfact>
</mgrwt>
</event>
<event>
 7    0  0.4725730E-002  0.4445280E+03  0.7546771E-02  0.1029367E+00
         21   -1    0    0  502  501  0.00000000000E+00  0.00000000000E+00  0.11377267080E+03  0.11377267080E+03  0.00000000000E+00 0.  1.
         21   -1    0    0  501  502 -0.00000000000E+00 -0.00000000000E+00 -0.43421052222E+03  0.43421052222E+03  0.00000000000E+00 0.  1.
      99926    2    1    2    0    0  0.35527136788E-14  0.00000000000E+00 -0.32043785142E+03  0.54798319301E+03  0.44452802296E+03 0.  0.
      99925    2    3    3    0    0 -0.17477420074E+02 -0.10007446477E+03 -0.22486349997E+03  0.36062705229E+03  0.26299794394E+03 0.  0.
         25    1    4    4    0    0 -0.35682329001E+02 -0.21011918260E+02 -0.12124196155E+03  0.17905823257E+03  0.12509000000E+03 0.  0.
         25    1    4    4    0    0  0.18204908926E+02 -0.79062546507E+02 -0.10362153843E+03  0.18156881972E+03  0.12509000000E+03 0.  0.
         25    1    3    3    0    0  0.17477420074E+02  0.10007446477E+03 -0.95574351446E+02  0.18735614072E+03  0.12509000000E+03 0.  0.
<mgrwt>
<rscale>  2 0.44452802E+03</rscale>
<asrwt>0</asrwt>
<pdfrwt beam="1">  1       21 0.16731275E-01 0.44452802E+03</pdfrwt>
<pdfrwt beam="2">  1       21 0.63854488E-01 0.44452802E+03</pdfrwt>
<totfact> 0.67414456E+04</totfact>
</mgrwt>
</event>
<event>
 7    0  0.4725730E-002  0.4025841E+03  0.7546771E-02  0.1042889E+00
         21   -1    0    0  502  501  0.00000000000E+00  0.00000000000E+00  0.49908185043E+02  0.49908185043E+02  0.00000000000E+00 0. -1.
         21   -1    0    0  501  502 -0.00000000000E+00 -0.00000000000E+00 -0.81186047196E+03  0.81186047196E+03  0.00000000000E+00 0. -1.
      99926    2    1    2    0    0 -0.71054273576E-14 -0.35527136788E-14 -0.76195228692E+03  0.86176865701E+03  0.40258406657E+03 0.  0.
      99925    2    3    3    0    0 -0.39271764973E+02  0.30972203144E+02 -0.51057271429E+03  0.57656566522E+03  0.26313859624E+03 0.  0.
         25    1    4    4    0    0 -0.20051032495E+01  0.51620219989E+02 -0.24325672941E+03  0.27837027869E+03  0.12509000000E+03 0.  0.
         25    1    4    4    0    0 -0.37266661724E+02 -0.20648016845E+02 -0.26731598488E+03  0.29819538653E+03  0.12509000000E+03 0.  0.
         25    1    3    3    0    0  0.39271764973E+02 -0.30972203144E+02 -0.25137957263E+03  0.28520299179E+03  0.12509000000E+03 0.  0.
<mgrwt>
<rscale>  2 0.40258407E+03</rscale>
<asrwt>0</asrwt>
<pdfrwt beam="1">  1       21 0.73394391E-02 0.40258407E+03</pdfrwt>
<pdfrwt beam="2">  1       21 0.11939124E+00 0.40258407E+03</pdfrwt>
<totfact> 0.69289266E+04</totfact>
</mgrwt>
</event>
<event>
 7    0  0.4725730E-002  0.4650019E+03  0.7546771E-02  0.1023340E+00
         21   -1    0    0  502  501  0.00000000000E+00  0.00000000000E+00  0.91361982956E+02  0.91361982956E+02  0.00000000000E+00 0.  1.
         21   -1    0    0  501  502 -0.00000000000E+00 -0.00000000000E+00 -0.59167590996E+03  0.59167590996E+03  0.00000000000E+00 0.  1.
      99926    2    1    2    0    0  0.00000000000E+00  0.00000000000E+00 -0.50031392700E+03  0.68303789292E+03  0.46500186839E+03 0.  0.
      99925    2    3    3    0    0  0.37709623394E+02  0.50730880800E+02 -0.15831721357E+03  0.31343689446E+03  0.26302606093E+03 0.  0.
         25    1    4    4    0    0 -0.65268569838E+01 -0.30781165662E+01 -0.54799986952E+02  0.13675752752E+03  0.12509000000E+03 0.  0.
         25    1    4    4    0    0  0.44236480378E+02  0.53808997366E+02 -0.10351722662E+03  0.17667936693E+03  0.12509000000E+03 0.  0.
         25    1    3    3    0    0 -0.37709623394E+02 -0.50730880800E+02 -0.34199671343E+03  0.36960099846E+03  0.12509000000E+03 0.  0.
<mgrwt>
<rscale>  2 0.46500187E+03</rscale>
<asrwt>0</asrwt>
<pdfrwt beam="1">  1       21 0.13435585E-01 0.46500187E+03</pdfrwt>
<pdfrwt beam="2">  1       21 0.87011165E-01 0.46500187E+03</pdfrwt>
<totfact> 0.49792452E+04</totfact>
</mgrwt>
</event>
<event>
 7    0  0.4725730E-002  0.4546170E+03  0.7546771E-02  0.1026354E+00
         21   -1    0    0  502  501  0.00000000000E+00  0.00000000000E+00  0.39835139614E+02  0.39835139614E+02  0.00000000000E+00 0. -1.
         21   -1    0    0  501  502 -0.00000000000E+00 -0.00000000000E+00 -0.12970745421E+04  0.12970745421E+04  0.00000000000E+00 0. -1.
      99926    2    1    2    0    0  0.00000000000E+00 -0.14210854715E-13 -0.12572394025E+04  0.13369096817E+04  0.45461696173E+03 0.  0.
      99925    2    3    3    0    0  0.25513239264E+02  0.11012846176E+03 -0.79811574886E+03  0.84780719666E+03  0.26269581394E+03 0.  0.
         25    1    3    3    0    0 -0.25513239264E+02 -0.11012846176E+03 -0.45912365363E+03  0.48910248506E+03  0.12509000000E+03 0.  0.
         25    1    4    4    0    0  0.40146791243E+02  0.82251266687E+02 -0.48488960890E+03  0.50906038604E+03  0.12509000000E+03 0.  0.
         25    1    4    4    0    0 -0.14633551978E+02  0.27877195074E+02 -0.31322613997E+03  0.33874681062E+03  0.12509000000E+03 0.  0.
<mgrwt>
<rscale>  2 0.45461696E+03</rscale>
<asrwt>0</asrwt>
<pdfrwt beam="1">  1       21 0.58581088E-02 0.45461696E+03</pdfrwt>
<pdfrwt beam="2">  1       21 0.19074626E+00 0.45461696E+03</pdfrwt>
<totfact> 0.28145101E+04</totfact>
</mgrwt>
</event>
<event>
 7    0  0.4725730E-002  0.4507017E+03  0.7546771E-02  0.1027513E+00
         21   -1    0    0  502  501  0.00000000000E+00  0.00000000000E+00  0.62041683930E+02  0.62041683930E+02  0.00000000000E+00 0.  1.
         21   -1    0    0  501  502 -0.00000000000E+00 -0.00000000000E+00 -0.81853035900E+03  0.81853035900E+03  0.00000000000E+00 0.  1.
      99926    2    1    2    0    0  0.00000000000E+00  0.00000000000E+00 -0.75648867507E+03  0.88057204293E+03  0.45070168325E+03 0.  0.
      99925    2    3    3    0    0  0.64532552353E+02 -0.37634877129E+02 -0.32255248695E+03  0.42282871119E+03  0.26298893110E+03 0.  0.
         25    1    4    4    0    0  0.54034507386E+02 -0.16182446542E+02 -0.11366417657E+03  0.17818151616E+03  0.12509000000E+03 0.  0.
         25    1    3    3    0    0 -0.64532552353E+02  0.37634877129E+02 -0.43393618812E+03  0.45774333174E+03  0.12509000000E+03 0.  0.
         25    1    4    4    0    0  0.10498044967E+02 -0.21452430587E+02 -0.20888831037E+03  0.24464719503E+03  0.12509000000E+03 0.  0.
<mgrwt>
<rscale>  2 0.45070168E+03</rscale>
<asrwt>0</asrwt>
<pdfrwt beam="1">  1       21 0.91237773E-02 0.45070168E+03</pdfrwt>
<pdfrwt beam="2">  1       21 0.12037211E+00 0.45070168E+03</pdfrwt>
<totfact> 0.45600166E+04</totfact>
</mgrwt>
</event>
<event>
 7    0  0.4725730E-002  0.4765540E+03  0.7546771E-02  0.1020087E+00
         21   -1    0    0  502  501  0.00000000000E+00  0.00000000000E+00  0.52478525865E+03  0.52478525865E+03  0.00000000000E+00 0. -1.
         21   -1    0    0  501  502 -0.00000000000E+00 -0.00000000000E+00 -0.10818889029E+03  0.10818889029E+03  0.00000000000E+00 0. -1.
      99926    2    1    2    0    0  0.00000000000E+00  0.00000000000E+00  0.41659636836E+03  0.63297414893E+03  0.47655402536E+03 0.  0.
      99925    2    3    3    0    0  0.17060710869E+02 -0.79397686923E+02  0.11865718501E+03  0.29979202814E+03  0.26306020611E+03 0.  0.
         25    1    4    4    0    0  0.15571356396E+02 -0.38221518970E+02  0.15763773276E+02  0.13266256556E+03  0.12509000000E+03 0.  0.
         25    1    4    4    0    0  0.14893544730E+01 -0.41176167953E+02  0.10289341174E+03  0.16712946258E+03  0.12509000000E+03 0.  0.
         25    1    3    3    0    0 -0.17060710869E+02  0.79397686923E+02  0.29793918335E+03  0.33318212080E+03  0.12509000000E+03 0.  0.
<mgrwt>
<rscale>  2 0.47655403E+03</rscale>
<asrwt>0</asrwt>
<pdfrwt beam="1">  1       21 0.77174302E-01 0.47655403E+03</pdfrwt>
<pdfrwt beam="2">  1       21 0.15910131E-01 0.47655403E+03</pdfrwt>
<totfact> 0.47990711E+04</totfact>
</mgrwt>
</event>
<event>
 7    0  0.4725730E-002  0.4559965E+03  0.7546771E-02  0.1025949E+00
         21   -1    0    0  502  501  0.00000000000E+00  0.00000000000E+00  0.67417586476E+03  0.67417586476E+03  0.00000000000E+00 0.  1.
         21   -1    0    0  501  502 -0.00000000000E+00 -0.00000000000E+00 -0.77106307880E+02  0.77106307880E+02  0.00000000000E+00 0.  1.
      99926    2    1    2    0    0  0.14210854715E-13  0.00000000000E+00  0.59706955688E+03  0.75128217265E+03  0.45599654294E+03 0.  0.
      99925    2    3    3    0    0 -0.11288864021E+03 -0.16520490749E+02  0.37739503749E+03  0.47393550461E+03  0.26300394769E+03 0.  0.
         25    1    3    3    0    0  0.11288864021E+03  0.16520490749E+02  0.21967451939E+03  0.27734666804E+03  0.12509000000E+03 0.  0.
         25    1    4    4    0    0 -0.79583979239E+02 -0.48583950419E+01  0.25716779060E+03  0.29688380618E+03  0.12509000000E+03 0.  0.
         25    1    4    4    0    0 -0.33304660966E+02 -0.11662095707E+02  0.12022724690E+03  0.17705169843E+03  0.12509000000E+03 0.  0.
<mgrwt>
<rscale>  2 0.45599654E+03</rscale>
<asrwt>0</asrwt>
<pdfrwt beam="1">  1       21 0.99143507E-01 0.45599654E+03</pdfrwt>
<pdfrwt beam="2">  1       21 0.11339163E-01 0.45599654E+03</pdfrwt>
<totfact> 0.49814242E+04</totfact>
</mgrwt>
</event>
<event>
 7    0  0.4725730E-002  0.4574004E+03  0.7546771E-02  0.1025538E+00
         21   -1    0    0  502  501  0.00000000000E+00  0.00000000000E+00  0.94759973863E+03  0.94759973863E+03  0.00000000000E+00 0. -1.
         21   -1    0    0  501  502 -0.00000000000E+00 -0.00000000000E+00 -0.55196070473E+02  0.55196070473E+02  0.00000000000E+00 0. -1.
      99926    2    1    2    0    0 -0.14210854715E-13  0.71054273576E-14  0.89240366816E+03  0.10027958091E+04  0.45740040207E+03 0.  0.
      99925    2    3    3    0    0 -0.66943470977E+02  0.11760184737E+02  0.76319512209E+03  0.81054054460E+03  0.26436612833E+03 0.  0.
         25    1    4    4    0    0 -0.38989993783E+02  0.48072552129E+02  0.40508821386E+03  0.42845671776E+03  0.12509000000E+03 0.  0.
         25    1    4    4    0    0 -0.27953477195E+02 -0.36312367392E+02  0.35810690823E+03  0.38208382684E+03  0.12509000000E+03 0.  0.
         25    1    3    3    0    0  0.66943470977E+02 -0.11760184737E+02  0.12920854606E+03  0.19225526450E+03  0.12509000000E+03 0.  0.
<mgrwt>
<rscale>  2 0.45740040E+03</rscale>
<asrwt>0</asrwt>
<pdfrwt beam="1">  1       21 0.13935289E+00 0.45740040E+03</pdfrwt>
<pdfrwt beam="2">  1       21 0.81170698E-02 0.45740040E+03</pdfrwt>
<totfact> 0.38334554E+04</totfact>
</mgrwt>
</event>
<event>
 7    0  0.4725730E-002  0.4491180E+03  0.7546771E-02  0.1027985E+00
         21   -1    0    0  502  501  0.00000000000E+00  0.00000000000E+00  0.64691647001E+02  0.64691647001E+02  0.00000000000E+00 0.  1.
         21   -1    0    0  501  502 -0.00000000000E+00 -0.00000000000E+00 -0.77949387310E+03  0.77949387310E+03  0.00000000000E+00 0.  1.
      99926    2    1    2    0    0  0.00000000000E+00  0.00000000000E+00 -0.71480222610E+03  0.84418552010E+03  0.44911799108E+03 0.  0.
      99925    2    3    3    0    0 -0.95774738871E+02  0.19061790720E+02 -0.53725739108E+03  0.60605566264E+03  0.26291026887E+03 0.  0.
         25    1    4    4    0    0 -0.62181227394E+02  0.18382219361E+02 -0.19884661767E+03  0.24370452702E+03  0.12509000000E+03 0.  0.
         25    1    4    4    0    0 -0.33593511477E+02  0.67957135928E+00 -0.33841077341E+03  0.36235113563E+03  0.12509000000E+03 0.  0.
         25    1    3    3    0    0  0.95774738871E+02 -0.19061790720E+02 -0.17754483502E+03  0.23812985746E+03  0.12509000000E+03 0.  0.
<mgrwt>
<rscale>  2 0.44911799E+03</rscale>
<asrwt>0</asrwt>
<pdfrwt beam="1">  1       21 0.95134781E-02 0.44911799E+03</pdfrwt>
<pdfrwt beam="2">  1       21 0.11463144E+00 0.44911799E+03</pdfrwt>
<totfact> 0.47871669E+04</totfact>
</mgrwt>
</event>
<event>
 7    0  0.4725730E-002  0.4606788E+03  0.7546771E-02  0.1024585E+00
         21   -1    0    0  502  501  0.00000000000E+00  0.00000000000E+00  0.83118576645E+02  0.83118576645E+02  0.00000000000E+00 0. -1.
         21   -1    0    0  501  502 -0.00000000000E+00 -0.00000000000E+00 -0.63831975851E+03  0.63831975851E+03  0.00000000000E+00 0. -1.
      99926    2    1    2    0    0 -0.71054273576E-14  0.00000000000E+00 -0.55520118186E+03  0.72143833515E+03  0.46067875910E+03 0.  0.
      99925    2    3    3    0    0  0.50470392335E+02 -0.99104242700E+02 -0.41120903500E+03  0.50064395597E+03  0.26302583286E+03 0.  0.
         25    1    3    3    0    0 -0.50470392335E+02  0.99104242700E+02 -0.14399214686E+03  0.22079437919E+03  0.12509000000E+03 0.  0.
         25    1    4    4    0    0 -0.13854940853E+02 -0.36731069928E+02 -0.20538641582E+03  0.24366415163E+03  0.12509000000E+03 0.  0.
         25    1    4    4    0    0  0.64325333189E+02 -0.62373172772E+02 -0.20582261918E+03  0.25697980434E+03  0.12509000000E+03 0.  0.
<mgrwt>
<rscale>  2 0.46067876E+03</rscale>
<asrwt>0</asrwt>
<pdfrwt beam="1">  1       21 0.12223320E-01 0.46067876E+03</pdfrwt>
<pdfrwt beam="2">  1       21 0.93870550E-01 0.46067876E+03</pdfrwt>
<totfact> 0.49505899E+04</totfact>
</mgrwt>
</event>
<event>
 7    0  0.4725730E-002  0.4352568E+03  0.7546771E-02  0.1032212E+00
         21   -1    0    0  502  501  0.00000000000E+00  0.00000000000E+00  0.38611635081E+02  0.38611635081E+02  0.00000000000E+00 0. -1.
         21   -1    0    0  501  502 -0.00000000000E+00 -0.00000000000E+00 -0.12266280723E+04  0.12266280723E+04  0.00000000000E+00 0. -1.
      99926    2    1    2    0    0  0.14210854715E-13 -0.88817841970E-15 -0.11880164373E+04  0.12652397074E+04  0.43525677713E+03 0.  0.
      99925    2    3    3    0    0 -0.92713913152E+02 -0.59014143803E+01 -0.79170830259E+03  0.83940130839E+03  0.26298635660E+03 0.  0.
         25    1    3    3    0    0  0.92713913152E+02  0.59014143803E+01 -0.39630813467E+03  0.42583839903E+03  0.12509000000E+03 0.  0.
         25    1    4    4    0    0 -0.11853270800E+02 -0.17276464716E+02 -0.30611966247E+03  0.33135439051E+03  0.12509000000E+03 0.  0.
         25    1    4    4    0    0 -0.80860642352E+02  0.11375050336E+02 -0.48558864012E+03  0.50804691788E+03  0.12509000000E+03 0.  0.
<mgrwt>
<rscale>  2 0.43525678E+03</rscale>
<asrwt>0</asrwt>
<pdfrwt beam="1">  1       21 0.56781819E-02 0.43525678E+03</pdfrwt>
<pdfrwt beam="2">  1       21 0.18038647E+00 0.43525678E+03</pdfrwt>
<totfact> 0.35252793E+04</totfact>
</mgrwt>
</event>
<event>
 7    0  0.4725730E-002  0.4707042E+03  0.7546771E-02  0.1021722E+00
         21   -1    0    0  502  501  0.00000000000E+00  0.00000000000E+00  0.18906453102E+03  0.18906453102E+03  0.00000000000E+00 0.  1.
         21   -1    0    0  501  502 -0.00000000000E+00 -0.00000000000E+00 -0.29297204433E+03  0.29297204433E+03  0.00000000000E+00 0.  1.
      99926    2    1    2    0    0  0.00000000000E+00  0.14210854715E-13 -0.10390751330E+03  0.48203657535E+03  0.47070424754E+03 0.  0.
      99925    2    3    3    0    0  0.70656066407E+02  0.98425178801E+02 -0.10487975522E+03  0.30788649956E+03  0.26289643972E+03 0.  0.
         25    1    4    4    0    0  0.34234567772E+02  0.92040913332E+02 -0.57783668015E+02  0.16920400630E+03  0.12509000000E+03 0.  0.
         25    1    4    4    0    0  0.36421498635E+02  0.63842654690E+01 -0.47096087208E+02  0.13868249327E+03  0.12509000000E+03 0.  0.
         25    1    3    3    0    0 -0.70656066407E+02 -0.98425178801E+02  0.97224192212E+00  0.17415007579E+03  0.12509000000E+03 0.  0.
<mgrwt>
<rscale>  2 0.47070425E+03</rscale>
<asrwt>0</asrwt>
<pdfrwt beam="1">  1       21 0.27803608E-01 0.47070425E+03</pdfrwt>
<pdfrwt beam="2">  1       21 0.43084123E-01 0.47070425E+03</pdfrwt>
<totfact> 0.58865412E+04</totfact>
</mgrwt>
</event>
<event>
 7    0  0.4725730E-002  0.4535179E+03  0.7546771E-02  0.1026678E+00
         21   -1    0    0  502  501  0.00000000000E+00  0.00000000000E+00  0.31463168032E+03  0.31463168032E+03  0.00000000000E+00 0.  1.
         21   -1    0    0  501  502 -0.00000000000E+00 -0.00000000000E+00 -0.16342800353E+03  0.16342800353E+03  0.00000000000E+00 0.  1.
      99926    2    1    2    0    0  0.00000000000E+00  0.00000000000E+00  0.15120367680E+03  0.47805968385E+03  0.45351792627E+03 0.  0.
      99925    2    3    3    0    0 -0.84774803035E+02  0.72586859086E+02  0.10178230676E+03  0.30328669035E+03  0.26299726088E+03 0.  0.
         25    1    4    4    0    0 -0.58684645502E+02  0.10953700251E+01  0.62718590461E+02  0.15174391962E+03  0.12509000000E+03 0.  0.
         25    1    4    4    0    0 -0.26090157534E+02  0.71491489060E+02  0.39063716294E+02  0.15154277072E+03  0.12509000000E+03 0.  0.
         25    1    3    3    0    0  0.84774803035E+02 -0.72586859086E+02  0.49421370041E+02  0.17477299350E+03  0.12509000000E+03 0.  0.
<mgrwt>
<rscale>  2 0.45351793E+03</rscale>
<asrwt>0</asrwt>
<pdfrwt beam="1">  1       21 0.46269365E-01 0.45351793E+03</pdfrwt>
<pdfrwt beam="2">  1       21 0.24033530E-01 0.45351793E+03</pdfrwt>
<totfact> 0.67633720E+04</totfact>
</mgrwt>
</event>
<event>
 7    0  0.4725730E-002  0.4466139E+03  0.7546771E-02  0.1028737E+00
         21   -1    0    0  502  501  0.00000000000E+00  0.00000000000E+00  0.22631519290E+03  0.22631519290E+03  0.00000000000E+00 0. -1.
         21   -1    0    0  501  502 -0.00000000000E+00 -0.00000000000E+00 -0.22033869363E+03  0.22033869363E+03  0.00000000000E+00 0. -1.
      99926    2    1    2    0    0  0.00000000000E+00  0.00000000000E+00  0.59764992691E+01  0.44665388652E+03  0.44661390014E+03 0.  0.
      99925    2    3    3    0    0  0.60850817557E+02 -0.48591983620E+02 -0.66877877939E+02  0.28227848919E+03  0.26295340278E+03 0.  0.
         25    1    3    3    0    0 -0.60850817557E+02  0.48591983620E+02  0.72854377208E+02  0.16437539733E+03  0.12509000000E+03 0.  0.
         25    1    4    4    0    0  0.27862622502E+01 -0.29356628924E+02 -0.62635380934E+02  0.14296948613E+03  0.12509000000E+03 0.  0.
         25    1    4    4    0    0  0.58064555307E+02 -0.19235354696E+02 -0.42424970047E+01  0.13930900306E+03  0.12509000000E+03 0.  0.
<mgrwt>
<rscale>  2 0.44661390E+03</rscale>
<asrwt>0</asrwt>
<pdfrwt beam="1">  1       21 0.33281646E-01 0.44661390E+03</pdfrwt>
<pdfrwt beam="2">  1       21 0.32402749E-01 0.44661390E+03</pdfrwt>
<totfact> 0.73989870E+04</totfact>
</mgrwt>
</event>
<event>
 7    0  0.4725730E-002  0.4522312E+03  0.7546771E-02  0.1027059E+00
         21   -1    0    0  502  501  0.00000000000E+00  0.00000000000E+00  0.18435018776E+03  0.18435018776E+03  0.00000000000E+00 0. -1.
         21   -1    0    0  501  502 -0.00000000000E+00 -0.00000000000E+00 -0.27734313995E+03  0.27734313995E+03  0.00000000000E+00 0. -1.
      99926    2    1    2    0    0  0.00000000000E+00  0.00000000000E+00 -0.92992952192E+02  0.46169332771E+03  0.45223117948E+03 0.  0.
      99925    2    3    3    0    0 -0.37498140605E+02 -0.10225582657E+03 -0.78099556428E+02  0.29516499392E+03  0.26298377955E+03 0.  0.
         25    1    4    4    0    0 -0.52531382377E+02 -0.66460373776E+02 -0.21958863200E+02  0.15266377170E+03  0.12509000000E+03 0.  0.
         25    1    3    3    0    0  0.37498140605E+02  0.10225582657E+03 -0.14893395764E+02  0.16652833379E+03  0.12509000000E+03 0.  0.
         25    1    4    4    0    0  0.15033241772E+02 -0.35795452797E+02 -0.56140693229E+02  0.14250122222E+03  0.12509000000E+03 0.  0.
<mgrwt>
<rscale>  2 0.45223118E+03</rscale>
<asrwt>0</asrwt>
<pdfrwt beam="1">  1       21 0.27110322E-01 0.45223118E+03</pdfrwt>
<pdfrwt beam="2">  1       21 0.40785755E-01 0.45223118E+03</pdfrwt>
<totfact> 0.69574877E+04</totfact>
</mgrwt>
</event>
<event>
 7    0  0.4725730E-002  0.4555282E+03  0.7546771E-02  0.1026086E+00
         21   -1    0    0  502  501  0.00000000000E+00  0.00000000000E+00  0.26683597630E+03  0.26683597630E+03  0.00000000000E+00 0.  1.
         21   -1    0    0  501  502 -0.00000000000E+00 -0.00000000000E+00 -0.19441338911E+03  0.19441338911E+03  0.00000000000E+00 0.  1.
      99926    2    1    2    0    0  0.00000000000E+00  0.00000000000E+00  0.72422587184E+02  0.46124936541E+03  0.45552820545E+03 0.  0.
      99925    2    3    3    0    0 -0.10400768327E+03 -0.25716383263E+02  0.99291188732E+01  0.28509070900E+03  0.26400604995E+03 0.  0.
         25    1    4    4    0    0 -0.20232954467E+02 -0.22023543084E+02  0.32888923714E+02  0.13275390126E+03  0.12509000000E+03 0.  0.
         25    1    4    4    0    0 -0.83774728804E+02 -0.36928401794E+01 -0.22959804841E+02  0.15233680774E+03  0.12509000000E+03 0.  0.
         25    1    3    3    0    0  0.10400768327E+03  0.25716383263E+02  0.62493468311E+02  0.17615865641E+03  0.12509000000E+03 0.  0.
<mgrwt>
<rscale>  2 0.45552821E+03</rscale>
<asrwt>0</asrwt>
<pdfrwt beam="1">  1       21 0.39240585E-01 0.45552821E+03</pdfrwt>
<pdfrwt beam="2">  1       21 0.28590204E-01 0.45552821E+03</pdfrwt>
<totfact> 0.67803529E+04</totfact>
</mgrwt>
</event>
<event>
 7    0  0.4725730E-002  0.4554841E+03  0.7546771E-02  0.1026099E+00
         21   -1    0    0  502  501  0.00000000000E+00  0.00000000000E+00  0.67912611676E+02  0.67912611676E+02  0.00000000000E+00 0.  1.
         21   -1    0    0  501  502 -0.00000000000E+00 -0.00000000000E+00 -0.76372333894E+03  0.76372333894E+03  0.00000000000E+00 0.  1.
      99926    2    1    2    0    0  0.00000000000E+00 -0.13322676296E-14 -0.69581072726E+03  0.83163595062E+03  0.45548412286E+03 0.  0.
      99925    2    3    3    0    0  0.75966454496E+02  0.32853653572E+01 -0.28350376905E+03  0.39411311495E+03  0.26300012258E+03 0.  0.
         25    1    3    3    0    0 -0.75966454496E+02 -0.32853653572E+01 -0.41230695821E+03  0.43752283566E+03  0.12509000000E+03 0.  0.
         25    1    4    4    0    0  0.16844372789E+02  0.24042037404E+02 -0.17478448078E+03  0.21693057710E+03  0.12509000000E+03 0.  0.
         25    1    4    4    0    0  0.59122081707E+02 -0.20756672047E+02 -0.10871928827E+03  0.17718253786E+03  0.12509000000E+03 0.  0.
<mgrwt>
<rscale>  2 0.45548412E+03</rscale>
<asrwt>0</asrwt>
<pdfrwt beam="1">  1       21 0.99871485E-02 0.45548412E+03</pdfrwt>
<pdfrwt beam="2">  1       21 0.11231226E+00 0.45548412E+03</pdfrwt>
<totfact> 0.46097026E+04</totfact>
</mgrwt>
</event>
<event>
 7    0  0.4725730E-002  0.4576275E+03  0.7546771E-02  0.1025472E+00
         21   -1    0    0  502  501  0.00000000000E+00  0.00000000000E+00  0.15470484462E+03  0.15470484462E+03  0.00000000000E+00 0. -1.
         21   -1    0    0  501  502 -0.00000000000E+00 -0.00000000000E+00 -0.33842330905E+03  0.33842330905E+03  0.00000000000E+00 0. -1.
      99926    2    1    2    0    0  0.00000000000E+00  0.00000000000E+00 -0.18371846443E+03  0.49312815367E+03  0.45762747052E+03 0.  0.
      99925    2    3    3    0    0  0.86445600913E+02  0.30917579528E+02 -0.39466104943E+02  0.28126737401E+03  0.26291638139E+03 0.  0.
         25    1    4    4    0    0  0.93743362859E+01  0.34716096524E+02 -0.32366819166E+02  0.13412011267E+03  0.12509000000E+03 0.  0.
         25    1    3    3    0    0 -0.86445600913E+02 -0.30917579528E+02 -0.14425235949E+03  0.21186077966E+03  0.12509000000E+03 0.  0.
         25    1    4    4    0    0  0.77071264627E+02 -0.37985169961E+01 -0.70992857773E+01  0.14714726134E+03  0.12509000000E+03 0.  0.
<mgrwt>
<rscale>  2 0.45762747E+03</rscale>
<asrwt>0</asrwt>
<pdfrwt beam="1">  1       21 0.22750713E-01 0.45762747E+03</pdfrwt>
<pdfrwt beam="2">  1       21 0.49768133E-01 0.45762747E+03</pdfrwt>
<totfact> 0.64402309E+04</totfact>
</mgrwt>
</event>
<event>
 7    0  0.4725730E-002  0.4491375E+03  0.7546771E-02  0.1027980E+00
         21   -1    0    0  502  501  0.00000000000E+00  0.00000000000E+00  0.18204332177E+03  0.18204332177E+03  0.00000000000E+00 0.  1.
         21   -1    0    0  501  502 -0.00000000000E+00 -0.00000000000E+00 -0.27702818836E+03  0.27702818836E+03  0.00000000000E+00 0.  1.
      99926    2    1    2    0    0  0.00000000000E+00  0.00000000000E+00 -0.94984866598E+02  0.45907151013E+03  0.44913753632E+03 0.  0.
      99925    2    3    3    0    0  0.52489937220E+02  0.89775756515E+02 -0.84693498041E+02  0.29607365636E+03  0.26395405170E+03 0.  0.
         25    1    4    4    0    0  0.30810221229E+02  0.62713023107E+02 -0.84348564331E+02  0.16626599593E+03  0.12509000000E+03 0.  0.
         25    1    3    3    0    0 -0.52489937220E+02 -0.89775756515E+02 -0.10291368557E+02  0.16299785377E+03  0.12509000000E+03 0.  0.
         25    1    4    4    0    0  0.21679715991E+02  0.27062733408E+02 -0.34493370985E+00  0.12980766042E+03  0.12509000000E+03 0.  0.
<mgrwt>
<rscale>  2 0.44913754E+03</rscale>
<asrwt>0</asrwt>
<pdfrwt beam="1">  1       21 0.26771077E-01 0.44913754E+03</pdfrwt>
<pdfrwt beam="2">  1       21 0.40739439E-01 0.44913754E+03</pdfrwt>
<totfact> 0.71526445E+04</totfact>
</mgrwt>
</event>
<event>
 7    0  0.4725730E-002  0.4672212E+03  0.7546771E-02  0.1022707E+00
         21   -1    0    0  502  501  0.00000000000E+00  0.00000000000E+00  0.20553685629E+03  0.20553685629E+03  0.00000000000E+00 0.  1.
         21   -1    0    0  501  502 -0.00000000000E+00 -0.00000000000E+00 -0.26551888961E+03  0.26551888961E+03  0.00000000000E+00 0.  1.
      99926    2    1    2    0    0  0.14210854715E-13  0.17763568394E-14 -0.59982033322E+02  0.47105574591E+03  0.46722122322E+03 0.  0.
      99925    2    3    3    0    0  0.11491648727E+03 -0.26057686791E+01 -0.84839571722E+02  0.29936417829E+03  0.26307521593E+03 0.  0.
         25    1    3    3    0    0 -0.11491648727E+03  0.26057686791E+01  0.24857538400E+02  0.17169156762E+03  0.12509000000E+03 0.  0.
         25    1    4    4    0    0  0.65103439067E+02  0.38692552385E+02 -0.45256244369E+02  0.15307255516E+03  0.12509000000E+03 0.  0.
         25    1    4    4    0    0  0.49813048200E+02 -0.41298321064E+02 -0.39583327353E+02  0.14629162313E+03  0.12509000000E+03 0.  0.
<mgrwt>
<rscale>  2 0.46722122E+03</rscale>
<asrwt>0</asrwt>
<pdfrwt beam="1">  1       21 0.30226009E-01 0.46722122E+03</pdfrwt>
<pdfrwt beam="2">  1       21 0.39046895E-01 0.46722122E+03</pdfrwt>
<totfact> 0.61196768E+04</totfact>
</mgrwt>
</event>
<event>
 7    0  0.4725730E-002  0.4574228E+03  0.7546771E-02  0.1025531E+00
         21   -1    0    0  502  501  0.00000000000E+00  0.00000000000E+00  0.21817629090E+04  0.21817629090E+04  0.00000000000E+00 0. -1.
         21   -1    0    0  501  502 -0.00000000000E+00 -0.00000000000E+00 -0.23975522907E+02  0.23975522907E+02  0.00000000000E+00 0. -1.
      99926    2    1    2    0    0  0.00000000000E+00  0.00000000000E+00  0.21577873861E+04  0.22057384319E+04  0.45742280924E+03 0.  0.
      99925    2    3    3    0    0 -0.25097448905E+02  0.53401954713E+02  0.18331979921E+04  0.18529106644E+04  0.26302357581E+03 0.  0.
         25    1    4    4    0    0  0.19989369416E+02  0.35324343759E+02  0.75139630655E+03  0.76281800041E+03  0.12509000000E+03 0.  0.
         25    1    3    3    0    0  0.25097448905E+02 -0.53401954713E+02  0.32458939404E+03  0.35282776752E+03  0.12509000000E+03 0.  0.
         25    1    4    4    0    0 -0.45086818321E+02  0.18077610954E+02  0.10818016855E+04  0.10900926640E+04  0.12509000000E+03 0.  0.
<mgrwt>
<rscale>  2 0.45742281E+03</rscale>
<asrwt>0</asrwt>
<pdfrwt beam="1">  1       21 0.32084735E+00 0.45742281E+03</pdfrwt>
<pdfrwt beam="2">  1       21 0.35258137E-02 0.45742281E+03</pdfrwt>
<totfact> 0.10434714E+04</totfact>
</mgrwt>
</event>
<event>
 7    0  0.4725730E-002  0.4584456E+03  0.7546771E-02  0.1025233E+00
         21   -1    0    0  502  501  0.00000000000E+00  0.00000000000E+00  0.58883903934E+02  0.58883903934E+02  0.00000000000E+00 0.  1.
         21   -1    0    0  501  502 -0.00000000000E+00 -0.00000000000E+00 -0.89231666912E+03  0.89231666912E+03  0.00000000000E+00 0.  1.
      99926    2    1    2    0    0  0.35527136788E-14  0.00000000000E+00 -0.83343276519E+03  0.95120057306E+03  0.45844558684E+03 0.  0.
      99925    2    3    3    0    0  0.28194868322E+02 -0.97600983615E+02 -0.40455731105E+03  0.49304932525E+03  0.26288803055E+03 0.  0.
         25    1    4    4    0    0  0.38594650495E+01 -0.72596740713E+02 -0.26826331161E+03  0.30479155941E+03  0.12509000000E+03 0.  0.
         25    1    3    3    0    0 -0.28194868322E+02  0.97600983615E+02 -0.42887545414E+03  0.45815124781E+03  0.12509000000E+03 0.  0.
         25    1    4    4    0    0  0.24335403272E+02 -0.25004242902E+02 -0.13629399944E+03  0.18825776584E+03  0.12509000000E+03 0.  0.
<mgrwt>
<rscale>  2 0.45844559E+03</rscale>
<asrwt>0</asrwt>
<pdfrwt beam="1">  1       21 0.86593976E-02 0.45844559E+03</pdfrwt>
<pdfrwt beam="2">  1       21 0.13122304E+00 0.45844559E+03</pdfrwt>
<totfact> 0.40003470E+04</totfact>
</mgrwt>
</event>
<event>
 7    0  0.4725730E-002  0.4552599E+03  0.7546771E-02  0.1026165E+00
         21   -1    0    0  502  501  0.00000000000E+00  0.00000000000E+00  0.24289919239E+02  0.24289919239E+02  0.00000000000E+00 0. -1.
         21   -1    0    0  501  502 -0.00000000000E+00 -0.00000000000E+00 -0.21332058038E+04  0.21332058038E+04  0.00000000000E+00 0. -1.
      99926    2    1    2    0    0  0.00000000000E+00  0.00000000000E+00 -0.21089158846E+04  0.21574957231E+04  0.45525991124E+03 0.  0.
      99925    2    3    3    0    0  0.91017436099E+02 -0.61347167961E+02 -0.11919364661E+04  0.12255373491E+04  0.26302396514E+03 0.  0.
         25    1    4    4    0    0  0.25796223071E+02 -0.24897426291E+01 -0.43739109151E+03  0.45566448070E+03  0.12509000000E+03 0.  0.
         25    1    4    4    0    0  0.65221213027E+02 -0.58857425332E+02 -0.75454537457E+03  0.76987286842E+03  0.12509000000E+03 0.  0.
         25    1    3    3    0    0 -0.91017436099E+02  0.61347167961E+02 -0.91697941850E+03  0.93195837393E+03  0.12509000000E+03 0.  0.
<mgrwt>
<rscale>  2 0.45525991E+03</rscale>
<asrwt>0</asrwt>
<pdfrwt beam="1">  1       21 0.35720450E-02 0.45525991E+03</pdfrwt>
<pdfrwt beam="2">  1       21 0.31370690E+00 0.45525991E+03</pdfrwt>
<totfact> 0.11281841E+04</totfact>
</mgrwt>
</event>
<event>
 7    0  0.4725730E-002  0.4601675E+03  0.7546771E-02  0.1024733E+00
         21   -1    0    0  502  501  0.00000000000E+00  0.00000000000E+00  0.99245085825E+02  0.99245085825E+02  0.00000000000E+00 0.  1.
         21   -1    0    0  501  502 -0.00000000000E+00 -0.00000000000E+00 -0.53341203485E+03  0.53341203485E+03  0.00000000000E+00 0.  1.
      99926    2    1    2    0    0  0.00000000000E+00  0.00000000000E+00 -0.43416694902E+03  0.63265712067E+03  0.46016746160E+03 0.  0.
      99925    2    3    3    0    0 -0.87290726104E+02  0.77118169832E+02 -0.29710939151E+03  0.41357000294E+03  0.26305754852E+03 0.  0.
         25    1    3    3    0    0  0.87290726104E+02 -0.77118169832E+02 -0.13705755751E+03  0.21908711773E+03  0.12509000000E+03 0.  0.
         25    1    4    4    0    0 -0.39856368004E+02  0.64200560603E+02 -0.20022487412E+03  0.24788656754E+03  0.12509000000E+03 0.  0.
         25    1    4    4    0    0 -0.47434358100E+02  0.12917609229E+02 -0.96884517386E+02  0.16568343540E+03  0.12509000000E+03 0.  0.
<mgrwt>
<rscale>  2 0.46016746E+03</rscale>
<asrwt>0</asrwt>
<pdfrwt beam="1">  1       21 0.14594866E-01 0.46016746E+03</pdfrwt>
<pdfrwt beam="2">  1       21 0.78442947E-01 0.46016746E+03</pdfrwt>
<totfact> 0.54456321E+04</totfact>
</mgrwt>
</event>
<event>
 7    0  0.4725730E-002  0.4642092E+03  0.7546771E-02  0.1023567E+00
         21   -1    0    0  502  501  0.00000000000E+00  0.00000000000E+00  0.61296432213E+03  0.61296432213E+03  0.00000000000E+00 0.  1.
         21   -1    0    0  501  502 -0.00000000000E+00 -0.00000000000E+00 -0.87888556981E+02  0.87888556981E+02  0.00000000000E+00 0.  1.
      99926    2    1    2    0    0  0.00000000000E+00  0.00000000000E+00  0.52507576515E+03  0.70085287912E+03  0.46420921901E+03 0.  0.
      99925    2    3    3    0    0 -0.95130839113E+02 -0.69903946858E+02  0.37161365031E+03  0.47034351460E+03  0.26303968958E+03 0.  0.
         25    1    3    3    0    0  0.95130839113E+02  0.69903946858E+02  0.15346211485E+03  0.23050936452E+03  0.12509000000E+03 0.  0.
         25    1    4    4    0    0 -0.82874617433E+02 -0.39072664821E+02  0.16398301809E+03  0.22568299376E+03  0.12509000000E+03 0.  0.
         25    1    4    4    0    0 -0.12256221680E+02 -0.30831282036E+02  0.20763063222E+03  0.24466052084E+03  0.12509000000E+03 0.  0.
<mgrwt>
<rscale>  2 0.46420922E+03</rscale>
<asrwt>0</asrwt>
<pdfrwt beam="1">  1       21 0.90141810E-01 0.46420922E+03</pdfrwt>
<pdfrwt beam="2">  1       21 0.12924788E-01 0.46420922E+03</pdfrwt>
<totfact> 0.49193191E+04</totfact>
</mgrwt>
</event>
<event>
 7    0  0.4725730E-002  0.4559306E+03  0.7546771E-02  0.1025968E+00
         21   -1    0    0  502  501  0.00000000000E+00  0.00000000000E+00  0.37394333960E+03  0.37394333960E+03  0.00000000000E+00 0.  1.
         21   -1    0    0  501  502 -0.00000000000E+00 -0.00000000000E+00 -0.13897342835E+03  0.13897342835E+03  0.00000000000E+00 0.  1.
      99926    2    1    2    0    0  0.00000000000E+00  0.00000000000E+00  0.23496991126E+03  0.51291676795E+03  0.45593064346E+03 0.  0.
      99925    2    3    3    0    0 -0.33055656289E+02 -0.10730007055E+03  0.16951464116E+03  0.33253416891E+03  0.26313072487E+03 0.  0.
         25    1    3    3    0    0  0.33055656289E+02  0.10730007055E+03  0.65455270100E+02  0.18038259904E+03  0.12509000000E+03 0.  0.
         25    1    4    4    0    0  0.93289132859E+01 -0.34952720016E+02  0.47131225270E+02  0.13848314610E+03  0.12509000000E+03 0.  0.
         25    1    4    4    0    0 -0.42384569575E+02 -0.72347350535E+02  0.12238341589E+03  0.19405102280E+03  0.12509000000E+03 0.  0.
<mgrwt>
<rscale>  2 0.45593064E+03</rscale>
<asrwt>0</asrwt>
<pdfrwt beam="1">  1       21 0.54991667E-01 0.45593064E+03</pdfrwt>
<pdfrwt beam="2">  1       21 0.20437269E-01 0.45593064E+03</pdfrwt>
<totfact> 0.63899193E+04</totfact>
</mgrwt>
</event>
<event>
 7    0  0.4725730E-002  0.4491953E+03  0.7546771E-02  0.1027962E+00
         21   -1    0    0  502  501  0.00000000000E+00  0.00000000000E+00  0.64302795329E+03  0.64302795329E+03  0.00000000000E+00 0.  1.
         21   -1    0    0  501  502 -0.00000000000E+00 -0.00000000000E+00 -0.78447752264E+02  0.78447752264E+02  0.00000000000E+00 0.  1.
      99926    2    1    2    0    0  0.00000000000E+00  0.00000000000E+00  0.56458020103E+03  0.72147570556E+03  0.44919526969E+03 0.  0.
      99925    2    3    3    0    0 -0.47215946466E+02 -0.96035228756E+02  0.34051648901E+03  0.44343943831E+03  0.26312534160E+03 0.  0.
         25    1    3    3    0    0  0.47215946466E+02  0.96035228756E+02  0.22406371202E+03  0.27803626725E+03  0.12509000000E+03 0.  0.
         25    1    4    4    0    0 -0.27827158067E+02 -0.22196755467E+02  0.11026171271E+03  0.17050571858E+03  0.12509000000E+03 0.  0.
         25    1    4    4    0    0 -0.19388788400E+02 -0.73838473289E+02  0.23025477630E+03  0.27293371973E+03  0.12509000000E+03 0.  0.
<mgrwt>
<rscale>  2 0.44919527E+03</rscale>
<asrwt>0</asrwt>
<pdfrwt beam="1">  1       21 0.94562931E-01 0.44919527E+03</pdfrwt>
<pdfrwt beam="2">  1       21 0.11536435E-01 0.44919527E+03</pdfrwt>
<totfact> 0.54184220E+04</totfact>
</mgrwt>
</event>
<event>
 7    0  0.4725730E-002  0.4542405E+03  0.7546771E-02  0.1026465E+00
         21   -1    0    0  502  501  0.00000000000E+00  0.00000000000E+00  0.22545411972E+03  0.22545411972E+03  0.00000000000E+00 0. -1.
         21   -1    0    0  501  502 -0.00000000000E+00 -0.00000000000E+00 -0.22879873298E+03  0.22879873298E+03  0.00000000000E+00 0. -1.
      99926    2    1    2    0    0  0.00000000000E+00  0.14210854715E-13 -0.33446132571E+01  0.45425285270E+03  0.45424053953E+03 0.  0.
      99925    2    3    3    0    0  0.35814210042E+02  0.10468036660E+03  0.18273877998E+02  0.28586192642E+03  0.26294955707E+03 0.  0.
         25    1    4    4    0    0  0.99315785883E+01  0.58236222998E+02  0.48548537077E+02  0.14661024001E+03  0.12509000000E+03 0.  0.
         25    1    3    3    0    0 -0.35814210042E+02 -0.10468036660E+03 -0.21618491255E+02  0.16839092629E+03  0.12509000000E+03 0.  0.
         25    1    4    4    0    0  0.25882631454E+02  0.46444143600E+02 -0.30274659080E+02  0.13925168641E+03  0.12509000000E+03 0.  0.
<mgrwt>
<rscale>  2 0.45424054E+03</rscale>
<asrwt>0</asrwt>
<pdfrwt beam="1">  1       21 0.33155018E-01 0.45424054E+03</pdfrwt>
<pdfrwt beam="2">  1       21 0.33646873E-01 0.45424054E+03</pdfrwt>
<totfact> 0.69017841E+04</totfact>
</mgrwt>
</event>
<event>
 7    0  0.4725730E-002  0.4519069E+03  0.7546771E-02  0.1027155E+00
         21   -1    0    0  502  501  0.00000000000E+00  0.00000000000E+00  0.24949957655E+03  0.24949957655E+03  0.00000000000E+00 0. -1.
         21   -1    0    0  501  502 -0.00000000000E+00 -0.00000000000E+00 -0.20462944278E+03  0.20462944278E+03  0.00000000000E+00 0. -1.
      99926    2    1    2    0    0  0.71054273576E-14  0.00000000000E+00  0.44870133772E+02  0.45412901934E+03  0.45190689008E+03 0.  0.
      99925    2    3    3    0    0 -0.48749595911E+02 -0.66380488741E+02 -0.45135508360E+02  0.27939660648E+03  0.26313942542E+03 0.  0.
         25    1    3    3    0    0  0.48749595911E+02  0.66380488741E+02  0.90005642132E+02  0.17473241286E+03  0.12509000000E+03 0.  0.
         25    1    4    4    0    0 -0.48181803697E+02 -0.62921486936E+02 -0.43155993044E+02  0.15424184763E+03  0.12509000000E+03 0.  0.
         25    1    4    4    0    0 -0.56779221410E+00 -0.34590018050E+01 -0.19795153161E+01  0.12515475885E+03  0.12509000000E+03 0.  0.
<mgrwt>
<rscale>  2 0.45190689E+03</rscale>
<asrwt>0</asrwt>
<pdfrwt beam="1">  1       21 0.36691114E-01 0.45190689E+03</pdfrwt>
<pdfrwt beam="2">  1       21 0.30092565E-01 0.45190689E+03</pdfrwt>
<totfact> 0.70329307E+04</totfact>
</mgrwt>
</event>
<event>
 7    0  0.4725730E-002  0.4531774E+03  0.7546771E-02  0.1026779E+00
         21   -1    0    0  502  501  0.00000000000E+00  0.00000000000E+00  0.56089541970E+03  0.56089541970E+03  0.00000000000E+00 0.  1.
         21   -1    0    0  501  502 -0.00000000000E+00 -0.00000000000E+00 -0.91536550921E+02  0.91536550921E+02  0.00000000000E+00 0.  1.
      99926    2    1    2    0    0  0.00000000000E+00 -0.71054273576E-14  0.46935886878E+03  0.65243197062E+03  0.45317736990E+03 0.  0.
      99925    2    3    3    0    0 -0.46617489827E+02  0.43201918548E+02  0.16387558821E+03  0.31626662599E+03  0.26292541562E+03 0.  0.
         25    1    4    4    0    0 -0.45769931589E+02  0.42133777405E+02  0.54037866099E+02  0.14979232593E+03  0.12509000000E+03 0.  0.
         25    1    4    4    0    0 -0.84755823829E+00  0.10681411423E+01  0.10983772211E+03  0.16647430006E+03  0.12509000000E+03 0.  0.
         25    1    3    3    0    0  0.46617489827E+02 -0.43201918548E+02  0.30548328057E+03  0.33616534463E+03  0.12509000000E+03 0.  0.
<mgrwt>
<rscale>  2 0.45317737E+03</rscale>
<asrwt>0</asrwt>
<pdfrwt beam="1">  1       21 0.82484619E-01 0.45317737E+03</pdfrwt>
<pdfrwt beam="2">  1       21 0.13461258E-01 0.45317737E+03</pdfrwt>
<totfact> 0.56367656E+04</totfact>
</mgrwt>
</event>
<event>
 7    0  0.4725730E-002  0.4624543E+03  0.7546771E-02  0.1024072E+00
         21   -1    0    0  502  501  0.00000000000E+00  0.00000000000E+00  0.11963599231E+04  0.11963599231E+04  0.00000000000E+00 0.  1.
         21   -1    0    0  501  502 -0.00000000000E+00 -0.00000000000E+00 -0.44690556752E+02  0.44690556752E+02  0.00000000000E+00 0.  1.
      99926    2    1    2    0    0 -0.14210854715E-13 -0.17763568394E-14  0.11516693664E+04  0.12410504799E+04  0.46245428332E+03 0.  0.
      99925    2    3    3    0    0  0.89490711006E+02 -0.14764824059E+02  0.50911656871E+03  0.58018120894E+03  0.26302845338E+03 0.  0.
         25    1    4    4    0    0  0.82471195725E+02  0.66755123884E+00  0.31194799257E+03  0.34606502556E+03  0.12509000000E+03 0.  0.
         25    1    4    4    0    0  0.70195152809E+01 -0.15432375298E+02  0.19716857614E+03  0.23411618338E+03  0.12509000000E+03 0.  0.
         25    1    3    3    0    0 -0.89490711006E+02  0.14764824059E+02  0.64255279765E+03  0.66086927093E+03  0.12509000000E+03 0.  0.
<mgrwt>
<rscale>  2 0.46245428E+03</rscale>
<asrwt>0</asrwt>
<pdfrwt beam="1">  1       21 0.17593526E+00 0.46245428E+03</pdfrwt>
<pdfrwt beam="2">  1       21 0.65721415E-02 0.46245428E+03</pdfrwt>
<totfact> 0.29147347E+04</totfact>
</mgrwt>
</event>
<event>
 7    0  0.4725730E-002  0.4571694E+03  0.7546771E-02  0.1025605E+00
         21   -1    0    0  502  501  0.00000000000E+00  0.00000000000E+00  0.87790101307E+02  0.87790101307E+02  0.00000000000E+00 0. -1.
         21   -1    0    0  501  502 -0.00000000000E+00 -0.00000000000E+00 -0.59518061742E+03  0.59518061742E+03  0.00000000000E+00 0. -1.
      99926    2    1    2    0    0  0.35527136788E-14 -0.14210854715E-13 -0.50739051611E+03  0.68297071872E+03  0.45716940711E+03 0.  0.
      99925    2    3    3    0    0  0.11687203922E+02 -0.11247616562E+03 -0.35160944695E+03  0.45339997107E+03  0.26297310132E+03 0.  0.
         25    1    3    3    0    0 -0.11687203922E+02  0.11247616562E+03 -0.15578106916E+03  0.22957074765E+03  0.12509000000E+03 0.  0.
         25    1    4    4    0    0 -0.27584210131E+02 -0.36113064551E+02 -0.18707938870E+03  0.22958930258E+03  0.12509000000E+03 0.  0.
         25    1    4    4    0    0  0.39271414053E+02 -0.76363101069E+02 -0.16453005824E+03  0.22381066850E+03  0.12509000000E+03 0.  0.
<mgrwt>
<rscale>  2 0.45716941E+03</rscale>
<asrwt>0</asrwt>
<pdfrwt beam="1">  1       21 0.12910308E-01 0.45716941E+03</pdfrwt>
<pdfrwt beam="2">  1       21 0.87526565E-01 0.45716941E+03</pdfrwt>
<totfact> 0.52927753E+04</totfact>
</mgrwt>
</event>
<event>
 7    0  0.4725730E-002  0.4450868E+03  0.7546771E-02  0.1029197E+00
         21   -1    0    0  502  501  0.00000000000E+00  0.00000000000E+00  0.82387139451E+03  0.82387139451E+03  0.00000000000E+00 0. -1.
         21   -1    0    0  501  502 -0.00000000000E+00 -0.00000000000E+00 -0.60113235388E+02  0.60113235388E+02  0.00000000000E+00 0. -1.
      99926    2    1    2    0    0  0.00000000000E+00  0.00000000000E+00  0.76375815912E+03  0.88398462989E+03  0.44508684576E+03 0.  0.
      99925    2    3    3    0    0  0.83816491513E+02  0.24693705757E+01  0.36457800588E+03  0.45734238529E+03  0.26308483987E+03 0.  0.
         25    1    4    4    0    0  0.21188513427E+02  0.14898970111E+02  0.22852484369E+03  0.26180535651E+03  0.12509000000E+03 0.  0.
         25    1    4    4    0    0  0.62627978086E+02 -0.12429599535E+02  0.13605316218E+03  0.19553702878E+03  0.12509000000E+03 0.  0.
         25    1    3    3    0    0 -0.83816491513E+02 -0.24693705757E+01  0.39918015324E+03  0.42664224461E+03  0.12509000000E+03 0.  0.
<mgrwt>
<rscale>  2 0.44508685E+03</rscale>
<asrwt>0</asrwt>
<pdfrwt beam="1">  1       21 0.12115755E+00 0.44508685E+03</pdfrwt>
<pdfrwt beam="2">  1       21 0.88401822E-02 0.44508685E+03</pdfrwt>
<totfact> 0.47515871E+04</totfact>
</mgrwt>
</event>
<event>
 7    0  0.4725730E-002  0.4547548E+03  0.7546771E-02  0.1026314E+00
         21   -1    0    0  502  501  0.00000000000E+00  0.00000000000E+00  0.36079478661E+03  0.36079478661E+03  0.00000000000E+00 0. -1.
         21   -1    0    0  501  502 -0.00000000000E+00 -0.00000000000E+00 -0.14329609683E+03  0.14329609683E+03  0.00000000000E+00 0. -1.
      99926    2    1    2    0    0  0.00000000000E+00  0.00000000000E+00  0.21749868978E+03  0.50409088345E+03  0.45475481165E+03 0.  0.
      99925    2    3    3    0    0  0.10312373221E+03  0.46036989538E+02  0.13792670941E+03  0.31772265464E+03  0.26300190028E+03 0.  0.
         25    1    3    3    0    0 -0.10312373221E+03 -0.46036989538E+02  0.79571980365E+02  0.18636822881E+03  0.12509000000E+03 0.  0.
         25    1    4    4    0    0  0.79400793501E+02 -0.68928219894E+01  0.69709933330E+02  0.16388709500E+03  0.12509000000E+03 0.  0.
         25    1    4    4    0    0  0.23722938705E+02  0.52929811527E+02  0.68216776084E+02  0.15383555964E+03  0.12509000000E+03 0.  0.
<mgrwt>
<rscale>  2 0.45475481E+03</rscale>
<asrwt>0</asrwt>
<pdfrwt beam="1">  1       21 0.53058057E-01 0.45475481E+03</pdfrwt>
<pdfrwt beam="2">  1       21 0.21072955E-01 0.45475481E+03</pdfrwt>
<totfact> 0.65110835E+04</totfact>
</mgrwt>
</event>
<event>
 7    0  0.4725730E-002  0.4622957E+03  0.7546771E-02  0.1024117E+00
         21   -1    0    0  502  501  0.00000000000E+00  0.00000000000E+00  0.33921673194E+02  0.33921673194E+02  0.00000000000E+00 0. -1.
         21   -1    0    0  501  502 -0.00000000000E+00 -0.00000000000E+00 -0.15750796682E+04  0.15750796682E+04  0.00000000000E+00 0. -1.
      99926    2    1    2    0    0  0.00000000000E+00  0.00000000000E+00 -0.15411579950E+04  0.16090013414E+04  0.46229573981E+03 0.  0.
      99925    2    3    3    0    0 -0.11010379356E+03  0.21338163032E+02 -0.11111446286E+04  0.11473335323E+04  0.26297088459E+03 0.  0.
         25    1    3    3    0    0  0.11010379356E+03 -0.21338163032E+02 -0.43001336646E+03  0.46166780914E+03  0.12509000000E+03 0.  0.
         25    1    4    4    0    0 -0.52294899277E+02  0.15497414553E+02 -0.39179148845E+03  0.41487709610E+03  0.12509000000E+03 0.  0.
         25    1    4    4    0    0 -0.57808894288E+02  0.58407484790E+01 -0.71935314014E+03  0.73245643620E+03  0.12509000000E+03 0.  0.
<mgrwt>
<rscale>  2 0.46229574E+03</rscale>
<asrwt>0</asrwt>
<pdfrwt beam="1">  1       21 0.49884809E-02 0.46229574E+03</pdfrwt>
<pdfrwt beam="2">  1       21 0.23162938E+00 0.46229574E+03</pdfrwt>
<totfact> 0.20066114E+04</totfact>
</mgrwt>
</event>
<event>
 7    0  0.4725730E-002  0.4636632E+03  0.7546771E-02  0.1023724E+00
         21   -1    0    0  502  501  0.00000000000E+00  0.00000000000E+00  0.14497563167E+03  0.14497563167E+03  0.00000000000E+00 0.  1.
         21   -1    0    0  501  502 -0.00000000000E+00 -0.00000000000E+00 -0.37072356556E+03  0.37072356556E+03  0.00000000000E+00 0.  1.
      99926    2    1    2    0    0  0.14210854715E-13 -0.35527136788E-14 -0.22574793389E+03  0.51569919724E+03  0.46366316694E+03 0.  0.
      99925    2    3    3    0    0 -0.10547445805E+03  0.25825704058E+02 -0.81033384313E+02  0.29574093472E+03  0.26287727707E+03 0.  0.
         25    1    4    4    0    0 -0.74819487331E+02  0.15825417293E+02 -0.68462393555E+01  0.14677458435E+03  0.12509000000E+03 0.  0.
         25    1    4    4    0    0 -0.30654970723E+02  0.10000286765E+02 -0.74187144957E+02  0.14896635037E+03  0.12509000000E+03 0.  0.
         25    1    3    3    0    0  0.10547445805E+03 -0.25825704058E+02 -0.14471454958E+03  0.21995826252E+03  0.12509000000E+03 0.  0.
<mgrwt>
<rscale>  2 0.46366317E+03</rscale>
<asrwt>0</asrwt>
<pdfrwt beam="1">  1       21 0.21319947E-01 0.46366317E+03</pdfrwt>
<pdfrwt beam="2">  1       21 0.54518170E-01 0.46366317E+03</pdfrwt>
<totfact> 0.59952164E+04</totfact>
</mgrwt>
</event>
<event>
 7    0  0.4725730E-002  0.4474327E+03  0.7546771E-02  0.1028490E+00
         21   -1    0    0  502  501  0.00000000000E+00  0.00000000000E+00  0.41597924905E+03  0.41597924905E+03  0.00000000000E+00 0. -1.
         21   -1    0    0  501  502 -0.00000000000E+00 -0.00000000000E+00 -0.12031613095E+03  0.12031613095E+03  0.00000000000E+00 0. -1.
      99926    2    1    2    0    0  0.00000000000E+00  0.17763568394E-14  0.29566311810E+03  0.53629538000E+03  0.44743273820E+03 0.  0.
      99925    2    3    3    0    0 -0.82915257934E+01  0.90957428181E+01  0.61552293117E+02  0.27057585040E+03  0.26319408066E+03 0.  0.
         25    1    4    4    0    0 -0.38485424381E+02 -0.45449952424E+01  0.51722724746E+02  0.14079962083E+03  0.12509000000E+03 0.  0.
         25    1    3    3    0    0  0.82915257934E+01 -0.90957428181E+01  0.23411082498E+03  0.26571952960E+03  0.12509000000E+03 0.  0.
         25    1    4    4    0    0  0.30193898587E+02  0.13640738061E+02  0.98295683702E+01  0.12977622957E+03  0.12509000000E+03 0.  0.
<mgrwt>
<rscale>  2 0.44743274E+03</rscale>
<asrwt>0</asrwt>
<pdfrwt beam="1">  1       21 0.61173419E-01 0.44743274E+03</pdfrwt>
<pdfrwt beam="2">  1       21 0.17693549E-01 0.44743274E+03</pdfrwt>
<totfact> 0.66686419E+04</totfact>
</mgrwt>
</event>
<event>
 7    0  0.4725730E-002  0.4571477E+03  0.7546771E-02  0.1025612E+00
         21   -1    0    0  502  501  0.00000000000E+00  0.00000000000E+00  0.59678968088E+03  0.59678968088E+03  0.00000000000E+00 0.  1.
         21   -1    0    0  501  502 -0.00000000000E+00 -0.00000000000E+00 -0.87545088847E+02  0.87545088847E+02  0.00000000000E+00 0.  1.
      99926    2    1    2    0    0  0.14210854715E-13  0.00000000000E+00  0.50924459204E+03  0.68433476973E+03  0.45714770320E+03 0.  0.
      99925    2    3    3    0    0  0.10610187741E+03 -0.40496824614E+02  0.34900753612E+03  0.45148068799E+03  0.26292765197E+03 0.  0.
         25    1    3    3    0    0 -0.10610187741E+03  0.40496824614E+02  0.16023705592E+03  0.23285408174E+03  0.12509000000E+03 0.  0.
         25    1    4    4    0    0  0.10876681866E+02 -0.26225224971E+02  0.16637072442E+03  0.21007805853E+03  0.12509000000E+03 0.  0.
         25    1    4    4    0    0  0.95225195541E+02 -0.14271599643E+02  0.18263681170E+03  0.24140262946E+03  0.12509000000E+03 0.  0.
<mgrwt>
<rscale>  2 0.45714770E+03</rscale>
<asrwt>0</asrwt>
<pdfrwt beam="1">  1       21 0.87763186E-01 0.45714770E+03</pdfrwt>
<pdfrwt beam="2">  1       21 0.12874278E-01 0.45714770E+03</pdfrwt>
<totfact> 0.52862447E+04</totfact>
</mgrwt>
</event>
<event>
 7    0  0.4725730E-002  0.4612020E+03  0.7546771E-02  0.1024433E+00
         21   -1    0    0  502  501  0.00000000000E+00  0.00000000000E+00  0.22195092892E+03  0.22195092892E+03  0.00000000000E+00 0. -1.
         21   -1    0    0  501  502 -0.00000000000E+00 -0.00000000000E+00 -0.23958821210E+03  0.23958821210E+03  0.00000000000E+00 0. -1.
      99926    2    1    2    0    0 -0.88817841970E-15 -0.17763568394E-14 -0.17637283181E+02  0.46153914102E+03  0.46120202182E+03 0.  0.
      99925    2    3    3    0    0 -0.50638370847E+01 -0.15562793652E+02  0.10688852175E+03  0.28427654715E+03  0.26290712463E+03 0.  0.
         25    1    4    4    0    0  0.23921720420E+02  0.18688552870E+02  0.69195273065E+02  0.14614035935E+03  0.12509000000E+03 0.  0.
         25    1    3    3    0    0  0.50638370847E+01  0.15562793652E+02 -0.12452580493E+03  0.17726259387E+03  0.12509000000E+03 0.  0.
         25    1    4    4    0    0 -0.28985557504E+02 -0.34251346522E+02  0.37693248685E+02  0.13813618780E+03  0.12509000000E+03 0.  0.
<mgrwt>
<rscale>  2 0.46120202E+03</rscale>
<asrwt>0</asrwt>
<pdfrwt beam="1">  1       21 0.32639842E-01 0.46120202E+03</pdfrwt>
<pdfrwt beam="2">  1       21 0.35233561E-01 0.46120202E+03</pdfrwt>
<totfact> 0.64802742E+04</totfact>
</mgrwt>
</event>
<event>
 7    0  0.4725730E-002  0.4552982E+03  0.7546771E-02  0.1026154E+00
         21   -1    0    0  502  501  0.00000000000E+00  0.00000000000E+00  0.15203655253E+04  0.15203655253E+04  0.00000000000E+00 0.  1.
         21   -1    0    0  501  502 -0.00000000000E+00 -0.00000000000E+00 -0.34086617908E+02  0.34086617908E+02  0.00000000000E+00 0.  1.
      99926    2    1    2    0    0  0.14210854715E-13  0.00000000000E+00  0.14862789073E+04  0.15544521432E+04  0.45529822640E+03 0.  0.
      99925    2    3    3    0    0 -0.88552156523E+02  0.58576369587E+02  0.79868336791E+03  0.84755200209E+03  0.26301444555E+03 0.  0.
         25    1    4    4    0    0 -0.13665914344E+02  0.38605241914E+00  0.32352835685E+03  0.34713831831E+03  0.12509000000E+03 0.  0.
         25    1    3    3    0    0  0.88552156523E+02 -0.58576369587E+02  0.68759553944E+03  0.70690014108E+03  0.12509000000E+03 0.  0.
         25    1    4    4    0    0 -0.74886242179E+02  0.58190317168E+02  0.47515501105E+03  0.50041368378E+03  0.12509000000E+03 0.  0.
<mgrwt>
<rscale>  2 0.45529823E+03</rscale>
<asrwt>0</asrwt>
<pdfrwt beam="1">  1       21 0.22358312E+00 0.45529823E+03</pdfrwt>
<pdfrwt beam="2">  1       21 0.50127389E-02 0.45529823E+03</pdfrwt>
<totfact> 0.22423641E+04</totfact>
</mgrwt>
</event>
<event>
 7    0  0.4725730E-002  0.4544072E+03  0.7546771E-02  0.1026416E+00
         21   -1    0    0  502  501  0.00000000000E+00  0.00000000000E+00  0.19617622500E+03  0.19617622500E+03  0.00000000000E+00 0.  1.
         21   -1    0    0  501  502 -0.00000000000E+00 -0.00000000000E+00 -0.26313834152E+03  0.26313834152E+03  0.00000000000E+00 0.  1.
      99926    2    1    2    0    0  0.00000000000E+00 -0.35527136788E-14 -0.66962116512E+02  0.45931456652E+03  0.45440724683E+03 0.  0.
      99925    2    3    3    0    0  0.98988618915E+02 -0.25371991203E+02 -0.89969229293E+02  0.29616028386E+03  0.26300944261E+03 0.  0.
         25    1    3    3    0    0 -0.98988618915E+02  0.25371991203E+02  0.23007112781E+02  0.16315428266E+03  0.12509000000E+03 0.  0.
         25    1    4    4    0    0  0.32159429970E+02  0.91338179986E+01 -0.74498647835E+02  0.14938277075E+03  0.12509000000E+03 0.  0.
         25    1    4    4    0    0  0.66829188946E+02 -0.34505809201E+02 -0.15470581458E+02  0.14677751311E+03  0.12509000000E+03 0.  0.
<mgrwt>
<rscale>  2 0.45440725E+03</rscale>
<asrwt>0</asrwt>
<pdfrwt beam="1">  1       21 0.28849445E-01 0.45440725E+03</pdfrwt>
<pdfrwt beam="2">  1       21 0.38696815E-01 0.45440725E+03</pdfrwt>
<totfact> 0.68554038E+04</totfact>
</mgrwt>
</event>
<event>
 7    0  0.4725730E-002  0.4538768E+03  0.7546771E-02  0.1026572E+00
         21   -1    0    0  502  501  0.00000000000E+00  0.00000000000E+00  0.20624161880E+03  0.20624161880E+03  0.00000000000E+00 0.  1.
         21   -1    0    0  501  502 -0.00000000000E+00 -0.00000000000E+00 -0.24971217388E+03  0.24971217388E+03  0.00000000000E+00 0.  1.
      99926    2    1    2    0    0 -0.71054273576E-14 -0.14210854715E-13 -0.43470555080E+02  0.45595379269E+03  0.45387682460E+03 0.  0.
      99925    2    3    3    0    0 -0.53921866025E+02 -0.79112841473E+02  0.31227904292E+02  0.28161568081E+03  0.26299391694E+03 0.  0.
         25    1    3    3    0    0  0.53921866025E+02  0.79112841473E+02 -0.74698459371E+02  0.17433811188E+03  0.12509000000E+03 0.  0.
         25    1    4    4    0    0 -0.11212508182E+02 -0.46331478199E+02 -0.21498772702E+02  0.13558035086E+03  0.12509000000E+03 0.  0.
         25    1    4    4    0    0 -0.42709357843E+02 -0.32781363273E+02  0.52726676993E+02  0.14603532995E+03  0.12509000000E+03 0.  0.
<mgrwt>
<rscale>  2 0.45387682E+03</rscale>
<asrwt>0</asrwt>
<pdfrwt beam="1">  1       21 0.30329650E-01 0.45387682E+03</pdfrwt>
<pdfrwt beam="2">  1       21 0.36722378E-01 0.45387682E+03</pdfrwt>
<totfact> 0.69093074E+04</totfact>
</mgrwt>
</event>
<event>
 7    0  0.4725730E-002  0.4580375E+03  0.7546771E-02  0.1025352E+00
         21   -1    0    0  502  501  0.00000000000E+00  0.00000000000E+00  0.11075102116E+03  0.11075102116E+03  0.00000000000E+00 0.  1.
         21   -1    0    0  501  502 -0.00000000000E+00 -0.00000000000E+00 -0.47358102622E+03  0.47358102622E+03  0.00000000000E+00 0.  1.
      99926    2    1    2    0    0  0.00000000000E+00  0.00000000000E+00 -0.36283000505E+03  0.58433204738E+03  0.45803747557E+03 0.  0.
      99925    2    3    3    0    0  0.61970850406E+02 -0.90661402153E+02 -0.18004119855E+03  0.33710920858E+03  0.26299792622E+03 0.  0.
         25    1    4    4    0    0  0.64707127096E+02 -0.58446803403E+02 -0.12286672406E+03  0.19582334158E+03  0.12509000000E+03 0.  0.
         25    1    4    4    0    0 -0.27362766896E+01 -0.32214598750E+02 -0.57174474491E+02  0.14128586701E+03  0.12509000000E+03 0.  0.
         25    1    3    3    0    0 -0.61970850406E+02  0.90661402153E+02 -0.18278880650E+03  0.24722283880E+03  0.12509000000E+03 0.  0.
<mgrwt>
<rscale>  2 0.45803748E+03</rscale>
<asrwt>0</asrwt>
<pdfrwt beam="1">  1       21 0.16286915E-01 0.45803748E+03</pdfrwt>
<pdfrwt beam="2">  1       21 0.69644270E-01 0.45803748E+03</pdfrwt>
<totfact> 0.58242096E+04</totfact>
</mgrwt>
</event>
<event>
 7    0  0.4725730E-002  0.4528783E+03  0.7546771E-02  0.1026867E+00
         21   -1    0    0  502  501  0.00000000000E+00  0.00000000000E+00  0.59324553167E+02  0.59324553167E+02  0.00000000000E+00 0. -1.
         21   -1    0    0  501  502 -0.00000000000E+00 -0.00000000000E+00 -0.86430816919E+03  0.86430816919E+03  0.00000000000E+00 0. -1.
      99926    2    1    2    0    0  0.00000000000E+00  0.00000000000E+00 -0.80498361603E+03  0.92363272236E+03  0.45287833217E+03 0.  0.
      99925    2    3    3    0    0 -0.67328364319E+02  0.65340479916E+02 -0.62918238753E+03  0.68835402167E+03  0.26297964829E+03 0.  0.
         25    1    4    4    0    0 -0.46169857484E+02  0.25835599736E+01 -0.24530093164E+03  0.27921028936E+03  0.12509000000E+03 0.  0.
         25    1    3    3    0    0  0.67328364319E+02 -0.65340479916E+02 -0.17580122850E+03  0.23527870069E+03  0.12509000000E+03 0.  0.
         25    1    4    4    0    0 -0.21158506834E+02  0.62756919942E+02 -0.38388145589E+03  0.40914373231E+03  0.12509000000E+03 0.  0.
<mgrwt>
<rscale>  2 0.45287833E+03</rscale>
<asrwt>0</asrwt>
<pdfrwt beam="1">  1       21 0.87241995E-02 0.45287833E+03</pdfrwt>
<pdfrwt beam="2">  1       21 0.12710413E+00 0.45287833E+03</pdfrwt>
<totfact> 0.42935543E+04</totfact>
</mgrwt>
</event>
<event>
 7    0  0.4725730E-002  0.4367086E+03  0.7546771E-02  0.1031761E+00
         21   -1    0    0  502  501  0.00000000000E+00  0.00000000000E+00  0.43290283635E+03  0.43290283635E+03  0.00000000000E+00 0. -1.
         21   -1    0    0  501  502 -0.00000000000E+00 -0.00000000000E+00 -0.11013697983E+03  0.11013697983E+03  0.00000000000E+00 0. -1.
      99926    2    1    2    0    0  0.00000000000E+00 -0.35527136788E-14  0.32276585652E+03  0.54303981619E+03  0.43670864868E+03 0.  0.
      99925    2    3    3    0    0  0.76632011580E+02  0.18681679036E+02  0.14076083688E+03  0.30853010294E+03  0.26297479137E+03 0.  0.
         25    1    4    4    0    0  0.18956514062E+02 -0.25758907609E+02  0.55411609709E+02  0.14050204745E+03  0.12509000000E+03 0.  0.
         25    1    3    3    0    0 -0.76632011580E+02 -0.18681679036E+02  0.18200501964E+03  0.23450971324E+03  0.12509000000E+03 0.  0.
         25    1    4    4    0    0  0.57675497518E+02  0.44440586646E+02  0.85349227170E+02  0.16802805550E+03  0.12509000000E+03 0.  0.
<mgrwt>
<rscale>  2 0.43670865E+03</rscale>
<asrwt>0</asrwt>
<pdfrwt beam="1">  1       21 0.63662181E-01 0.43670865E+03</pdfrwt>
<pdfrwt beam="2">  1       21 0.16196615E-01 0.43670865E+03</pdfrwt>
<totfact> 0.72229389E+04</totfact>
</mgrwt>
</event>
<event>
 7    0  0.4725730E-002  0.4412823E+03  0.7546771E-02  0.1030354E+00
         21   -1    0    0  502  501  0.00000000000E+00  0.00000000000E+00  0.62843810649E+03  0.62843810649E+03  0.00000000000E+00 0. -1.
         21   -1    0    0  501  502 -0.00000000000E+00 -0.00000000000E+00 -0.77465901754E+02  0.77465901754E+02  0.00000000000E+00 0. -1.
      99926    2    1    2    0    0 -0.71054273576E-14 -0.14210854715E-13  0.55097220474E+03  0.70590400824E+03  0.44128233418E+03 0.  0.
      99925    2    3    3    0    0  0.43346764846E+02  0.71910732050E+02  0.43742668686E+03  0.51725038878E+03  0.26297483323E+03 0.  0.
         25    1    3    3    0    0 -0.43346764846E+02 -0.71910732050E+02  0.11354551787E+03  0.18865361946E+03  0.12509000000E+03 0.  0.
         25    1    4    4    0    0 -0.12664467491E+02  0.39940655159E+02  0.17139173420E+03  0.21628286877E+03  0.12509000000E+03 0.  0.
         25    1    4    4    0    0  0.56011232337E+02  0.31970076890E+02  0.26603495266E+03  0.30096752001E+03  0.12509000000E+03 0.  0.
<mgrwt>
<rscale>  2 0.44128233E+03</rscale>
<asrwt>0</asrwt>
<pdfrwt beam="1">  1       21 0.92417366E-01 0.44128233E+03</pdfrwt>
<pdfrwt beam="2">  1       21 0.11392045E-01 0.44128233E+03</pdfrwt>
<totfact> 0.58663674E+04</totfact>
</mgrwt>
</event>
<event>
 7    0  0.4725730E-002  0.4546013E+03  0.7546771E-02  0.1026359E+00
         21   -1    0    0  502  501  0.00000000000E+00  0.00000000000E+00  0.33453139177E+03  0.33453139177E+03  0.00000000000E+00 0. -1.
         21   -1    0    0  501  502 -0.00000000000E+00 -0.00000000000E+00 -0.15444166873E+03  0.15444166873E+03  0.00000000000E+00 0. -1.
      99926    2    1    2    0    0  0.00000000000E+00  0.00000000000E+00  0.18008972305E+03  0.48897306050E+03  0.45460130394E+03 0.  0.
      99925    2    3    3    0    0  0.47502217955E+02  0.83542120186E+02  0.17644117806E+03  0.33118660184E+03  0.26328184397E+03 0.  0.
         25    1    4    4    0    0  0.60404819531E+02  0.45595787758E+02  0.11581577812E+03  0.18651681062E+03  0.12509000000E+03 0.  0.
         25    1    3    3    0    0 -0.47502217955E+02 -0.83542120186E+02  0.36485449848E+01  0.15778645866E+03  0.12509000000E+03 0.  0.
         25    1    4    4    0    0 -0.12902601576E+02  0.37946332427E+02  0.60625399944E+02  0.14466979122E+03  0.12509000000E+03 0.  0.
<mgrwt>
<rscale>  2 0.45460130E+03</rscale>
<asrwt>0</asrwt>
<pdfrwt beam="1">  1       21 0.49195793E-01 0.45460130E+03</pdfrwt>
<pdfrwt beam="2">  1       21 0.22712010E-01 0.45460130E+03</pdfrwt>
<totfact> 0.66261978E+04</totfact>
</mgrwt>
</event>
<event>
 7    0  0.4725730E-002  0.4518046E+03  0.7546771E-02  0.1027185E+00
         21   -1    0    0  502  501  0.00000000000E+00  0.00000000000E+00  0.15902896387E+03  0.15902896387E+03  0.00000000000E+00 0.  1.
         21   -1    0    0  501  502 -0.00000000000E+00 -0.00000000000E+00 -0.32089660035E+03  0.32089660035E+03  0.00000000000E+00 0.  1.
      99926    2    1    2    0    0  0.00000000000E+00  0.17763568394E-14 -0.16186763648E+03  0.47992556423E+03  0.45180462089E+03 0.  0.
      99925    2    3    3    0    0  0.92121540630E+01 -0.15361836961E+02 -0.21753528901E+03  0.34184136725E+03  0.26308376723E+03 0.  0.
         25    1    4    4    0    0  0.42192192652E+02 -0.20522072563E+02 -0.98700637404E+02  0.16610436631E+03  0.12509000000E+03 0.  0.
         25    1    4    4    0    0 -0.32980038589E+02  0.51602356022E+01 -0.11883465161E+03  0.17573700094E+03  0.12509000000E+03 0.  0.
         25    1    3    3    0    0 -0.92121540630E+01  0.15361836961E+02  0.55667652529E+02  0.13808419698E+03  0.12509000000E+03 0.  0.
<mgrwt>
<rscale>  2 0.45180462E+03</rscale>
<asrwt>0</asrwt>
<pdfrwt beam="1">  1       21 0.23386612E-01 0.45180462E+03</pdfrwt>
<pdfrwt beam="2">  1       21 0.47190676E-01 0.45180462E+03</pdfrwt>
<totfact> 0.68424668E+04</totfact>
</mgrwt>
</event>
<event>
 7    0  0.4725730E-002  0.4490863E+03  0.7546771E-02  0.1027995E+00
         21   -1    0    0  502  501  0.00000000000E+00  0.00000000000E+00  0.17121516392E+03  0.17121516392E+03  0.00000000000E+00 0.  1.
         21   -1    0    0  501  502 -0.00000000000E+00 -0.00000000000E+00 -0.29448109722E+03  0.29448109722E+03  0.00000000000E+00 0.  1.
      99926    2    1    2    0    0  0.00000000000E+00  0.00000000000E+00 -0.12326593330E+03  0.46569626114E+03  0.44908631389E+03 0.  0.
      99925    2    3    3    0    0 -0.33947278809E+02 -0.97042439444E+02 -0.45706370293E+02  0.28616173324E+03  0.26311558771E+03 0.  0.
         25    1    4    4    0    0  0.19959507251E+02 -0.33377687574E+02 -0.84997037416E+01  0.13127149356E+03  0.12509000000E+03 0.  0.
         25    1    4    4    0    0 -0.53906786060E+02 -0.63664751870E+02 -0.37206666551E+02  0.15489023969E+03  0.12509000000E+03 0.  0.
         25    1    3    3    0    0  0.33947278809E+02  0.97042439444E+02 -0.77559563010E+02  0.17953452789E+03  0.12509000000E+03 0.  0.
<mgrwt>
<rscale>  2 0.44908631E+03</rscale>
<asrwt>0</asrwt>
<pdfrwt beam="1">  1       21 0.25178701E-01 0.44908631E+03</pdfrwt>
<pdfrwt beam="2">  1       21 0.43306043E-01 0.44908631E+03</pdfrwt>
<totfact> 0.71031462E+04</totfact>
</mgrwt>
</event>
<event>
 7    0  0.4725730E-002  0.4550066E+03  0.7546771E-02  0.1026239E+00
         21   -1    0    0  502  501  0.00000000000E+00  0.00000000000E+00  0.18135295571E+03  0.18135295571E+03  0.00000000000E+00 0. -1.
         21   -1    0    0  501  502 -0.00000000000E+00 -0.00000000000E+00 -0.28539794615E+03  0.28539794615E+03  0.00000000000E+00 0. -1.
      99926    2    1    2    0    0  0.00000000000E+00  0.00000000000E+00 -0.10404499044E+03  0.46675090186E+03  0.45500664209E+03 0.  0.
      99925    2    3    3    0    0 -0.10741504185E+03  0.33065345931E+02 -0.79222865381E+02  0.29676574277E+03  0.26298732929E+03 0.  0.
         25    1    4    4    0    0 -0.76266012207E+02  0.21096823000E+01 -0.73855366885E+02  0.16408253623E+03  0.12509000000E+03 0.  0.
         25    1    3    3    0    0  0.10741504185E+03 -0.33065345931E+02 -0.24822125061E+02  0.16998515908E+03  0.12509000000E+03 0.  0.
         25    1    4    4    0    0 -0.31149029639E+02  0.30955663631E+02 -0.53674984963E+01  0.13268320654E+03  0.12509000000E+03 0.  0.
<mgrwt>
<rscale>  2 0.45500664E+03</rscale>
<asrwt>0</asrwt>
<pdfrwt beam="1">  1       21 0.26669553E-01 0.45500664E+03</pdfrwt>
<pdfrwt beam="2">  1       21 0.41970286E-01 0.45500664E+03</pdfrwt>
<totfact> 0.67674862E+04</totfact>
</mgrwt>
</event>
<event>
 7    0  0.4725730E-002  0.4177019E+03  0.7546771E-02  0.1037817E+00
         21   -1    0    0  502  501  0.00000000000E+00  0.00000000000E+00  0.37269874451E+02  0.37269874451E+02  0.00000000000E+00 0.  1.
         21   -1    0    0  501  502 -0.00000000000E+00 -0.00000000000E+00 -0.11703479017E+04  0.11703479017E+04  0.00000000000E+00 0.  1.
      99926    2    1    2    0    0 -0.88817841970E-15 -0.71054273576E-14 -0.11330780272E+04  0.12076177761E+04  0.41770190021E+03 0.  0.
      99925    2    3    3    0    0 -0.72242886218E+01 -0.56980214259E+02 -0.87014429093E+03  0.91083402835E+03  0.26299924904E+03 0.  0.
         25    1    4    4    0    0 -0.62241289284E+00  0.11248856726E+02 -0.36925035231E+03  0.39002596703E+03  0.12509000000E+03 0.  0.
         25    1    4    4    0    0 -0.66018757289E+01 -0.68229070986E+02 -0.50089393862E+03  0.52080806132E+03  0.12509000000E+03 0.  0.
         25    1    3    3    0    0  0.72242886218E+01  0.56980214259E+02 -0.26293373631E+03  0.29678374779E+03  0.12509000000E+03 0.  0.
<mgrwt>
<rscale>  2 0.41770190E+03</rscale>
<asrwt>0</asrwt>
<pdfrwt beam="1">  1       21 0.54808644E-02 0.41770190E+03</pdfrwt>
<pdfrwt beam="2">  1       21 0.17210997E+00 0.41770190E+03</pdfrwt>
<totfact> 0.43151001E+04</totfact>
</mgrwt>
</event>
<event>
 7    0  0.4725730E-002  0.4512948E+03  0.7546771E-02  0.1027337E+00
         21   -1    0    0  502  501  0.00000000000E+00  0.00000000000E+00  0.69610469012E+02  0.69610469012E+02  0.00000000000E+00 0. -1.
         21   -1    0    0  501  502 -0.00000000000E+00 -0.00000000000E+00 -0.73145230839E+03  0.73145230839E+03  0.00000000000E+00 0. -1.
      99926    2    1    2    0    0  0.00000000000E+00  0.00000000000E+00 -0.66184183938E+03  0.80106277740E+03  0.45129475179E+03 0.  0.
      99925    2    3    3    0    0 -0.82651937182E+02  0.50913565953E+02 -0.50849398081E+03  0.58063907689E+03  0.26296782157E+03 0.  0.
         25    1    4    4    0    0 -0.26809007280E+02 -0.45461600435E+01 -0.18484258836E+03  0.22484145751E+03  0.12509000000E+03 0.  0.
         25    1    4    4    0    0 -0.55842929902E+02  0.55459725996E+02 -0.32365139245E+03  0.35579761939E+03  0.12509000000E+03 0.  0.
         25    1    3    3    0    0  0.82651937182E+02 -0.50913565953E+02 -0.15334785857E+03  0.22042370051E+03  0.12509000000E+03 0.  0.
<mgrwt>
<rscale>  2 0.45129475E+03</rscale>
<asrwt>0</asrwt>
<pdfrwt beam="1">  1       21 0.10236834E-01 0.45129475E+03</pdfrwt>
<pdfrwt beam="2">  1       21 0.10756652E+00 0.45129475E+03</pdfrwt>
<totfact> 0.49126437E+04</totfact>
</mgrwt>
</event>
<event>
 7    0  0.4725730E-002  0.4550187E+03  0.7546771E-02  0.1026236E+00
         21   -1    0    0  502  501  0.00000000000E+00  0.00000000000E+00  0.30407920726E+03  0.30407920726E+03  0.00000000000E+00 0.  1.
         21   -1    0    0  501  502 -0.00000000000E+00 -0.00000000000E+00 -0.17022046862E+03  0.17022046862E+03  0.00000000000E+00 0.  1.
      99926    2    1    2    0    0  0.14210854715E-13 -0.35527136788E-14  0.13385873864E+03  0.47429967588E+03  0.45501870361E+03 0.  0.
      99925    2    3    3    0    0 -0.93162196786E+02 -0.31919365311E+02  0.26045246530E+02  0.28202565795E+03  0.26298683633E+03 0.  0.
         25    1    4    4    0    0 -0.45669573258E+02 -0.36275208618E+02 -0.22063014889E+02  0.13977083175E+03  0.12509000000E+03 0.  0.
         25    1    3    3    0    0  0.93162196786E+02  0.31919365311E+02  0.10781349211E+03  0.19227401793E+03  0.12509000000E+03 0.  0.
         25    1    4    4    0    0 -0.47492623528E+02  0.43558433069E+01  0.48108261420E+02  0.14225482620E+03  0.12509000000E+03 0.  0.
<mgrwt>
<rscale>  2 0.45501870E+03</rscale>
<asrwt>0</asrwt>
<pdfrwt beam="1">  1       21 0.44717531E-01 0.45501870E+03</pdfrwt>
<pdfrwt beam="2">  1       21 0.25032422E-01 0.45501870E+03</pdfrwt>
<totfact> 0.67107494E+04</totfact>
</mgrwt>
</event>
<event>
 7    0  0.4725730E-002  0.4551752E+03  0.7546771E-02  0.1026190E+00
         21   -1    0    0  502  501  0.00000000000E+00  0.00000000000E+00  0.49583465627E+03  0.49583465627E+03  0.00000000000E+00 0.  1.
         21   -1    0    0  501  502 -0.00000000000E+00 -0.00000000000E+00 -0.10446248775E+03  0.10446248775E+03  0.00000000000E+00 0.  1.
      99926    2    1    2    0    0 -0.35527136788E-14 -0.14210854715E-13  0.39137216851E+03  0.60029714402E+03  0.45517522651E+03 0.  0.
      99925    2    3    3    0    0 -0.18231427872E+02 -0.11119786198E+03  0.23114469857E+03  0.36788006268E+03  0.26307892232E+03 0.  0.
         25    1    4    4    0    0 -0.36039952407E+02 -0.71865844415E+02  0.87328268239E+02  0.17244509937E+03  0.12509000000E+03 0.  0.
         25    1    3    3    0    0  0.18231427872E+02  0.11119786198E+03  0.16022746995E+03  0.23241708134E+03  0.12509000000E+03 0.  0.
         25    1    4    4    0    0  0.17808524536E+02 -0.39332017570E+02  0.14381643033E+03  0.19543496331E+03  0.12509000000E+03 0.  0.
<mgrwt>
<rscale>  2 0.45517523E+03</rscale>
<asrwt>0</asrwt>
<pdfrwt beam="1">  1       21 0.72916860E-01 0.45517523E+03</pdfrwt>
<pdfrwt beam="2">  1       21 0.15362131E-01 0.45517523E+03</pdfrwt>
<totfact> 0.58578837E+04</totfact>
</mgrwt>
</event>
<event>
 7    0  0.4725730E-002  0.4615773E+03  0.7546771E-02  0.1024325E+00
         21   -1    0    0  502  501  0.00000000000E+00  0.00000000000E+00  0.13992193399E+04  0.13992193399E+04  0.00000000000E+00 0.  1.
         21   -1    0    0  501  502 -0.00000000000E+00 -0.00000000000E+00 -0.38066518126E+02  0.38066518126E+02  0.00000000000E+00 0.  1.
      99926    2    1    2    0    0  0.71054273576E-14  0.11102230246E-14  0.13611528217E+04  0.14372858580E+04  0.46157733204E+03 0.  0.
      99925    2    3    3    0    0 -0.31792526529E+02 -0.16500185687E+01  0.49379752496E+03  0.56037867575E+03  0.26301098319E+03 0.  0.
         25    1    4    4    0    0 -0.42442308599E+02  0.21434962291E+02  0.20744594128E+03  0.24686460626E+03  0.12509000000E+03 0.  0.
         25    1    4    4    0    0  0.10649782070E+02 -0.23084980860E+02  0.28635158367E+03  0.31351406950E+03  0.12509000000E+03 0.  0.
         25    1    3    3    0    0  0.31792526529E+02  0.16500185687E+01  0.86735529678E+03  0.87690718224E+03  0.12509000000E+03 0.  0.
<mgrwt>
<rscale>  2 0.46157733E+03</rscale>
<asrwt>0</asrwt>
<pdfrwt beam="1">  1       21 0.20576752E+00 0.46157733E+03</pdfrwt>
<pdfrwt beam="2">  1       21 0.55980183E-02 0.46157733E+03</pdfrwt>
<totfact> 0.24099792E+04</totfact>
</mgrwt>
</event>
<event>
 7    0  0.4725730E-002  0.4560033E+03  0.7546771E-02  0.1025947E+00
         21   -1    0    0  502  501  0.00000000000E+00  0.00000000000E+00  0.13658416897E+03  0.13658416897E+03  0.00000000000E+00 0.  1.
         21   -1    0    0  501  502 -0.00000000000E+00 -0.00000000000E+00 -0.38060605233E+03  0.38060605233E+03  0.00000000000E+00 0.  1.
      99926    2    1    2    0    0  0.00000000000E+00  0.71054273576E-14 -0.24402188336E+03  0.51719022130E+03  0.45600333929E+03 0.  0.
      99925    2    3    3    0    0 -0.64236511484E+02  0.55880786506E+02 -0.67164695379E+02  0.28443506078E+03  0.26295097601E+03 0.  0.
         25    1    4    4    0    0 -0.13712480484E+02  0.75116242479E+01  0.22800590782E+00  0.12606354234E+03  0.12509000000E+03 0.  0.
         25    1    4    4    0    0 -0.50524031000E+02  0.48369162258E+02 -0.67392701287E+02  0.15837151844E+03  0.12509000000E+03 0.  0.
         25    1    3    3    0    0  0.64236511484E+02 -0.55880786506E+02 -0.17685718798E+03  0.23275516052E+03  0.12509000000E+03 0.  0.
<mgrwt>
<rscale>  2 0.45600334E+03</rscale>
<asrwt>0</asrwt>
<pdfrwt beam="1">  1       21 0.20085907E-01 0.45600334E+03</pdfrwt>
<pdfrwt beam="2">  1       21 0.55971478E-01 0.45600334E+03</pdfrwt>
<totfact> 0.63571498E+04</totfact>
</mgrwt>
</event>
<event>
 7    0  0.4725730E-002  0.4537408E+03  0.7546771E-02  0.1026612E+00
         21   -1    0    0  502  501  0.00000000000E+00  0.00000000000E+00  0.50324863160E+03  0.50324863160E+03  0.00000000000E+00 0. -1.
         21   -1    0    0  501  502 -0.00000000000E+00 -0.00000000000E+00 -0.10227584252E+03  0.10227584252E+03  0.00000000000E+00 0. -1.
      99926    2    1    2    0    0  0.00000000000E+00  0.00000000000E+00  0.40097278908E+03  0.60552447412E+03  0.45374079735E+03 0.  0.
      99925    2    3    3    0    0  0.84910655663E+02 -0.47144888288E+02  0.32693490367E+03  0.43070577800E+03  0.26303721416E+03 0.  0.
         25    1    4    4    0    0  0.94155967721E+01 -0.32828108992E+02  0.18943418116E+03  0.22956296586E+03  0.12509000000E+03 0.  0.
         25    1    4    4    0    0  0.75495058891E+02 -0.14316779296E+02  0.13750072251E+03  0.20114281214E+03  0.12509000000E+03 0.  0.
         25    1    3    3    0    0 -0.84910655663E+02  0.47144888288E+02  0.74037885414E+02  0.17481869612E+03  0.12509000000E+03 0.  0.
<mgrwt>
<rscale>  2 0.45374080E+03</rscale>
<asrwt>0</asrwt>
<pdfrwt beam="1">  1       21 0.74007151E-01 0.45374080E+03</pdfrwt>
<pdfrwt beam="2">  1       21 0.15040565E-01 0.45374080E+03</pdfrwt>
<totfact> 0.58923469E+04</totfact>
</mgrwt>
</event>
<event>
 6    0  0.4969081E-002  0.4483914E+03  0.7546771E-02  0.1028203E+00
         21   -1    0    0  502  501  0.00000000000E+00  0.00000000000E+00  0.22237129798E+03  0.22237129798E+03  0.00000000000E+00 0. -1.
         21   -1    0    0  501  502 -0.00000000000E+00 -0.00000000000E+00 -0.22603508216E+03  0.22603508216E+03  0.00000000000E+00 0. -1.
      99926    2    1    2    0    0  0.00000000000E+00 -0.17763568394E-14 -0.36637841795E+01  0.44840638015E+03  0.44839141210E+03 0.  0.
         25    1    3    3    0    0 -0.59225629154E+02  0.14982036431E+02 -0.82060129379E+02  0.16159674965E+03  0.12509000000E+03 0.  0.
         25    1    3    3    0    0  0.56408368261E+02 -0.24644589030E+02  0.81095717626E+02  0.16128633946E+03  0.12509000000E+03 0.  0.
         25    1    3    3    0    0  0.28172608924E+01  0.96625525983E+01 -0.26993724273E+01  0.12552329104E+03  0.12509000000E+03 0.  0.
<mgrwt>
<rscale>  2 0.44839141E+03</rscale>
<asrwt>0</asrwt>
<pdfrwt beam="1">  1       21 0.32701662E-01 0.44839141E+03</pdfrwt>
<pdfrwt beam="2">  1       21 0.33240453E-01 0.44839141E+03</pdfrwt>
<totfact> 0.72794950E+04</totfact>
</mgrwt>
</event>
<event>
 7    0  0.4725730E-002  0.4542694E+03  0.7546771E-02  0.1026456E+00
         21   -1    0    0  502  501  0.00000000000E+00  0.00000000000E+00  0.11223488159E+03  0.11223488159E+03  0.00000000000E+00 0. -1.
         21   -1    0    0  501  502 -0.00000000000E+00 -0.00000000000E+00 -0.45966264084E+03  0.45966264084E+03  0.00000000000E+00 0. -1.
      99926    2    1    2    0    0  0.00000000000E+00  0.00000000000E+00 -0.34742775924E+03  0.57189752243E+03  0.45426944457E+03 0.  0.
      99925    2    3    3    0    0  0.22088319458E+02 -0.97194055924E+02 -0.15348472031E+03  0.32050939858E+03  0.26312380516E+03 0.  0.
         25    1    3    3    0    0 -0.22088319458E+02  0.97194055924E+02 -0.19394303893E+03  0.25138812385E+03  0.12509000000E+03 0.  0.
         25    1    4    4    0    0  0.27281867295E+02 -0.16751764271E+02 -0.96337182413E+02  0.16110022565E+03  0.12509000000E+03 0.  0.
         25    1    4    4    0    0 -0.51935478370E+01 -0.80442291653E+02 -0.57147537897E+02  0.15940917293E+03  0.12509000000E+03 0.  0.
<mgrwt>
<rscale>  2 0.45426944E+03</rscale>
<asrwt>0</asrwt>
<pdfrwt beam="1">  1       21 0.16505130E-01 0.45426944E+03</pdfrwt>
<pdfrwt beam="2">  1       21 0.67597447E-01 0.45426944E+03</pdfrwt>
<totfact> 0.60792702E+04</totfact>
</mgrwt>
</event>
<event>
 7    0  0.4725730E-002  0.4549878E+03  0.7546771E-02  0.1026245E+00
         21   -1    0    0  502  501  0.00000000000E+00  0.00000000000E+00  0.17574704691E+03  0.17574704691E+03  0.00000000000E+00 0. -1.
         21   -1    0    0  501  502 -0.00000000000E+00 -0.00000000000E+00 -0.29447708960E+03  0.29447708960E+03  0.00000000000E+00 0. -1.
      99926    2    1    2    0    0  0.00000000000E+00  0.00000000000E+00 -0.11873004270E+03  0.47022413651E+03  0.45498781909E+03 0.  0.
      99925    2    3    3    0    0  0.30539925973E+02 -0.39386967980E+02 -0.17965983279E+03  0.32242708733E+03  0.26305427350E+03 0.  0.
         25    1    4    4    0    0  0.81902184075E+00 -0.50488741030E+02 -0.64754415655E+02  0.14963430828E+03  0.12509000000E+03 0.  0.
         25    1    4    4    0    0  0.29720904132E+02  0.11101773051E+02 -0.11490541713E+03  0.17279277905E+03  0.12509000000E+03 0.  0.
         25    1    3    3    0    0 -0.30539925973E+02  0.39386967980E+02  0.60929790089E+02  0.14779704918E+03  0.12509000000E+03 0.  0.
<mgrwt>
<rscale>  2 0.45498782E+03</rscale>
<asrwt>0</asrwt>
<pdfrwt beam="1">  1       21 0.25845154E-01 0.45498782E+03</pdfrwt>
<pdfrwt beam="2">  1       21 0.43305454E-01 0.45498782E+03</pdfrwt>
<totfact> 0.67425560E+04</totfact>
</mgrwt>
</event>
<event>
 7    0  0.4725730E-002  0.4520067E+03  0.7546771E-02  0.1027125E+00
         21   -1    0    0  502  501  0.00000000000E+00  0.00000000000E+00  0.11264581774E+03  0.11264581774E+03  0.00000000000E+00 0.  1.
         21   -1    0    0  501  502 -0.00000000000E+00 -0.00000000000E+00 -0.45343454461E+03  0.45343454461E+03  0.00000000000E+00 0.  1.
      99926    2    1    2    0    0  0.00000000000E+00  0.00000000000E+00 -0.34078872687E+03  0.56608036235E+03  0.45200665954E+03 0.  0.
      99925    2    3    3    0    0  0.10959536062E+03  0.68421418494E+01 -0.22854250149E+03  0.36532010436E+03  0.26300027697E+03 0.  0.
         25    1    4    4    0    0  0.41130227591E+02 -0.29117197422E+01 -0.61173559998E+02  0.14522357342E+03  0.12509000000E+03 0.  0.
         25    1    3    3    0    0 -0.10959536062E+03 -0.68421418494E+01 -0.11224622538E+03  0.20076025799E+03  0.12509000000E+03 0.  0.
         25    1    4    4    0    0  0.68465133030E+02  0.97538615916E+01 -0.16736894149E+03  0.22009653094E+03  0.12509000000E+03 0.  0.
<mgrwt>
<rscale>  2 0.45200666E+03</rscale>
<asrwt>0</asrwt>
<pdfrwt beam="1">  1       21 0.16565561E-01 0.45200666E+03</pdfrwt>
<pdfrwt beam="2">  1       21 0.66681551E-01 0.45200666E+03</pdfrwt>
<totfact> 0.62277507E+04</totfact>
</mgrwt>
</event>
<event>
 7    0  0.4725730E-002  0.4505378E+03  0.7546771E-02  0.1027562E+00
         21   -1    0    0  502  501  0.00000000000E+00  0.00000000000E+00  0.94849551365E+02  0.94849551365E+02  0.00000000000E+00 0.  1.
         21   -1    0    0  501  502 -0.00000000000E+00 -0.00000000000E+00 -0.53501656012E+03  0.53501656012E+03  0.00000000000E+00 0.  1.
      99926    2    1    2    0    0  0.00000000000E+00  0.00000000000E+00 -0.44016700876E+03  0.62986611149E+03  0.45053781506E+03 0.  0.
      99925    2    3    3    0    0  0.54332646443E+02  0.92475660290E+02 -0.30500355013E+03  0.41674536434E+03  0.26295579266E+03 0.  0.
         25    1    4    4    0    0  0.82562911418E+01  0.20105913820E+02 -0.99408616783E+02  0.16125134202E+03  0.12509000000E+03 0.  0.
         25    1    3    3    0    0 -0.54332646443E+02 -0.92475660290E+02 -0.13516345863E+03  0.21312074715E+03  0.12509000000E+03 0.  0.
         25    1    4    4    0    0  0.46076355301E+02  0.72369746471E+02 -0.20559493334E+03  0.25549402231E+03  0.12509000000E+03 0.  0.
<mgrwt>
<rscale>  2 0.45053782E+03</rscale>
<asrwt>0</asrwt>
<pdfrwt beam="1">  1       21 0.13948463E-01 0.45053782E+03</pdfrwt>
<pdfrwt beam="2">  1       21 0.78678907E-01 0.45053782E+03</pdfrwt>
<totfact> 0.58924867E+04</totfact>
</mgrwt>
</event>
<event>
 7    0  0.4725730E-002  0.4548483E+03  0.7546771E-02  0.1026286E+00
         21   -1    0    0  502  501  0.00000000000E+00  0.00000000000E+00  0.27565392079E+02  0.27565392079E+02  0.00000000000E+00 0.  1.
         21   -1    0    0  501  502 -0.00000000000E+00 -0.00000000000E+00 -0.18763291036E+04  0.18763291036E+04  0.00000000000E+00 0.  1.
      99926    2    1    2    0    0  0.14210854715E-13  0.35527136788E-14 -0.18487637115E+04  0.19038944957E+04  0.45484831498E+03 0.  0.
      99925    2    3    3    0    0 -0.10459739121E+03 -0.28385969942E+02 -0.12977257732E+04  0.13285366114E+04  0.26300374070E+03 0.  0.
         25    1    4    4    0    0 -0.69987887162E+02 -0.52763774539E+01 -0.84185335456E+03  0.85398520080E+03  0.12509000000E+03 0.  0.
         25    1    3    3    0    0  0.10459739121E+03  0.28385969942E+02 -0.55103793828E+03  0.57535788433E+03  0.12509000000E+03 0.  0.
         25    1    4    4    0    0 -0.34609504052E+02 -0.23109592488E+02 -0.45587241869E+03  0.47455141055E+03  0.12509000000E+03 0.  0.
<mgrwt>
<rscale>  2 0.45484831E+03</rscale>
<asrwt>0</asrwt>
<pdfrwt beam="1">  1       21 0.40537328E-02 0.45484831E+03</pdfrwt>
<pdfrwt beam="2">  1       21 0.27593084E+00 0.45484831E+03</pdfrwt>
<totfact> 0.15360986E+04</totfact>
</mgrwt>
</event>
<event>
 7    0  0.4725730E-002  0.4599852E+03  0.7546771E-02  0.1024786E+00
         21   -1    0    0  502  501  0.00000000000E+00  0.00000000000E+00  0.10705887121E+03  0.10705887121E+03  0.00000000000E+00 0. -1.
         21   -1    0    0  501  502 -0.00000000000E+00 -0.00000000000E+00 -0.49408882759E+03  0.49408882759E+03  0.00000000000E+00 0. -1.
      99926    2    1    2    0    0  0.00000000000E+00  0.00000000000E+00 -0.38702995638E+03  0.60114769879E+03  0.45998518305E+03 0.  0.
      99925    2    3    3    0    0 -0.99622067349E+02 -0.46705751189E+02 -0.29770609500E+03  0.41211795561E+03  0.26288078445E+03 0.  0.
         25    1    4    4    0    0 -0.65592439676E+02 -0.59075579957E+02 -0.18281708920E+03  0.23845730958E+03  0.12509000000E+03 0.  0.
         25    1    4    4    0    0 -0.34029627672E+02  0.12369828768E+02 -0.11488900580E+03  0.17366064602E+03  0.12509000000E+03 0.  0.
         25    1    3    3    0    0  0.99622067349E+02  0.46705751189E+02 -0.89323861378E+02  0.18902974318E+03  0.12509000000E+03 0.  0.
<mgrwt>
<rscale>  2 0.45998518E+03</rscale>
<asrwt>0</asrwt>
<pdfrwt beam="1">  1       21 0.15743952E-01 0.45998518E+03</pdfrwt>
<pdfrwt beam="2">  1       21 0.72660121E-01 0.45998518E+03</pdfrwt>
<totfact> 0.56354903E+04</totfact>
</mgrwt>
</event>
<event>
 7    0  0.4725730E-002  0.4070233E+03  0.7546771E-02  0.1041375E+00
         21   -1    0    0  502  501  0.00000000000E+00  0.00000000000E+00  0.46115552695E+03  0.46115552695E+03  0.00000000000E+00 0. -1.
         21   -1    0    0  501  502 -0.00000000000E+00 -0.00000000000E+00 -0.89811316538E+02  0.89811316538E+02  0.00000000000E+00 0. -1.
      99926    2    1    2    0    0  0.71054273576E-14  0.00000000000E+00  0.37134421041E+03  0.55096684348E+03  0.40702326717E+03 0.  0.
      99925    2    3    3    0    0 -0.41230416808E+02 -0.36587452742E+02  0.22282535962E+03  0.34911554647E+03  0.26304359891E+03 0.  0.
         25    1    3    3    0    0  0.41230416808E+02  0.36587452742E+02  0.14851885078E+03  0.20185129701E+03  0.12509000000E+03 0.  0.
         25    1    4    4    0    0  0.12285973147E+02 -0.40187092127E+02  0.97175888622E+02  0.16387986130E+03  0.12509000000E+03 0.  0.
         25    1    4    4    0    0 -0.53516389955E+02  0.35996393847E+01  0.12564947100E+03  0.18523568517E+03  0.12509000000E+03 0.  0.
<mgrwt>
<rscale>  2 0.40702327E+03</rscale>
<asrwt>0</asrwt>
<pdfrwt beam="1">  1       21 0.67816988E-01 0.40702327E+03</pdfrwt>
<pdfrwt beam="2">  1       21 0.13207547E-01 0.40702327E+03</pdfrwt>
<totfact> 0.92087746E+04</totfact>
</mgrwt>
</event>
<event>
 7    0  0.4725730E-002  0.4565670E+03  0.7546771E-02  0.1025782E+00
         21   -1    0    0  502  501  0.00000000000E+00  0.00000000000E+00  0.14259103292E+04  0.14259103292E+04  0.00000000000E+00 0. -1.
         21   -1    0    0  501  502 -0.00000000000E+00 -0.00000000000E+00 -0.36547426509E+02  0.36547426509E+02  0.00000000000E+00 0. -1.
      99926    2    1    2    0    0  0.00000000000E+00  0.00000000000E+00  0.13893629027E+04  0.14624577557E+04  0.45656698507E+03 0.  0.
      99925    2    3    3    0    0 -0.47918275812E+02  0.10201714531E+03  0.80396579797E+03  0.85332645836E+03  0.26287141559E+03 0.  0.
         25    1    3    3    0    0  0.47918275812E+02 -0.10201714531E+03  0.58539710470E+03  0.60913129733E+03  0.12509000000E+03 0.  0.
         25    1    4    4    0    0 -0.18989409043E+02  0.79599009963E+02  0.34013365365E+03  0.37153063197E+03  0.12509000000E+03 0.  0.
         25    1    4    4    0    0 -0.28928866769E+02  0.22418135352E+02  0.46383214432E+03  0.48179582639E+03  0.12509000000E+03 0.  0.
<mgrwt>
<rscale>  2 0.45656699E+03</rscale>
<asrwt>0</asrwt>
<pdfrwt beam="1">  1       21 0.20969266E+00 0.45656699E+03</pdfrwt>
<pdfrwt beam="2">  1       21 0.53746225E-02 0.45656699E+03</pdfrwt>
<totfact> 0.24415372E+04</totfact>
</mgrwt>
</event>
<event>
 7    0  0.4725730E-002  0.4542248E+03  0.7546771E-02  0.1026470E+00
         21   -1    0    0  502  501  0.00000000000E+00  0.00000000000E+00  0.58118144008E+02  0.58118144008E+02  0.00000000000E+00 0.  1.
         21   -1    0    0  501  502 -0.00000000000E+00 -0.00000000000E+00 -0.88750338313E+03  0.88750338313E+03  0.00000000000E+00 0.  1.
      99926    2    1    2    0    0  0.00000000000E+00  0.00000000000E+00 -0.82938523913E+03  0.94562152714E+03  0.45422483168E+03 0.  0.
      99925    2    3    3    0    0 -0.58818167620E+02 -0.88331483100E+02 -0.44463853901E+03  0.52736376081E+03  0.26295832006E+03 0.  0.
         25    1    4    4    0    0 -0.48056157346E+02 -0.50889409966E+02 -0.16508232957E+03  0.21862938947E+03  0.12509000000E+03 0.  0.
         25    1    3    3    0    0  0.58818167620E+02  0.88331483100E+02 -0.38474670011E+03  0.41825776633E+03  0.12509000000E+03 0.  0.
         25    1    4    4    0    0 -0.10762010274E+02 -0.37442073133E+02 -0.27955620945E+03  0.30873437134E+03  0.12509000000E+03 0.  0.
<mgrwt>
<rscale>  2 0.45422483E+03</rscale>
<asrwt>0</asrwt>
<pdfrwt beam="1">  1       21 0.85467862E-02 0.45422483E+03</pdfrwt>
<pdfrwt beam="2">  1       21 0.13051520E+00 0.45422483E+03</pdfrwt>
<totfact> 0.41570031E+04</totfact>
</mgrwt>
</event>
<event>
 7    0  0.4725730E-002  0.4545899E+03  0.7546771E-02  0.1026362E+00
         21   -1    0    0  502  501  0.00000000000E+00  0.00000000000E+00  0.59794595665E+03  0.59794595665E+03  0.00000000000E+00 0.  1.
         21   -1    0    0  501  502 -0.00000000000E+00 -0.00000000000E+00 -0.86400779186E+02  0.86400779186E+02  0.00000000000E+00 0.  1.
      99926    2    1    2    0    0  0.00000000000E+00  0.00000000000E+00  0.51154517746E+03  0.68434673583E+03  0.45458990999E+03 0.  0.
      99925    2    3    3    0    0  0.27428385634E+02 -0.89238297352E+02  0.22657851582E+03  0.35943244498E+03  0.26294118852E+03 0.  0.
         25    1    3    3    0    0 -0.27428385634E+02  0.89238297352E+02  0.28496666164E+03  0.32491429085E+03  0.12509000000E+03 0.  0.
         25    1    4    4    0    0 -0.31213993694E+01 -0.65012398158E+02  0.15718319065E+03  0.21116443491E+03  0.12509000000E+03 0.  0.
         25    1    4    4    0    0  0.30549785004E+02 -0.24225899194E+02  0.69395325176E+02  0.14826801008E+03  0.12509000000E+03 0.  0.
<mgrwt>
<rscale>  2 0.45458991E+03</rscale>
<asrwt>0</asrwt>
<pdfrwt beam="1">  1       21 0.87933227E-01 0.45458991E+03</pdfrwt>
<pdfrwt beam="2">  1       21 0.12705997E-01 0.45458991E+03</pdfrwt>
<totfact> 0.53935280E+04</totfact>
</mgrwt>
</event>
<event>
 7    0  0.4725730E-002  0.4501632E+03  0.7546771E-02  0.1027673E+00
         21   -1    0    0  502  501  0.00000000000E+00  0.00000000000E+00  0.29840038585E+02  0.29840038585E+02  0.00000000000E+00 0.  1.
         21   -1    0    0  501  502 -0.00000000000E+00 -0.00000000000E+00 -0.16977770863E+04  0.16977770863E+04  0.00000000000E+00 0.  1.
      99926    2    1    2    0    0  0.00000000000E+00  0.00000000000E+00 -0.16679370477E+04  0.17276171249E+04  0.45016323156E+03 0.  0.
      99925    2    3    3    0    0 -0.65592089651E+02  0.48142025329E+02 -0.13303315783E+04  0.13585034054E+04  0.26292473723E+03 0.  0.
         25    1    3    3    0    0  0.65592089651E+02 -0.48142025329E+02 -0.33760546938E+03  0.36911371945E+03  0.12509000000E+03 0.  0.
         25    1    4    4    0    0 -0.14350542312E+02  0.10243109573E+02 -0.46485166352E+03  0.48171094708E+03  0.12509000000E+03 0.  0.
         25    1    4    4    0    0 -0.51241547339E+02  0.37898915756E+02 -0.86547991481E+03  0.87679245835E+03  0.12509000000E+03 0.  0.
<mgrwt>
<rscale>  2 0.45016323E+03</rscale>
<asrwt>0</asrwt>
<pdfrwt beam="1">  1       21 0.43882397E-02 0.45016323E+03</pdfrwt>
<pdfrwt beam="2">  1       21 0.24967317E+00 0.45016323E+03</pdfrwt>
<totfact> 0.19411385E+04</totfact>
</mgrwt>
</event>
<event>
 7    0  0.4725730E-002  0.4557285E+03  0.7546771E-02  0.1026027E+00
         21   -1    0    0  502  501  0.00000000000E+00  0.00000000000E+00  0.34869456168E+03  0.34869456168E+03  0.00000000000E+00 0.  1.
         21   -1    0    0  501  502 -0.00000000000E+00 -0.00000000000E+00 -0.14890426744E+03  0.14890426744E+03  0.00000000000E+00 0.  1.
      99926    2    1    2    0    0  0.00000000000E+00  0.00000000000E+00  0.19979029425E+03  0.49759882912E+03  0.45572846418E+03 0.  0.
      99925    2    3    3    0    0  0.76830542684E+02 -0.68461597464E+02  0.17855312707E+03  0.33423283515E+03  0.26313579439E+03 0.  0.
         25    1    4    4    0    0  0.59407601546E+02  0.78605718962E+00  0.85323544712E+02  0.16265760477E+03  0.12509000000E+03 0.  0.
         25    1    3    3    0    0 -0.76830542684E+02  0.68461597464E+02  0.21237167180E+02  0.16336599397E+03  0.12509000000E+03 0.  0.
         25    1    4    4    0    0  0.17422941139E+02 -0.69247654654E+02  0.93229582356E+02  0.17157523038E+03  0.12509000000E+03 0.  0.
<mgrwt>
<rscale>  2 0.45572846E+03</rscale>
<asrwt>0</asrwt>
<pdfrwt beam="1">  1       21 0.51278612E-01 0.45572846E+03</pdfrwt>
<pdfrwt beam="2">  1       21 0.21897686E-01 0.45572846E+03</pdfrwt>
<totfact> 0.65062620E+04</totfact>
</mgrwt>
</event>
<event>
 7    0  0.4725730E-002  0.4559821E+03  0.7546771E-02  0.1025953E+00
         21   -1    0    0  502  501  0.00000000000E+00  0.00000000000E+00  0.84730547955E+03  0.84730547955E+03  0.00000000000E+00 0. -1.
         21   -1    0    0  501  502 -0.00000000000E+00 -0.00000000000E+00 -0.61347322898E+02  0.61347322898E+02  0.00000000000E+00 0. -1.
      99926    2    1    2    0    0  0.00000000000E+00  0.00000000000E+00  0.78595815665E+03  0.90865280245E+03  0.45598211740E+03 0.  0.
      99925    2    3    3    0    0 -0.24746320573E+02 -0.55797301832E+02  0.30244124179E+03  0.40550090259E+03  0.26312460545E+03 0.  0.
         25    1    4    4    0    0 -0.14505857652E+02 -0.55693335438E+01  0.94760350253E+02  0.15769739840E+03  0.12509000000E+03 0.  0.
         25    1    4    4    0    0 -0.10240462921E+02 -0.50227968288E+02  0.20768089154E+03  0.24780350419E+03  0.12509000000E+03 0.  0.
         25    1    3    3    0    0  0.24746320573E+02  0.55797301832E+02  0.48351691486E+03  0.50315189985E+03  0.12509000000E+03 0.  0.
<mgrwt>
<rscale>  2 0.45598212E+03</rscale>
<asrwt>0</asrwt>
<pdfrwt beam="1">  1       21 0.12460374E+00 0.45598212E+03</pdfrwt>
<pdfrwt beam="2">  1       21 0.90216656E-02 0.45598212E+03</pdfrwt>
<totfact> 0.42533762E+04</totfact>
</mgrwt>
</event>
<event>
 7    0  0.4725730E-002  0.4697980E+03  0.7546771E-02  0.1021977E+00
         21   -1    0    0  502  501  0.00000000000E+00  0.00000000000E+00  0.28782653431E+03  0.28782653431E+03  0.00000000000E+00 0. -1.
         21   -1    0    0  501  502 -0.00000000000E+00 -0.00000000000E+00 -0.19170410622E+03  0.19170410622E+03  0.00000000000E+00 0. -1.
      99926    2    1    2    0    0 -0.71054273576E-14  0.00000000000E+00  0.96122428088E+02  0.47953064052E+03  0.46979795021E+03 0.  0.
      99925    2    3    3    0    0 -0.38142810155E+02 -0.11918993731E+03  0.78733053551E+02  0.30173577679E+03  0.26302940929E+03 0.  0.
         25    1    4    4    0    0 -0.33847689106E+02 -0.91105057141E+02  0.16817324195E+02  0.15929886374E+03  0.12509000000E+03 0.  0.
         25    1    3    3    0    0  0.38142810155E+02  0.11918993731E+03  0.17389374537E+02  0.17779486373E+03  0.12509000000E+03 0.  0.
         25    1    4    4    0    0 -0.42951210485E+01 -0.28084880169E+02  0.61915729356E+02  0.14243691305E+03  0.12509000000E+03 0.  0.
<mgrwt>
<rscale>  2 0.46979795E+03</rscale>
<asrwt>0</asrwt>
<pdfrwt beam="1">  1       21 0.42327431E-01 0.46979795E+03</pdfrwt>
<pdfrwt beam="2">  1       21 0.28191780E-01 0.46979795E+03</pdfrwt>
<totfact> 0.59439365E+04</totfact>
</mgrwt>
</event>
<event>
 6    0  0.4725730E-002  0.4530122E+03  0.7546771E-02  0.1026828E+00
         21   -1    0    0  502  501  0.00000000000E+00  0.00000000000E+00  0.36054460609E+02  0.36054460609E+02  0.00000000000E+00 0. -1.
         21   -1    0    0  501  502 -0.00000000000E+00 -0.00000000000E+00 -0.14229868338E+04  0.14229868338E+04  0.00000000000E+00 0. -1.
      99926    2    1    2    0    0 -0.71054273576E-14  0.00000000000E+00 -0.13869323732E+04  0.14590412944E+04  0.45301224154E+03 0.  0.
         25    1    3    3    0    0  0.10758789846E+02  0.27778931710E+02 -0.56147679133E+03  0.57601312130E+03  0.12509000000E+03 0.  0.
         25    1    3    3    0    0 -0.48721785621E+02 -0.73652596000E+01 -0.18293147111E+03  0.22702310602E+03  0.12509000000E+03 0.  0.
         25    1    3    3    0    0  0.37962995774E+02 -0.20413672110E+02 -0.64252411071E+03  0.65600506705E+03  0.12509000000E+03 0.  0.
<mgrwt>
<rscale>  2 0.45301224E+03</rscale>
<asrwt>0</asrwt>
<pdfrwt beam="1">  1       21 0.53021264E-02 0.45301224E+03</pdfrwt>
<pdfrwt beam="2">  1       21 0.20926278E+00 0.45301224E+03</pdfrwt>
<totfact> 0.25186881E+04</totfact>
</mgrwt>
</event>
<event>
 7    0  0.4725730E-002  0.4578736E+03  0.7546771E-02  0.1025400E+00
         21   -1    0    0  502  501  0.00000000000E+00  0.00000000000E+00  0.52417645357E+03  0.52417645357E+03  0.00000000000E+00 0. -1.
         21   -1    0    0  501  502 -0.00000000000E+00 -0.00000000000E+00 -0.99989338761E+02  0.99989338761E+02  0.00000000000E+00 0. -1.
      99926    2    1    2    0    0  0.00000000000E+00  0.00000000000E+00  0.42418711481E+03  0.62416579233E+03  0.45787359385E+03 0.  0.
      99925    2    3    3    0    0  0.67456048896E+02  0.46626071991E+02  0.15471591936E+03  0.31596692407E+03  0.26300907262E+03 0.  0.
         25    1    3    3    0    0 -0.67456048896E+02 -0.46626071991E+02  0.26947119544E+03  0.30819886826E+03  0.12509000000E+03 0.  0.
         25    1    4    4    0    0  0.49587719381E+02  0.27366160290E+02  0.37028424056E+02  0.14221976280E+03  0.12509000000E+03 0.  0.
         25    1    4    4    0    0  0.17868329515E+02  0.19259911701E+02  0.11768749531E+03  0.17374716127E+03  0.12509000000E+03 0.  0.
<mgrwt>
<rscale>  2 0.45787359E+03</rscale>
<asrwt>0</asrwt>
<pdfrwt beam="1">  1       21 0.77084771E-01 0.45787359E+03</pdfrwt>
<pdfrwt beam="2">  1       21 0.14704315E-01 0.45787359E+03</pdfrwt>
<totfact> 0.55934972E+04</totfact>
</mgrwt>
</event>
<event>
 7    0  0.4725730E-002  0.4495896E+03  0.7546771E-02  0.1027844E+00
         21   -1    0    0  502  501  0.00000000000E+00  0.00000000000E+00  0.93404187491E+02  0.93404187491E+02  0.00000000000E+00 0. -1.
         21   -1    0    0  501  502 -0.00000000000E+00 -0.00000000000E+00 -0.54101114031E+03  0.54101114031E+03  0.00000000000E+00 0. -1.
      99926    2    1    2    0    0  0.35527136788E-14  0.00000000000E+00 -0.44760695282E+03  0.63441532780E+03  0.44958961725E+03 0.  0.
      99925    2    3    3    0    0 -0.27662838900E+02  0.48494412603E+02 -0.41482837819E+03  0.49356475533E+03  0.26154663761E+03 0.  0.
         25    1    4    4    0    0 -0.39432011612E+02  0.50116210931E+02 -0.24379164037E+03  0.28133323684E+03  0.12509000000E+03 0.  0.
         25    1    4    4    0    0  0.11769172712E+02 -0.16217983282E+01 -0.17103673782E+03  0.21223151849E+03  0.12509000000E+03 0.  0.
         25    1    3    3    0    0  0.27662838900E+02 -0.48494412603E+02 -0.32778574625E+02  0.14085057247E+03  0.12509000000E+03 0.  0.
<mgrwt>
<rscale>  2 0.44958962E+03</rscale>
<asrwt>0</asrwt>
<pdfrwt beam="1">  1       21 0.13735910E-01 0.44958962E+03</pdfrwt>
<pdfrwt beam="2">  1       21 0.79560462E-01 0.44958962E+03</pdfrwt>
<totfact> 0.59091574E+04</totfact>
</mgrwt>
</event>
<event>
 7    0  0.4725730E-002  0.4449573E+03  0.7546771E-02  0.1029237E+00
         21   -1    0    0  502  501  0.00000000000E+00  0.00000000000E+00  0.15928133485E+04  0.15928133485E+04  0.00000000000E+00 0.  1.
         21   -1    0    0  501  502 -0.00000000000E+00 -0.00000000000E+00 -0.31075051432E+02  0.31075051432E+02  0.00000000000E+00 0.  1.
      99926    2    1    2    0    0  0.00000000000E+00  0.14210854715E-13  0.15617382971E+04  0.16238883999E+04  0.44495733155E+03 0.  0.
      99925    2    3    3    0    0  0.49323771531E+02  0.79567083238E+02  0.83596497689E+03  0.88148812006E+03  0.26347695923E+03 0.  0.
         25    1    4    4    0    0  0.11250710733E+02  0.28735301475E+01  0.43685625352E+03  0.45456103001E+03  0.12509000000E+03 0.  0.
         25    1    3    3    0    0 -0.49323771531E+02 -0.79567083238E+02  0.72577332019E+03  0.74240027988E+03  0.12509000000E+03 0.  0.
         25    1    4    4    0    0  0.38073060798E+02  0.76693553090E+02  0.39910872337E+03  0.42692709004E+03  0.12509000000E+03 0.  0.
<mgrwt>
<rscale>  2 0.44495733E+03</rscale>
<asrwt>0</asrwt>
<pdfrwt beam="1">  1       21 0.23423720E+00 0.44495733E+03</pdfrwt>
<pdfrwt beam="2">  1       21 0.45698616E-02 0.44495733E+03</pdfrwt>
<totfact> 0.22607510E+04</totfact>
</mgrwt>
</event>
<event>
 7    0  0.4725730E-002  0.4268711E+03  0.7546771E-02  0.1034853E+00
         21   -1    0    0  502  501  0.00000000000E+00  0.00000000000E+00  0.20745912087E+03  0.20745912087E+03  0.00000000000E+00 0. -1.
         21   -1    0    0  501  502 -0.00000000000E+00 -0.00000000000E+00 -0.21958415510E+03  0.21958415510E+03  0.00000000000E+00 0. -1.
      99926    2    1    2    0    0  0.00000000000E+00  0.00000000000E+00 -0.12125034223E+02  0.42704327597E+03  0.42687110829E+03 0.  0.
      99925    2    3    3    0    0 -0.61510448141E+02  0.90751195854E+01  0.48835707745E+02  0.27463063480E+03  0.26300411821E+03 0.  0.
         25    1    4    4    0    0 -0.56099705619E+02 -0.22746899867E+02  0.82285329214E+01  0.13921140499E+03  0.12509000000E+03 0.  0.
         25    1    3    3    0    0  0.61510448141E+02 -0.90751195854E+01 -0.60960741968E+02  0.15241264117E+03  0.12509000000E+03 0.  0.
         25    1    4    4    0    0 -0.54107425216E+01  0.31822019453E+02  0.40607174823E+02  0.13541922982E+03  0.12509000000E+03 0.  0.
<mgrwt>
<rscale>  2 0.42687111E+03</rscale>
<asrwt>0</asrwt>
<pdfrwt beam="1">  1       21 0.30508694E-01 0.42687111E+03</pdfrwt>
<pdfrwt beam="2">  1       21 0.32291788E-01 0.42687111E+03</pdfrwt>
<totfact> 0.89005107E+04</totfact>
</mgrwt>
</event>
<event>
 7    0  0.4725730E-002  0.4551152E+03  0.7546771E-02  0.1026208E+00
         21   -1    0    0  502  501  0.00000000000E+00  0.00000000000E+00  0.21481494330E+03  0.21481494330E+03  0.00000000000E+00 0. -1.
         21   -1    0    0  501  502 -0.00000000000E+00 -0.00000000000E+00 -0.24105613929E+03  0.24105613929E+03  0.00000000000E+00 0. -1.
      99926    2    1    2    0    0  0.00000000000E+00  0.00000000000E+00 -0.26241195986E+02  0.45587108258E+03  0.45511519813E+03 0.  0.
      99925    2    3    3    0    0  0.10076412096E+03 -0.49770853081E+02 -0.36337704550E+02  0.28740745602E+03  0.26201540244E+03 0.  0.
         25    1    4    4    0    0  0.75003946776E+02  0.36954042260E+01 -0.29030429634E+02  0.14875994753E+03  0.12509000000E+03 0.  0.
         25    1    3    3    0    0 -0.10076412096E+03  0.49770853081E+02  0.10096508564E+02  0.16846362656E+03  0.12509000000E+03 0.  0.
         25    1    4    4    0    0  0.25760174185E+02 -0.53466257307E+02 -0.73072749155E+01  0.13864750849E+03  0.12509000000E+03 0.  0.
<mgrwt>
<rscale>  2 0.45511520E+03</rscale>
<asrwt>0</asrwt>
<pdfrwt beam="1">  1       21 0.31590433E-01 0.45511520E+03</pdfrwt>
<pdfrwt beam="2">  1       21 0.35449432E-01 0.45511520E+03</pdfrwt>
<totfact> 0.68419149E+04</totfact>
</mgrwt>
</event>
<event>
 7    0  0.4725730E-002  0.4534049E+03  0.7546771E-02  0.1026711E+00
         21   -1    0    0  502  501  0.00000000000E+00  0.00000000000E+00  0.16710277705E+02  0.16710277705E+02  0.00000000000E+00 0.  1.
         21   -1    0    0  501  502 -0.00000000000E+00 -0.00000000000E+00 -0.30755927273E+04  0.30755927273E+04  0.00000000000E+00 0.  1.
      99926    2    1    2    0    0  0.00000000000E+00  0.00000000000E+00 -0.30588824496E+04  0.30923030050E+04  0.45340493417E+03 0.  0.
      99925    2    3    3    0    0 -0.39738907336E+02 -0.44928665686E+02 -0.12864233068E+04  0.13144231759E+04  0.26310757365E+03 0.  0.
         25    1    3    3    0    0  0.39738907336E+02  0.44928665686E+02 -0.17724591428E+04  0.17778798291E+04  0.12509000000E+03 0.  0.
         25    1    4    4    0    0 -0.40380859801E+02  0.12542170778E+02 -0.65193478193E+03  0.66517244972E+03  0.12509000000E+03 0.  0.
         25    1    4    4    0    0  0.64195246430E+00 -0.57470836465E+02 -0.63448852488E+03  0.64925072619E+03  0.12509000000E+03 0.  0.
<mgrwt>
<rscale>  2 0.45340493E+03</rscale>
<asrwt>0</asrwt>
<pdfrwt beam="1">  1       21 0.24573946E-02 0.45340493E+03</pdfrwt>
<pdfrwt beam="2">  1       21 0.45229289E+00 0.45340493E+03</pdfrwt>
<totfact> 0.28002266E+03</totfact>
</mgrwt>
</event>
<event>
 7    0  0.4725730E-002  0.4591207E+03  0.7546771E-02  0.1025037E+00
         21   -1    0    0  502  501  0.00000000000E+00  0.00000000000E+00  0.22714366016E+03  0.22714366016E+03  0.00000000000E+00 0. -1.
         21   -1    0    0  501  502 -0.00000000000E+00 -0.00000000000E+00 -0.23200278568E+03  0.23200278568E+03  0.00000000000E+00 0. -1.
      99926    2    1    2    0    0  0.00000000000E+00 -0.71054273576E-14 -0.48591255211E+01  0.45914644584E+03  0.45912073317E+03 0.  0.
      99925    2    3    3    0    0 -0.10477631916E+03  0.42692595676E+02  0.24875142179E+02  0.28787949176E+03  0.26354334425E+03 0.  0.
         25    1    4    4    0    0 -0.54071177484E+02  0.69666954045E+01 -0.26686277641E+02  0.13903917647E+03  0.12509000000E+03 0.  0.
         25    1    3    3    0    0  0.10477631916E+03 -0.42692595676E+02 -0.29734267700E+02  0.17126695408E+03  0.12509000000E+03 0.  0.
         25    1    4    4    0    0 -0.50705141677E+02  0.35725900271E+02  0.51561419820E+02  0.14884031529E+03  0.12509000000E+03 0.  0.
<mgrwt>
<rscale>  2 0.45912073E+03</rscale>
<asrwt>0</asrwt>
<pdfrwt beam="1">  1       21 0.33403479E-01 0.45912073E+03</pdfrwt>
<pdfrwt beam="2">  1       21 0.34118057E-01 0.45912073E+03</pdfrwt>
<totfact> 0.66044734E+04</totfact>
</mgrwt>
</event>
<event>
 7    0  0.4725730E-002  0.4700346E+03  0.7546771E-02  0.1021910E+00
         21   -1    0    0  502  501  0.00000000000E+00  0.00000000000E+00  0.55415139777E+03  0.55415139777E+03  0.00000000000E+00 0. -1.
         21   -1    0    0  501  502 -0.00000000000E+00 -0.00000000000E+00 -0.99671556013E+02  0.99671556013E+02  0.00000000000E+00 0. -1.
      99926    2    1    2    0    0  0.00000000000E+00  0.00000000000E+00  0.45447984175E+03  0.65382295378E+03  0.47003460333E+03 0.  0.
      99925    2    3    3    0    0  0.71270603669E+02  0.10032958278E+03  0.32417632437E+03  0.43525479766E+03  0.26307969415E+03 0.  0.
         25    1    4    4    0    0  0.34002151036E+02  0.73786043208E+02  0.22167391991E+03  0.26718413373E+03  0.12509000000E+03 0.  0.
         25    1    3    3    0    0 -0.71270603669E+02 -0.10032958278E+03  0.13030351738E+03  0.21856815612E+03  0.12509000000E+03 0.  0.
         25    1    4    4    0    0  0.37268452633E+02  0.26543539568E+02  0.10250240446E+03  0.16807066393E+03  0.12509000000E+03 0.  0.
<mgrwt>
<rscale>  2 0.47003460E+03</rscale>
<asrwt>0</asrwt>
<pdfrwt beam="1">  1       21 0.81492852E-01 0.47003460E+03</pdfrwt>
<pdfrwt beam="2">  1       21 0.14657582E-01 0.47003460E+03</pdfrwt>
<totfact> 0.49361381E+04</totfact>
</mgrwt>
</event>
<event>
 6    0  0.4725730E-002  0.4573356E+03  0.7546771E-02  0.1025557E+00
         21   -1    0    0  502  501  0.00000000000E+00  0.00000000000E+00  0.10642808150E+03  0.10642808150E+03  0.00000000000E+00 0. -1.
         21   -1    0    0  501  502 -0.00000000000E+00 -0.00000000000E+00 -0.49130798381E+03  0.49130798381E+03  0.00000000000E+00 0. -1.
      99926    2    1    2    0    0  0.00000000000E+00  0.00000000000E+00 -0.38487990232E+03  0.59773606531E+03  0.45733561480E+03 0.  0.
         25    1    3    3    0    0 -0.33926655430E+01 -0.15411717090E+01 -0.93183825574E+02  0.15602762204E+03  0.12509000000E+03 0.  0.
         25    1    3    3    0    0  0.13826780415E+02  0.46902796775E+02 -0.27647873001E+03  0.30737444340E+03  0.12509000000E+03 0.  0.
         25    1    3    3    0    0 -0.10434114872E+02 -0.45361625066E+02 -0.15217346729E+02  0.13433399988E+03  0.12509000000E+03 0.  0.
<mgrwt>
<rscale>  2 0.45733561E+03</rscale>
<asrwt>0</asrwt>
<pdfrwt beam="1">  1       21 0.15651188E-01 0.45733561E+03</pdfrwt>
<pdfrwt beam="2">  1       21 0.72251175E-01 0.45733561E+03</pdfrwt>
<totfact> 0.57744713E+04</totfact>
</mgrwt>
</event>
<event>
 7    0  0.4725730E-002  0.4863900E+03  0.7546771E-02  0.1017394E+00
         21   -1    0    0  502  501  0.00000000000E+00  0.00000000000E+00  0.14860541367E+03  0.14860541367E+03  0.00000000000E+00 0. -1.
         21   -1    0    0  501  502 -0.00000000000E+00 -0.00000000000E+00 -0.39799226035E+03  0.39799226035E+03  0.00000000000E+00 0. -1.
      99926    2    1    2    0    0  0.00000000000E+00  0.00000000000E+00 -0.24938684668E+03  0.54659767402E+03  0.48638998545E+03 0.  0.
      99925    2    3    3    0    0 -0.75029633399E+02  0.10830202483E+03 -0.20747486545E+03  0.36014956665E+03  0.26325485008E+03 0.  0.
         25    1    4    4    0    0 -0.75979755043E+02  0.74463841833E+02 -0.12716526379E+03  0.20769280039E+03  0.12509000000E+03 0.  0.
         25    1    4    4    0    0  0.95012164461E+00  0.33838183000E+02 -0.80309601659E+02  0.15245676626E+03  0.12509000000E+03 0.  0.
         25    1    3    3    0    0  0.75029633399E+02 -0.10830202483E+03 -0.41911981230E+02  0.18644810737E+03  0.12509000000E+03 0.  0.
<mgrwt>
<rscale>  2 0.48638999E+03</rscale>
<asrwt>0</asrwt>
<pdfrwt beam="1">  1       21 0.21853738E-01 0.48638999E+03</pdfrwt>
<pdfrwt beam="2">  1       21 0.58528272E-01 0.48638999E+03</pdfrwt>
<totfact> 0.48781640E+04</totfact>
</mgrwt>
</event>
<event>
 7    0  0.4725730E-002  0.4560722E+03  0.7546771E-02  0.1025927E+00
         21   -1    0    0  502  501  0.00000000000E+00  0.00000000000E+00  0.97717749775E+03  0.97717749775E+03  0.00000000000E+00 0.  1.
         21   -1    0    0  501  502 -0.00000000000E+00 -0.00000000000E+00 -0.53214969068E+02  0.53214969068E+02  0.00000000000E+00 0.  1.
      99926    2    1    2    0    0 -0.14210854715E-13 -0.71054273576E-14  0.92396252868E+03  0.10303924668E+04  0.45607223251E+03 0.  0.
      99925    2    3    3    0    0 -0.83241829165E+02 -0.41237420707E+02  0.43097787754E+03  0.51337109265E+03  0.26301752954E+03 0.  0.
         25    1    4    4    0    0 -0.76956673235E+02 -0.44462831024E+02  0.24694074213E+03  0.29073443401E+03  0.12509000000E+03 0.  0.
         25    1    3    3    0    0  0.83241829165E+02  0.41237420707E+02  0.49298465114E+03  0.51702137417E+03  0.12509000000E+03 0.  0.
         25    1    4    4    0    0 -0.62851559297E+01  0.32254103171E+01  0.18403713542E+03  0.22263665864E+03  0.12509000000E+03 0.  0.
<mgrwt>
<rscale>  2 0.45607223E+03</rscale>
<asrwt>0</asrwt>
<pdfrwt beam="1">  1       21 0.14370256E+00 0.45607223E+03</pdfrwt>
<pdfrwt beam="2">  1       21 0.78257313E-02 0.45607223E+03</pdfrwt>
<totfact> 0.37688711E+04</totfact>
</mgrwt>
</event>
<event>
 7    0  0.4725730E-002  0.4557781E+03  0.7546771E-02  0.1026013E+00
         21   -1    0    0  502  501  0.00000000000E+00  0.00000000000E+00  0.10216072464E+04  0.10216072464E+04  0.00000000000E+00 0.  1.
         21   -1    0    0  501  502 -0.00000000000E+00 -0.00000000000E+00 -0.50835023042E+02  0.50835023042E+02  0.00000000000E+00 0.  1.
      99926    2    1    2    0    0  0.00000000000E+00  0.00000000000E+00  0.97077222333E+03  0.10724422694E+04  0.45577813861E+03 0.  0.
      99925    2    3    3    0    0  0.28733550633E+02 -0.23398619930E+02  0.35596021667E+03  0.44394053991E+03  0.26268310715E+03 0.  0.
         25    1    4    4    0    0  0.29509503669E+02 -0.90219181930E+00  0.23825027093E+03  0.27070708239E+03  0.12509000000E+03 0.  0.
         25    1    3    3    0    0 -0.28733550633E+02  0.23398619930E+02  0.61481200667E+03  0.62850172950E+03  0.12509000000E+03 0.  0.
         25    1    4    4    0    0 -0.77595303608E+00 -0.22496428111E+02  0.11770994574E+03  0.17323345752E+03  0.12509000000E+03 0.  0.
<mgrwt>
<rscale>  2 0.45577814E+03</rscale>
<asrwt>0</asrwt>
<pdfrwt beam="1">  1       21 0.15023635E+00 0.45577814E+03</pdfrwt>
<pdfrwt beam="2">  1       21 0.74757393E-02 0.45577814E+03</pdfrwt>
<totfact> 0.36243969E+04</totfact>
</mgrwt>
</event>
<event>
 7    0  0.4725730E-002  0.4555314E+03  0.7546771E-02  0.1026085E+00
         21   -1    0    0  502  501  0.00000000000E+00  0.00000000000E+00  0.18277663060E+03  0.18277663060E+03  0.00000000000E+00 0. -1.
         21   -1    0    0  501  502 -0.00000000000E+00 -0.00000000000E+00 -0.28382854641E+03  0.28382854641E+03  0.00000000000E+00 0. -1.
      99926    2    1    2    0    0  0.14210854715E-13  0.71054273576E-14 -0.10105191581E+03  0.46660517701E+03  0.45553144954E+03 0.  0.
      99925    2    3    3    0    0 -0.92423361643E+02 -0.59144875196E+02 -0.94545304469E+02  0.30008179087E+03  0.26281185775E+03 0.  0.
         25    1    4    4    0    0 -0.72590735097E+02 -0.57594013162E+02 -0.32454817446E+02  0.15901983665E+03  0.12509000000E+03 0.  0.
         25    1    4    4    0    0 -0.19832626546E+02 -0.15508620342E+01 -0.62090487024E+02  0.14106195422E+03  0.12509000000E+03 0.  0.
         25    1    3    3    0    0  0.92423361643E+02  0.59144875196E+02 -0.65066113373E+01  0.16652338614E+03  0.12509000000E+03 0.  0.
<mgrwt>
<rscale>  2 0.45553145E+03</rscale>
<asrwt>0</asrwt>
<pdfrwt beam="1">  1       21 0.26878917E-01 0.45553145E+03</pdfrwt>
<pdfrwt beam="2">  1       21 0.41739492E-01 0.45553145E+03</pdfrwt>
<totfact> 0.67404866E+04</totfact>
</mgrwt>
</event>
<event>
 7    0  0.4725730E-002  0.4508516E+03  0.7546771E-02  0.1027468E+00
         21   -1    0    0  502  501  0.00000000000E+00  0.00000000000E+00  0.51994040903E+02  0.51994040903E+02  0.00000000000E+00 0.  1.
         21   -1    0    0  501  502 -0.00000000000E+00 -0.00000000000E+00 -0.97735780803E+03  0.97735780803E+03  0.00000000000E+00 0.  1.
      99926    2    1    2    0    0  0.26645352591E-14  0.00000000000E+00 -0.92536376713E+03  0.10293518489E+04  0.45085155805E+03 0.  0.
      99925    2    3    3    0    0  0.43005695817E+01  0.27890518267E+02 -0.82535306387E+03  0.86672951107E+03  0.26308931830E+03 0.  0.
         25    1    3    3    0    0 -0.43005695817E+01 -0.27890518267E+02 -0.10001070326E+03  0.16262233787E+03  0.12509000000E+03 0.  0.
         25    1    4    4    0    0  0.41672257241E+02  0.51875964547E+01 -0.39794782183E+03  0.41925346174E+03  0.12509000000E+03 0.  0.
         25    1    4    4    0    0 -0.37371687659E+02  0.22702921812E+02 -0.42740524204E+03  0.44747604933E+03  0.12509000000E+03 0.  0.
<mgrwt>
<rscale>  2 0.45085156E+03</rscale>
<asrwt>0</asrwt>
<pdfrwt beam="1">  1       21 0.76461831E-02 0.45085156E+03</pdfrwt>
<pdfrwt beam="2">  1       21 0.14372908E+00 0.45085156E+03</pdfrwt>
<totfact> 0.39301791E+04</totfact>
</mgrwt>
</event>
<event>
 7    0  0.4725730E-002  0.4582292E+03  0.7546771E-02  0.1025296E+00
         21   -1    0    0  502  501  0.00000000000E+00  0.00000000000E+00  0.48188096557E+03  0.48188096557E+03  0.00000000000E+00 0. -1.
         21   -1    0    0  501  502 -0.00000000000E+00 -0.00000000000E+00 -0.10893459084E+03  0.10893459084E+03  0.00000000000E+00 0. -1.
      99926    2    1    2    0    0  0.00000000000E+00  0.00000000000E+00  0.37294637473E+03  0.59081555641E+03  0.45822922569E+03 0.  0.
      99925    2    3    3    0    0 -0.71593833907E+02 -0.81832508725E+02  0.18106558221E+03  0.33726480572E+03  0.26294594041E+03 0.  0.
         25    1    4    4    0    0 -0.67081654929E+02 -0.16413142665E+02  0.10017561884E+03  0.17450502110E+03  0.12509000000E+03 0.  0.
         25    1    4    4    0    0 -0.45121789780E+01 -0.65419366060E+02  0.80889963369E+02  0.16275978462E+03  0.12509000000E+03 0.  0.
         25    1    3    3    0    0  0.71593833907E+02  0.81832508725E+02  0.19188079252E+03  0.25355075069E+03  0.12509000000E+03 0.  0.
<mgrwt>
<rscale>  2 0.45822923E+03</rscale>
<asrwt>0</asrwt>
<pdfrwt beam="1">  1       21 0.70864847E-01 0.45822923E+03</pdfrwt>
<pdfrwt beam="2">  1       21 0.16019793E-01 0.45822923E+03</pdfrwt>
<totfact> 0.57758886E+04</totfact>
</mgrwt>
</event>
<event>
 7    0  0.4725730E-002  0.4495856E+03  0.7546771E-02  0.1027846E+00
         21   -1    0    0  502  501  0.00000000000E+00  0.00000000000E+00  0.46272660675E+02  0.46272660675E+02  0.00000000000E+00 0. -1.
         21   -1    0    0  501  502 -0.00000000000E+00 -0.00000000000E+00 -0.10920442275E+04  0.10920442275E+04  0.00000000000E+00 0. -1.
      99926    2    1    2    0    0  0.00000000000E+00  0.00000000000E+00 -0.10457715668E+04  0.11383168882E+04  0.44958555129E+03 0.  0.
      99925    2    3    3    0    0  0.48129822454E+02  0.82149485288E+02 -0.53240587166E+03  0.60142130912E+03  0.26303338407E+03 0.  0.
         25    1    4    4    0    0  0.59255253124E+02  0.34606861043E+02 -0.31636284317E+03  0.34704722516E+03  0.12509000000E+03 0.  0.
         25    1    4    4    0    0 -0.11125430669E+02  0.47542624246E+02 -0.21604302849E+03  0.25437408395E+03  0.12509000000E+03 0.  0.
         25    1    3    3    0    0 -0.48129822454E+02 -0.82149485288E+02 -0.51336569517E+03  0.53689557906E+03  0.12509000000E+03 0.  0.
<mgrwt>
<rscale>  2 0.44958555E+03</rscale>
<asrwt>0</asrwt>
<pdfrwt beam="1">  1       21 0.68048035E-02 0.44958555E+03</pdfrwt>
<pdfrwt beam="2">  1       21 0.16059473E+00 0.44958555E+03</pdfrwt>
<totfact> 0.35656055E+04</totfact>
</mgrwt>
</event>
<event>
 7    0  0.4725730E-002  0.4530309E+03  0.7546771E-02  0.1026822E+00
         21   -1    0    0  502  501  0.00000000000E+00  0.00000000000E+00  0.14914904089E+03  0.14914904089E+03  0.00000000000E+00 0. -1.
         21   -1    0    0  501  502 -0.00000000000E+00 -0.00000000000E+00 -0.34401334402E+03  0.34401334402E+03  0.00000000000E+00 0. -1.
      99926    2    1    2    0    0  0.00000000000E+00  0.35527136788E-14 -0.19486430313E+03  0.49316238490E+03  0.45303094955E+03 0.  0.
      99925    2    3    3    0    0  0.10904878048E+02 -0.24271727319E+02 -0.53879663933E+01  0.26456487093E+03  0.26316821167E+03 0.  0.
         25    1    3    3    0    0 -0.10904878048E+02  0.24271727319E+02 -0.18947633673E+03  0.22859751397E+03  0.12509000000E+03 0.  0.
         25    1    4    4    0    0  0.18665602393E+02  0.23313567304E+02 -0.18229002608E+02  0.12989123053E+03  0.12509000000E+03 0.  0.
         25    1    4    4    0    0 -0.77607243442E+01 -0.47585294623E+02  0.12841036215E+02  0.13467364040E+03  0.12509000000E+03 0.  0.
<mgrwt>
<rscale>  2 0.45303095E+03</rscale>
<asrwt>0</asrwt>
<pdfrwt beam="1">  1       21 0.21933683E-01 0.45303095E+03</pdfrwt>
<pdfrwt beam="2">  1       21 0.50590196E-01 0.45303095E+03</pdfrwt>
<totfact> 0.66791701E+04</totfact>
</mgrwt>
</event>
<event>
 7    0  0.4725730E-002  0.4426030E+03  0.7546771E-02  0.1029951E+00
         21   -1    0    0  502  501  0.00000000000E+00  0.00000000000E+00  0.96029144613E+02  0.96029144613E+02  0.00000000000E+00 0.  1.
         21   -1    0    0  501  502 -0.00000000000E+00 -0.00000000000E+00 -0.50999464130E+03  0.50999464130E+03  0.00000000000E+00 0.  1.
      99926    2    1    2    0    0  0.00000000000E+00  0.00000000000E+00 -0.41396549669E+03  0.60602378592E+03  0.44260297858E+03 0.  0.
      99925    2    3    3    0    0 -0.91863778911E+02 -0.21390660530E+02 -0.21370206515E+03  0.35176119656E+03  0.26300352188E+03 0.  0.
         25    1    4    4    0    0 -0.66047316446E+02 -0.29598983556E+02 -0.15178348734E+03  0.20958073138E+03  0.12509000000E+03 0.  0.
         25    1    3    3    0    0  0.91863778911E+02  0.21390660530E+02 -0.20026343154E+03  0.25426258935E+03  0.12509000000E+03 0.  0.
         25    1    4    4    0    0 -0.25816462466E+02  0.82083230258E+01 -0.61918577816E+02  0.14218046518E+03  0.12509000000E+03 0.  0.
<mgrwt>
<rscale>  2 0.44260298E+03</rscale>
<asrwt>0</asrwt>
<pdfrwt beam="1">  1       21 0.14121933E-01 0.44260298E+03</pdfrwt>
<pdfrwt beam="2">  1       21 0.74999212E-01 0.44260298E+03</pdfrwt>
<totfact> 0.64386379E+04</totfact>
</mgrwt>
</event>
<event>
 7    0  0.4725730E-002  0.4587607E+03  0.7546771E-02  0.1025141E+00
         21   -1    0    0  502  501  0.00000000000E+00  0.00000000000E+00  0.45486702818E+02  0.45486702818E+02  0.00000000000E+00 0.  1.
         21   -1    0    0  501  502 -0.00000000000E+00 -0.00000000000E+00 -0.11567193958E+04  0.11567193958E+04  0.00000000000E+00 0.  1.
      99926    2    1    2    0    0  0.00000000000E+00  0.00000000000E+00 -0.11112326930E+04  0.12022060986E+04  0.45876072805E+03 0.  0.
      99925    2    3    3    0    0 -0.10093824745E+03  0.58411170881E+02 -0.68421824689E+03  0.74221779447E+03  0.26293012450E+03 0.  0.
         25    1    3    3    0    0  0.10093824745E+03 -0.58411170881E+02 -0.42701444611E+03  0.45998830417E+03  0.12509000000E+03 0.  0.
         25    1    4    4    0    0 -0.11388713901E+02  0.85050032382E+01 -0.29714503545E+03  0.32271460779E+03  0.12509000000E+03 0.  0.
         25    1    4    4    0    0 -0.89549533544E+02  0.49906167642E+02 -0.38707321143E+03  0.41950318668E+03  0.12509000000E+03 0.  0.
<mgrwt>
<rscale>  2 0.45876073E+03</rscale>
<asrwt>0</asrwt>
<pdfrwt beam="1">  1       21 0.66892220E-02 0.45876073E+03</pdfrwt>
<pdfrwt beam="2">  1       21 0.17010577E+00 0.45876073E+03</pdfrwt>
<totfact> 0.31163117E+04</totfact>
</mgrwt>
</event>
<event>
 7    0  0.4725730E-002  0.4419428E+03  0.7546771E-02  0.1030152E+00
         21   -1    0    0  502  501  0.00000000000E+00  0.00000000000E+00  0.10253425760E+03  0.10253425760E+03  0.00000000000E+00 0.  1.
         21   -1    0    0  501  502 -0.00000000000E+00 -0.00000000000E+00 -0.47621506327E+03  0.47621506327E+03  0.00000000000E+00 0.  1.
      99926    2    1    2    0    0  0.17763568394E-14 -0.14210854715E-13 -0.37368080567E+03  0.57874932087E+03  0.44194279254E+03 0.  0.
      99925    2    3    3    0    0  0.92310079142E+01 -0.97478668080E+02 -0.20777892332E+03  0.34905769084E+03  0.26283433627E+03 0.  0.
         25    1    3    3    0    0 -0.92310079142E+01  0.97478668080E+02 -0.16590188235E+03  0.22969163003E+03  0.12509000000E+03 0.  0.
         25    1    4    4    0    0  0.25348476836E+02 -0.18773689913E+02 -0.12125314733E+03  0.17704471341E+03  0.12509000000E+03 0.  0.
         25    1    4    4    0    0 -0.16117468922E+02 -0.78704978168E+02 -0.86525775992E+02  0.17201297743E+03  0.12509000000E+03 0.  0.
<mgrwt>
<rscale>  2 0.44194279E+03</rscale>
<asrwt>0</asrwt>
<pdfrwt beam="1">  1       21 0.15078567E-01 0.44194279E+03</pdfrwt>
<pdfrwt beam="2">  1       21 0.70031626E-01 0.44194279E+03</pdfrwt>
<totfact> 0.66621000E+04</totfact>
</mgrwt>
</event>
<event>
 7    0  0.4725730E-002  0.4554339E+03  0.7546771E-02  0.1026114E+00
         21   -1    0    0  502  501  0.00000000000E+00  0.00000000000E+00  0.19675387241E+03  0.19675387241E+03  0.00000000000E+00 0. -1.
         21   -1    0    0  501  502 -0.00000000000E+00 -0.00000000000E+00 -0.26355268511E+03  0.26355268511E+03  0.00000000000E+00 0. -1.
      99926    2    1    2    0    0  0.00000000000E+00  0.00000000000E+00 -0.66798812698E+02  0.46030655752E+03  0.45543390906E+03 0.  0.
      99925    2    3    3    0    0  0.92175722297E+02 -0.35371892687E+02 -0.98994872178E+02  0.29772848729E+03  0.26285876979E+03 0.  0.
         25    1    4    4    0    0  0.77047844144E+02  0.90243622347E+01 -0.51195253238E+02  0.15584053213E+03  0.12509000000E+03 0.  0.
         25    1    4    4    0    0  0.15127878152E+02 -0.44396254922E+02 -0.47799618940E+02  0.14188795516E+03  0.12509000000E+03 0.  0.
         25    1    3    3    0    0 -0.92175722297E+02  0.35371892687E+02  0.32196059480E+02  0.16257807023E+03  0.12509000000E+03 0.  0.
<mgrwt>
<rscale>  2 0.45543391E+03</rscale>
<asrwt>0</asrwt>
<pdfrwt beam="1">  1       21 0.28934393E-01 0.45543391E+03</pdfrwt>
<pdfrwt beam="2">  1       21 0.38757748E-01 0.45543391E+03</pdfrwt>
<totfact> 0.67922901E+04</totfact>
</mgrwt>
</event>
<event>
 7    0  0.4725730E-002  0.4523214E+03  0.7546771E-02  0.1027032E+00
         21   -1    0    0  502  501  0.00000000000E+00  0.00000000000E+00  0.59950625521E+03  0.59950625521E+03  0.00000000000E+00 0.  1.
         21   -1    0    0  501  502 -0.00000000000E+00 -0.00000000000E+00 -0.85317989002E+02  0.85317989002E+02  0.00000000000E+00 0.  1.
      99926    2    1    2    0    0  0.35527136788E-14  0.00000000000E+00  0.51418826621E+03  0.68482424421E+03  0.45232142593E+03 0.  0.
      99925    2    3    3    0    0  0.20370869885E+02  0.79114995264E+02  0.20920884691E+03  0.34521548532E+03  0.26216642590E+03 0.  0.
         25    1    3    3    0    0 -0.20370869885E+02 -0.79114995264E+02  0.30497941930E+03  0.33960875889E+03  0.12509000000E+03 0.  0.
         25    1    4    4    0    0  0.33178291303E+02  0.73242342575E+02  0.11514654900E+03  0.18807305922E+03  0.12509000000E+03 0.  0.
         25    1    4    4    0    0 -0.12807421418E+02  0.58726526895E+01  0.94062297907E+02  0.15714242610E+03  0.12509000000E+03 0.  0.
<mgrwt>
<rscale>  2 0.45232143E+03</rscale>
<asrwt>0</asrwt>
<pdfrwt beam="1">  1       21 0.88162683E-01 0.45232143E+03</pdfrwt>
<pdfrwt beam="2">  1       21 0.12546763E-01 0.45232143E+03</pdfrwt>
<totfact> 0.54883189E+04</totfact>
</mgrwt>
</event>
<event>
 7    0  0.4725730E-002  0.4515034E+03  0.7546771E-02  0.1027275E+00
         21   -1    0    0  502  501  0.00000000000E+00  0.00000000000E+00  0.27711166345E+03  0.27711166345E+03  0.00000000000E+00 0. -1.
         21   -1    0    0  501  502 -0.00000000000E+00 -0.00000000000E+00 -0.18391077477E+03  0.18391077477E+03  0.00000000000E+00 0. -1.
      99926    2    1    2    0    0  0.00000000000E+00 -0.35527136788E-14  0.93200888677E+02  0.46102243822E+03  0.45150335867E+03 0.  0.
      99925    2    3    3    0    0 -0.88244369908E+02 -0.28160365565E+02 -0.14555785630E+01  0.27884826360E+03  0.26300981045E+03 0.  0.
         25    1    4    4    0    0 -0.14173825941E+02 -0.32871235371E+02  0.20607112398E+02  0.13173297476E+03  0.12509000000E+03 0.  0.
         25    1    4    4    0    0 -0.74070543968E+02  0.47108698066E+01 -0.22062690961E+02  0.14711528884E+03  0.12509000000E+03 0.  0.
         25    1    3    3    0    0  0.88244369908E+02  0.28160365565E+02  0.94656467240E+02  0.18217417462E+03  0.12509000000E+03 0.  0.
<mgrwt>
<rscale>  2 0.45150336E+03</rscale>
<asrwt>0</asrwt>
<pdfrwt beam="1">  1       21 0.40751715E-01 0.45150336E+03</pdfrwt>
<pdfrwt beam="2">  1       21 0.27045702E-01 0.45150336E+03</pdfrwt>
<totfact> 0.70032378E+04</totfact>
</mgrwt>
</event>
<event>
 7    0  0.4725730E-002  0.4482460E+03  0.7546771E-02  0.1028246E+00
         21   -1    0    0  502  501  0.00000000000E+00  0.00000000000E+00  0.20799346396E+03  0.20799346396E+03  0.00000000000E+00 0.  1.
         21   -1    0    0  501  502 -0.00000000000E+00 -0.00000000000E+00 -0.24150337189E+03  0.24150337189E+03  0.00000000000E+00 0.  1.
      99926    2    1    2    0    0  0.00000000000E+00 -0.71054273576E-14 -0.33509907928E+02  0.44949683585E+03  0.44824601673E+03 0.  0.
      99925    2    3    3    0    0  0.40914385334E+02  0.34505845288E+02  0.71365273415E+02  0.27770931579E+03  0.26299205604E+03 0.  0.
         25    1    4    4    0    0  0.37321660167E+02  0.37138620377E+02  0.44861942290E+01  0.13579328952E+03  0.12509000000E+03 0.  0.
         25    1    3    3    0    0 -0.40914385334E+02 -0.34505845288E+02 -0.10487518134E+03  0.17178752006E+03  0.12509000000E+03 0.  0.
         25    1    4    4    0    0  0.35927251669E+01 -0.26327750889E+01  0.66879079186E+02  0.14191602627E+03  0.12509000000E+03 0.  0.
<mgrwt>
<rscale>  2 0.44824602E+03</rscale>
<asrwt>0</asrwt>
<pdfrwt beam="1">  1       21 0.30587274E-01 0.44824602E+03</pdfrwt>
<pdfrwt beam="2">  1       21 0.35515202E-01 0.44824602E+03</pdfrwt>
<totfact> 0.72795308E+04</totfact>
</mgrwt>
</event>
<event>
 7    0  0.4725730E-002  0.4664904E+03  0.7546771E-02  0.1022915E+00
         21   -1    0    0  502  501  0.00000000000E+00  0.00000000000E+00  0.17932795973E+04  0.17932795973E+04  0.00000000000E+00 0. -1.
         21   -1    0    0  501  502 -0.00000000000E+00 -0.00000000000E+00 -0.30337340274E+02  0.30337340274E+02  0.00000000000E+00 0. -1.
      99926    2    1    2    0    0  0.00000000000E+00  0.00000000000E+00  0.17629422570E+04  0.18236169376E+04  0.46649044299E+03 0.  0.
      99925    2    3    3    0    0  0.11564907443E+03  0.42701882416E+02  0.10609480194E+04  0.10999861084E+04  0.26298399118E+03 0.  0.
         25    1    4    4    0    0  0.60270721755E+02  0.99455058076E+01  0.67493056128E+03  0.68913731842E+03  0.12509000000E+03 0.  0.
         25    1    4    4    0    0  0.55378352672E+02  0.32756376609E+02  0.38601745815E+03  0.41084879000E+03  0.12509000000E+03 0.  0.
         25    1    3    3    0    0 -0.11564907443E+03 -0.42701882416E+02  0.70199423761E+03  0.72363082916E+03  0.12509000000E+03 0.  0.
<mgrwt>
<rscale>  2 0.46649044E+03</rscale>
<asrwt>0</asrwt>
<pdfrwt beam="1">  1       21 0.26371752E+00 0.46649044E+03</pdfrwt>
<pdfrwt beam="2">  1       21 0.44613748E-02 0.46649044E+03</pdfrwt>
<totfact> 0.15390679E+04</totfact>
</mgrwt>
</event>
<event>
 7    0  0.4725730E-002  0.4566162E+03  0.7546771E-02  0.1025767E+00
         21   -1    0    0  502  501  0.00000000000E+00  0.00000000000E+00  0.35178491107E+03  0.35178491107E+03  0.00000000000E+00 0. -1.
         21   -1    0    0  501  502 -0.00000000000E+00 -0.00000000000E+00 -0.14817178091E+03  0.14817178091E+03  0.00000000000E+00 0. -1.
      99926    2    1    2    0    0  0.00000000000E+00  0.14210854715E-13  0.20361313015E+03  0.49995669198E+03  0.45661623612E+03 0.  0.
      99925    2    3    3    0    0 -0.31843099286E+02 -0.10388683581E+03  0.88198159473E+02  0.29802952397E+03  0.26312777161E+03 0.  0.
         25    1    4    4    0    0 -0.30743596603E+02 -0.93281429659E+02  0.53112710382E+02  0.16767546617E+03  0.12509000000E+03 0.  0.
         25    1    3    3    0    0  0.31843099286E+02  0.10388683581E+03  0.11541497068E+03  0.20192716802E+03  0.12509000000E+03 0.  0.
         25    1    4    4    0    0 -0.10995026834E+01 -0.10605406147E+02  0.35085449091E+02  0.13035405779E+03  0.12509000000E+03 0.  0.
<mgrwt>
<rscale>  2 0.45661624E+03</rscale>
<asrwt>0</asrwt>
<pdfrwt beam="1">  1       21 0.51733075E-01 0.45661624E+03</pdfrwt>
<pdfrwt beam="2">  1       21 0.21789968E-01 0.45661624E+03</pdfrwt>
<totfact> 0.64442927E+04</totfact>
</mgrwt>
</event>
<event>
 7    0  0.4725730E-002  0.4161861E+03  0.7546771E-02  0.1038315E+00
         21   -1    0    0  502  501  0.00000000000E+00  0.00000000000E+00  0.35776989399E+03  0.35776989399E+03  0.00000000000E+00 0.  1.
         21   -1    0    0  501  502 -0.00000000000E+00 -0.00000000000E+00 -0.12103513132E+03  0.12103513132E+03  0.00000000000E+00 0.  1.
      99926    2    1    2    0    0  0.00000000000E+00  0.00000000000E+00  0.23673476267E+03  0.47880502531E+03  0.41618614154E+03 0.  0.
      99925    2    3    3    0    0  0.44014263431E+01  0.60090192622E+02  0.19796043064E+03  0.33464830252E+03  0.26300370810E+03 0.  0.
         25    1    4    4    0    0 -0.21660126683E+02 -0.50838124196E-01  0.75363257683E+02  0.14763567449E+03  0.12509000000E+03 0.  0.
         25    1    3    3    0    0 -0.44014263431E+01 -0.60090192622E+02  0.38774332026E+02  0.14415672280E+03  0.12509000000E+03 0.  0.
         25    1    4    4    0    0  0.26061553027E+02  0.60141030746E+02  0.12259717296E+03  0.18701262803E+03  0.12509000000E+03 0.  0.
<mgrwt>
<rscale>  2 0.41618614E+03</rscale>
<asrwt>0</asrwt>
<pdfrwt beam="1">  1       21 0.52613220E-01 0.41618614E+03</pdfrwt>
<pdfrwt beam="2">  1       21 0.17799284E-01 0.41618614E+03</pdfrwt>
<totfact> 0.92031432E+04</totfact>
</mgrwt>
</event>
<event>
 7    0  0.4725730E-002  0.4580342E+03  0.7546771E-02  0.1025353E+00
         21   -1    0    0  502  501  0.00000000000E+00  0.00000000000E+00  0.88756162729E+02  0.88756162729E+02  0.00000000000E+00 0.  1.
         21   -1    0    0  501  502 -0.00000000000E+00 -0.00000000000E+00 -0.59093172749E+03  0.59093172749E+03  0.00000000000E+00 0.  1.
      99926    2    1    2    0    0  0.00000000000E+00  0.00000000000E+00 -0.50217556476E+03  0.67968789022E+03  0.45803420207E+03 0.  0.
      99925    2    3    3    0    0 -0.77415578649E+02  0.78122218331E+02 -0.26006515354E+03  0.38581510799E+03  0.26291283851E+03 0.  0.
         25    1    4    4    0    0 -0.49874311684E+02  0.65317451650E+01 -0.94847923653E+02  0.16484461587E+03  0.12509000000E+03 0.  0.
         25    1    3    3    0    0  0.77415578649E+02 -0.78122218331E+02 -0.24211041121E+03  0.29387278223E+03  0.12509000000E+03 0.  0.
         25    1    4    4    0    0 -0.27541266966E+02  0.71590473167E+02 -0.16521722989E+03  0.22097049212E+03  0.12509000000E+03 0.  0.
<mgrwt>
<rscale>  2 0.45803420E+03</rscale>
<asrwt>0</asrwt>
<pdfrwt beam="1">  1       21 0.13052377E-01 0.45803420E+03</pdfrwt>
<pdfrwt beam="2">  1       21 0.86901723E-01 0.45803420E+03</pdfrwt>
<totfact> 0.52747822E+04</totfact>
</mgrwt>
</event>
<event>
 7    0  0.4725730E-002  0.4565033E+03  0.7546771E-02  0.1025800E+00
         21   -1    0    0  502  501  0.00000000000E+00  0.00000000000E+00  0.23190907271E+04  0.23190907271E+04  0.00000000000E+00 0.  1.
         21   -1    0    0  501  502 -0.00000000000E+00 -0.00000000000E+00 -0.22465187490E+02  0.22465187490E+02  0.00000000000E+00 0.  1.
      99926    2    1    2    0    0  0.00000000000E+00  0.00000000000E+00  0.22966255396E+04  0.23415559145E+04  0.45650326610E+03 0.  0.
      99925    2    3    3    0    0 -0.88862453975E+02 -0.61003142655E+02  0.16417887761E+04  0.16662214685E+04  0.26306972004E+03 0.  0.
         25    1    4    4    0    0 -0.72920996665E+02 -0.63622707330E+02  0.90589775651E+03  0.91959968138E+03  0.12509000000E+03 0.  0.
         25    1    4    4    0    0 -0.15941457309E+02  0.26195646750E+01  0.73589101957E+03  0.74662178710E+03  0.12509000000E+03 0.  0.
         25    1    3    3    0    0  0.88862453975E+02  0.61003142655E+02  0.65483676348E+03  0.67533444607E+03  0.12509000000E+03 0.  0.
<mgrwt>
<rscale>  2 0.45650327E+03</rscale>
<asrwt>0</asrwt>
<pdfrwt beam="1">  1       21 0.34104259E+00 0.45650327E+03</pdfrwt>
<pdfrwt beam="2">  1       21 0.33037056E-02 0.45650327E+03</pdfrwt>
<totfact> 0.87888732E+03</totfact>
</mgrwt>
</event>
<event>
 7    0  0.4725730E-002  0.4539643E+03  0.7546771E-02  0.1026546E+00
         21   -1    0    0  502  501  0.00000000000E+00  0.00000000000E+00  0.92587732585E+03  0.92587732585E+03  0.00000000000E+00 0. -1.
         21   -1    0    0  501  502 -0.00000000000E+00 -0.00000000000E+00 -0.55645495041E+02  0.55645495041E+02  0.00000000000E+00 0. -1.
      99926    2    1    2    0    0  0.17763568394E-14  0.14210854715E-13  0.87023183081E+03  0.98152282089E+03  0.45396432522E+03 0.  0.
      99925    2    3    3    0    0 -0.86337502012E+01  0.11005050621E+03  0.58180913859E+03  0.64832496218E+03  0.26388961193E+03 0.  0.
         25    1    4    4    0    0  0.13722923723E+02  0.32404969178E+02  0.20005459329E+03  0.23855345116E+03  0.12509000000E+03 0.  0.
         25    1    3    3    0    0  0.86337502012E+01 -0.11005050621E+03  0.28842269222E+03  0.33319785870E+03  0.12509000000E+03 0.  0.
         25    1    4    4    0    0 -0.22356673924E+02  0.77645537035E+02  0.38175454530E+03  0.40977151102E+03  0.12509000000E+03 0.  0.
<mgrwt>
<rscale>  2 0.45396433E+03</rscale>
<asrwt>0</asrwt>
<pdfrwt beam="1">  1       21 0.13615842E+00 0.45396433E+03</pdfrwt>
<pdfrwt beam="2">  1       21 0.81831616E-02 0.45396433E+03</pdfrwt>
<totfact> 0.40214433E+04</totfact>
</mgrwt>
</event>
<event>
 7    0  0.4725730E-002  0.4534163E+03  0.7546771E-02  0.1026708E+00
         21   -1    0    0  502  501  0.00000000000E+00  0.00000000000E+00  0.13004948913E+03  0.13004948913E+03  0.00000000000E+00 0.  1.
         21   -1    0    0  501  502 -0.00000000000E+00 -0.00000000000E+00 -0.39520792612E+03  0.39520792612E+03  0.00000000000E+00 0.  1.
      99926    2    1    2    0    0  0.14210854715E-13 -0.26645352591E-14 -0.26515843699E+03  0.52525741525E+03  0.45341631594E+03 0.  0.
      99925    2    3    3    0    0  0.10988571276E+03 -0.30854070510E+01 -0.18939023770E+03  0.34230190773E+03  0.26309227335E+03 0.  0.
         25    1    4    4    0    0  0.22161857327E+02 -0.27514798884E+02 -0.77167719652E+02  0.15116407356E+03  0.12509000000E+03 0.  0.
         25    1    4    4    0    0  0.87723855430E+02  0.24429391833E+02 -0.11222251805E+03  0.19113783418E+03  0.12509000000E+03 0.  0.
         25    1    3    3    0    0 -0.10988571276E+03  0.30854070510E+01 -0.75768199295E+02  0.18295550751E+03  0.12509000000E+03 0.  0.
<mgrwt>
<rscale>  2 0.45341632E+03</rscale>
<asrwt>0</asrwt>
<pdfrwt beam="1">  1       21 0.19124925E-01 0.45341632E+03</pdfrwt>
<pdfrwt beam="2">  1       21 0.58118812E-01 0.45341632E+03</pdfrwt>
<totfact> 0.64332547E+04</totfact>
</mgrwt>
</event>
<event>
 7    0  0.4725730E-002  0.4508381E+03  0.7546771E-02  0.1027472E+00
         21   -1    0    0  502  501  0.00000000000E+00  0.00000000000E+00  0.19015775787E+04  0.19015775787E+04  0.00000000000E+00 0. -1.
         21   -1    0    0  501  502 -0.00000000000E+00 -0.00000000000E+00 -0.26721888679E+02  0.26721888679E+02  0.00000000000E+00 0. -1.
      99926    2    1    2    0    0  0.00000000000E+00  0.00000000000E+00  0.18748556900E+04  0.19282994674E+04  0.45083808345E+03 0.  0.
      99925    2    3    3    0    0  0.75177531870E+02  0.69957635306E+02  0.10288899842E+04  0.10669916155E+04  0.26326939835E+03 0.  0.
         25    1    3    3    0    0 -0.75177531870E+02 -0.69957635306E+02  0.84596570588E+03  0.86130785185E+03  0.12509000000E+03 0.  0.
         25    1    4    4    0    0  0.78626417791E+02  0.40711761912E+02  0.59992633557E+03  0.61919195516E+03  0.12509000000E+03 0.  0.
         25    1    4    4    0    0 -0.34488859215E+01  0.29245873394E+02  0.42896364859E+03  0.44779966038E+03  0.12509000000E+03 0.  0.
<mgrwt>
<rscale>  2 0.45083808E+03</rscale>
<asrwt>0</asrwt>
<pdfrwt beam="1">  1       21 0.27964367E+00 0.45083808E+03</pdfrwt>
<pdfrwt beam="2">  1       21 0.39296908E-02 0.45083808E+03</pdfrwt>
<totfact> 0.15407655E+04</totfact>
</mgrwt>
</event>
<event>
 7    0  0.4725730E-002  0.4475768E+03  0.7546771E-02  0.1028447E+00
         21   -1    0    0  502  501  0.00000000000E+00  0.00000000000E+00  0.13087662527E+03  0.13087662527E+03  0.00000000000E+00 0.  1.
         21   -1    0    0  501  502 -0.00000000000E+00 -0.00000000000E+00 -0.38266006940E+03  0.38266006940E+03  0.00000000000E+00 0.  1.
      99926    2    1    2    0    0  0.00000000000E+00  0.14210854715E-13 -0.25178344413E+03  0.51353669468E+03  0.44757684708E+03 0.  0.
      99925    2    3    3    0    0  0.22435327528E+02  0.98634699927E+02 -0.19572576071E+03  0.34317789707E+03  0.26311660472E+03 0.  0.
         25    1    4    4    0    0  0.46758011241E+02  0.69781911236E+02 -0.11554712106E+03  0.18988015177E+03  0.12509000000E+03 0.  0.
         25    1    3    3    0    0 -0.22435327528E+02 -0.98634699927E+02 -0.56057683413E+02  0.17035879760E+03  0.12509000000E+03 0.  0.
         25    1    4    4    0    0 -0.24322683713E+02  0.28852788692E+02 -0.80178639654E+02  0.15329774530E+03  0.12509000000E+03 0.  0.
<mgrwt>
<rscale>  2 0.44757685E+03</rscale>
<asrwt>0</asrwt>
<pdfrwt beam="1">  1       21 0.19246563E-01 0.44757685E+03</pdfrwt>
<pdfrwt beam="2">  1       21 0.56273539E-01 0.44757685E+03</pdfrwt>
<totfact> 0.68262519E+04</totfact>
</mgrwt>
</event>
<event>
 7    0  0.4725730E-002  0.4590020E+03  0.7546771E-02  0.1025071E+00
         21   -1    0    0  502  501  0.00000000000E+00  0.00000000000E+00  0.35035990725E+02  0.35035990725E+02  0.00000000000E+00 0.  1.
         21   -1    0    0  501  502 -0.00000000000E+00 -0.00000000000E+00 -0.15033318289E+04  0.15033318289E+04  0.00000000000E+00 0.  1.
      99926    2    1    2    0    0  0.00000000000E+00  0.00000000000E+00 -0.14682958382E+04  0.15383678196E+04  0.45900204799E+03 0.  0.
      99925    2    3    3    0    0  0.20753264700E+02 -0.54237117291E+02 -0.58042029844E+03  0.63984522945E+03  0.26294834460E+03 0.  0.
         25    1    3    3    0    0 -0.20753264700E+02  0.54237117291E+02 -0.88787553975E+03  0.89852259019E+03  0.12509000000E+03 0.  0.
         25    1    4    4    0    0  0.50305567557E+02 -0.35197641524E+02 -0.29868614024E+03  0.32959132660E+03  0.12509000000E+03 0.  0.
         25    1    4    4    0    0 -0.29552302857E+02 -0.19039475767E+02 -0.28173415820E+03  0.31025390285E+03  0.12509000000E+03 0.  0.
<mgrwt>
<rscale>  2 0.45900205E+03</rscale>
<asrwt>0</asrwt>
<pdfrwt beam="1">  1       21 0.51523528E-02 0.45900205E+03</pdfrwt>
<pdfrwt beam="2">  1       21 0.22107816E+00 0.45900205E+03</pdfrwt>
<totfact> 0.22157540E+04</totfact>
</mgrwt>
</event>
<event>
 7    0  0.4725730E-002  0.4579900E+03  0.7546771E-02  0.1025366E+00
         21   -1    0    0  502  501  0.00000000000E+00  0.00000000000E+00  0.24060327141E+03  0.24060327141E+03  0.00000000000E+00 0.  1.
         21   -1    0    0  501  502 -0.00000000000E+00 -0.00000000000E+00 -0.21794676019E+03  0.21794676019E+03  0.00000000000E+00 0.  1.
      99926    2    1    2    0    0  0.00000000000E+00  0.00000000000E+00  0.22656511225E+02  0.45855003160E+03  0.45798997149E+03 0.  0.
      99925    2    3    3    0    0 -0.12678666936E+02  0.10700508749E+03 -0.28682075006E+02  0.28565122918E+03  0.26298883238E+03 0.  0.
         25    1    4    4    0    0  0.23989835071E+01  0.83752869588E+02  0.12489789984E+02  0.15107548193E+03  0.12509000000E+03 0.  0.
         25    1    4    4    0    0 -0.15077650443E+02  0.23252217903E+02 -0.41171864990E+02  0.13457574725E+03  0.12509000000E+03 0.  0.
         25    1    3    3    0    0  0.12678666936E+02 -0.10700508749E+03  0.51338586231E+02  0.17289880243E+03  0.12509000000E+03 0.  0.
<mgrwt>
<rscale>  2 0.45798997E+03</rscale>
<asrwt>0</asrwt>
<pdfrwt beam="1">  1       21 0.35382834E-01 0.45798997E+03</pdfrwt>
<pdfrwt beam="2">  1       21 0.32050994E-01 0.45798997E+03</pdfrwt>
<totfact> 0.66681479E+04</totfact>
</mgrwt>
</event>
<event>
 7    0  0.4725730E-002  0.4545849E+03  0.7546771E-02  0.1026364E+00
         21   -1    0    0  502  501  0.00000000000E+00  0.00000000000E+00  0.18167719677E+03  0.18167719677E+03  0.00000000000E+00 0.  1.
         21   -1    0    0  501  502 -0.00000000000E+00 -0.00000000000E+00 -0.28436074942E+03  0.28436074942E+03  0.00000000000E+00 0.  1.
      99926    2    1    2    0    0  0.71054273576E-14 -0.14210854715E-13 -0.10268355265E+03  0.46603794619E+03  0.45458492640E+03 0.  0.
      99925    2    3    3    0    0  0.62645636160E+02 -0.92597659243E+02 -0.47674542668E+02  0.28948115220E+03  0.26273118055E+03 0.  0.
         25    1    4    4    0    0  0.91708964385E+01 -0.74631073349E+02 -0.60113365460E+01  0.14607377149E+03  0.12509000000E+03 0.  0.
         25    1    4    4    0    0  0.53474739721E+02 -0.17966585894E+02 -0.41663206122E+02  0.14340738071E+03  0.12509000000E+03 0.  0.
         25    1    3    3    0    0 -0.62645636160E+02  0.92597659243E+02 -0.55009009979E+02  0.17655679400E+03  0.12509000000E+03 0.  0.
<mgrwt>
<rscale>  2 0.45458493E+03</rscale>
<asrwt>0</asrwt>
<pdfrwt beam="1">  1       21 0.26717235E-01 0.45458493E+03</pdfrwt>
<pdfrwt beam="2">  1       21 0.41817757E-01 0.45458493E+03</pdfrwt>
<totfact> 0.67955347E+04</totfact>
</mgrwt>
</event>
<event>
 7    0  0.4725730E-002  0.4529995E+03  0.7546771E-02  0.1026831E+00
         21   -1    0    0  502  501  0.00000000000E+00  0.00000000000E+00  0.15866866115E+03  0.15866866115E+03  0.00000000000E+00 0. -1.
         21   -1    0    0  501  502 -0.00000000000E+00 -0.00000000000E+00 -0.32332867352E+03  0.32332867352E+03  0.00000000000E+00 0. -1.
      99926    2    1    2    0    0  0.00000000000E+00  0.00000000000E+00 -0.16466001236E+03  0.48199733467E+03  0.45299946022E+03 0.  0.
      99925    2    3    3    0    0 -0.67677010454E+02 -0.37781329778E+02 -0.18887685661E+02  0.27486287120E+03  0.26303088540E+03 0.  0.
         25    1    3    3    0    0  0.67677010454E+02  0.37781329778E+02 -0.14577232670E+03  0.20713446347E+03  0.12509000000E+03 0.  0.
         25    1    4    4    0    0 -0.32511840933E+02 -0.51480962668E+01 -0.47632221218E+02  0.13783997713E+03  0.12509000000E+03 0.  0.
         25    1    4    4    0    0 -0.35165169521E+02 -0.32633233511E+02  0.28744535557E+02  0.13702289408E+03  0.12509000000E+03 0.  0.
<mgrwt>
<rscale>  2 0.45299946E+03</rscale>
<asrwt>0</asrwt>
<pdfrwt beam="1">  1       21 0.23333627E-01 0.45299946E+03</pdfrwt>
<pdfrwt beam="2">  1       21 0.47548334E-01 0.45299946E+03</pdfrwt>
<totfact> 0.67622510E+04</totfact>
</mgrwt>
</event>
<event>
 7    0  0.4725730E-002  0.5437150E+03  0.7546771E-02  0.1002959E+00
         21   -1    0    0  502  501  0.00000000000E+00  0.00000000000E+00  0.11114967816E+03  0.11114967816E+03  0.00000000000E+00 0.  1.
         21   -1    0    0  501  502 -0.00000000000E+00 -0.00000000000E+00 -0.66492779099E+03  0.66492779099E+03  0.00000000000E+00 0.  1.
      99926    2    1    2    0    0  0.00000000000E+00 -0.14210854715E-13 -0.55377811284E+03  0.77607746915E+03  0.54371503553E+03 0.  0.
      99925    2    3    3    0    0 -0.14650210942E+03  0.66115938444E+02 -0.19863310313E+03  0.36667586754E+03  0.26298649547E+03 0.  0.
         25    1    4    4    0    0 -0.47110042799E+02  0.61797982703E+02 -0.11092148125E+03  0.18436222472E+03  0.12509000000E+03 0.  0.
         25    1    4    4    0    0 -0.99392066616E+02  0.43179557411E+01 -0.87711621873E+02  0.18231364282E+03  0.12509000000E+03 0.  0.
         25    1    3    3    0    0  0.14650210942E+03 -0.66115938444E+02 -0.35514500971E+03  0.40940160161E+03  0.12509000000E+03 0.  0.
<mgrwt>
<rscale>  2 0.54371504E+03</rscale>
<asrwt>0</asrwt>
<pdfrwt beam="1">  1       21 0.16345541E-01 0.54371504E+03</pdfrwt>
<pdfrwt beam="2">  1       21 0.97783498E-01 0.54371504E+03</pdfrwt>
<totfact> 0.25740948E+04</totfact>
</mgrwt>
</event>
<event>
 7    0  0.4725730E-002  0.4562171E+03  0.7546771E-02  0.1025884E+00
         21   -1    0    0  502  501  0.00000000000E+00  0.00000000000E+00  0.24009221746E+03  0.24009221746E+03  0.00000000000E+00 0. -1.
         21   -1    0    0  501  502 -0.00000000000E+00 -0.00000000000E+00 -0.21672300801E+03  0.21672300801E+03  0.00000000000E+00 0. -1.
      99926    2    1    2    0    0  0.88817841970E-15  0.00000000000E+00  0.23369209442E+02  0.45681522547E+03  0.45621708678E+03 0.  0.
      99925    2    3    3    0    0 -0.76276733399E+01 -0.11331286843E+03  0.27040191464E+02  0.28782122628E+03  0.26308154400E+03 0.  0.
         25    1    3    3    0    0  0.76276733399E+01  0.11331286843E+03 -0.36709820218E+01  0.16899399919E+03  0.12509000000E+03 0.  0.
         25    1    4    4    0    0  0.47788045869E+01 -0.79589719025E+02  0.48176473761E+02  0.15596743593E+03  0.12509000000E+03 0.  0.
         25    1    4    4    0    0 -0.12406477927E+02 -0.33723149404E+02 -0.21136282297E+02  0.13185379035E+03  0.12509000000E+03 0.  0.
<mgrwt>
<rscale>  2 0.45621709E+03</rscale>
<asrwt>0</asrwt>
<pdfrwt beam="1">  1       21 0.35307679E-01 0.45621709E+03</pdfrwt>
<pdfrwt beam="2">  1       21 0.31871031E-01 0.45621709E+03</pdfrwt>
<totfact> 0.67752705E+04</totfact>
</mgrwt>
</event>
<event>
 7    0  0.4725730E-002  0.4566321E+03  0.7546771E-02  0.1025763E+00
         21   -1    0    0  502  501  0.00000000000E+00  0.00000000000E+00  0.10151137574E+03  0.10151137574E+03  0.00000000000E+00 0.  1.
         21   -1    0    0  501  502 -0.00000000000E+00 -0.00000000000E+00 -0.51352089540E+03  0.51352089540E+03  0.00000000000E+00 0.  1.
      99926    2    1    2    0    0 -0.88817841970E-15 -0.17763568394E-14 -0.41200951967E+03  0.61503227114E+03  0.45663207317E+03 0.  0.
      99925    2    3    3    0    0 -0.70214309078E+01 -0.14540110905E+02 -0.41177735083E+03  0.48890425158E+03  0.26307045679E+03 0.  0.
         25    1    4    4    0    0 -0.15856923192E+00 -0.14463844336E+02 -0.28036140315E+03  0.30734223987E+03  0.12509000000E+03 0.  0.
         25    1    3    3    0    0  0.70214309078E+01  0.14540110905E+02 -0.23216883374E+00  0.12612801957E+03  0.12509000000E+03 0.  0.
         25    1    4    4    0    0 -0.68628616759E+01 -0.76266569080E-01 -0.13141594769E+03  0.18156201170E+03  0.12509000000E+03 0.  0.
<mgrwt>
<rscale>  2 0.45663207E+03</rscale>
<asrwt>0</asrwt>
<pdfrwt beam="1">  1       21 0.14928143E-01 0.45663207E+03</pdfrwt>
<pdfrwt beam="2">  1       21 0.75517779E-01 0.45663207E+03</pdfrwt>
<totfact> 0.57023818E+04</totfact>
</mgrwt>
</event>
<event>
 7    0  0.4725730E-002  0.4690251E+03  0.7546771E-02  0.1022196E+00
         21   -1    0    0  502  501  0.00000000000E+00  0.00000000000E+00  0.90342775377E+03  0.90342775377E+03  0.00000000000E+00 0.  1.
         21   -1    0    0  501  502 -0.00000000000E+00 -0.00000000000E+00 -0.60874979590E+02  0.60874979590E+02  0.00000000000E+00 0.  1.
      99926    2    1    2    0    0  0.17763568394E-14  0.00000000000E+00  0.84255277418E+03  0.96430273336E+03  0.46902514249E+03 0.  0.
      99925    2    3    3    0    0  0.11125464450E+02 -0.53504954664E+02  0.29069318409E+03  0.39581080606E+03  0.26301541929E+03 0.  0.
         25    1    4    4    0    0 -0.27259571805E+02 -0.39782963884E+02  0.11717140601E+03  0.17805171989E+03  0.12509000000E+03 0.  0.
         25    1    4    4    0    0  0.38385036255E+02 -0.13721990780E+02  0.17352177808E+03  0.21775908617E+03  0.12509000000E+03 0.  0.
         25    1    3    3    0    0 -0.11125464450E+02  0.53504954664E+02  0.55185959009E+03  0.56849192730E+03  0.12509000000E+03 0.  0.
<mgrwt>
<rscale>  2 0.46902514E+03</rscale>
<asrwt>0</asrwt>
<pdfrwt beam="1">  1       21 0.13285701E+00 0.46902514E+03</pdfrwt>
<pdfrwt beam="2">  1       21 0.89522034E-02 0.46902514E+03</pdfrwt>
<totfact> 0.36407360E+04</totfact>
</mgrwt>
</event>
<event>
 7    0  0.4725730E-002  0.4699377E+03  0.7546771E-02  0.1021938E+00
         21   -1    0    0  502  501  0.00000000000E+00  0.00000000000E+00  0.35272399310E+03  0.35272399310E+03  0.00000000000E+00 0. -1.
         21   -1    0    0  501  502 -0.00000000000E+00 -0.00000000000E+00 -0.15652567507E+03  0.15652567507E+03  0.00000000000E+00 0. -1.
      99926    2    1    2    0    0  0.00000000000E+00  0.00000000000E+00  0.19619831803E+03  0.50924966817E+03  0.46993770282E+03 0.  0.
      99925    2    3    3    0    0 -0.68215882650E+02 -0.96015690137E+02  0.17256996655E+03  0.33581891400E+03  0.26290973783E+03 0.  0.
         25    1    3    3    0    0  0.68215882650E+02  0.96015690137E+02  0.23628351485E+02  0.17343075417E+03  0.12509000000E+03 0.  0.
         25    1    4    4    0    0 -0.24442945253E+02 -0.84066314979E+02  0.11341378112E+03  0.19019673166E+03  0.12509000000E+03 0.  0.
         25    1    4    4    0    0 -0.43772937397E+02 -0.11949375158E+02  0.59156185430E+02  0.14562218234E+03  0.12509000000E+03 0.  0.
<mgrwt>
<rscale>  2 0.46993770E+03</rscale>
<asrwt>0</asrwt>
<pdfrwt beam="1">  1       21 0.51871175E-01 0.46993770E+03</pdfrwt>
<pdfrwt beam="2">  1       21 0.23018482E-01 0.46993770E+03</pdfrwt>
<totfact> 0.57499239E+04</totfact>
</mgrwt>
</event>
<event>
 7    0  0.4725730E-002  0.4572482E+03  0.7546771E-02  0.1025582E+00
         21   -1    0    0  502  501  0.00000000000E+00  0.00000000000E+00  0.38979840015E+02  0.38979840015E+02  0.00000000000E+00 0. -1.
         21   -1    0    0  501  502 -0.00000000000E+00 -0.00000000000E+00 -0.13409235644E+04  0.13409235644E+04  0.00000000000E+00 0. -1.
      99926    2    1    2    0    0  0.35527136788E-14  0.00000000000E+00 -0.13019437243E+04  0.13799034044E+04  0.45724823023E+03 0.  0.
      99925    2    3    3    0    0  0.16137884420E+02  0.26953001680E+02 -0.48211383808E+03  0.54999048959E+03  0.26280960819E+03 0.  0.
         25    1    4    4    0    0 -0.23968669112E+02 -0.17083887979E+01 -0.19444458044E+03  0.23245132535E+03  0.12509000000E+03 0.  0.
         25    1    4    4    0    0  0.40106553532E+02  0.28661390478E+02 -0.28766925764E+03  0.31753916425E+03  0.12509000000E+03 0.  0.
         25    1    3    3    0    0 -0.16137884420E+02 -0.26953001680E+02 -0.81982988626E+03  0.82991291478E+03  0.12509000000E+03 0.  0.
<mgrwt>
<rscale>  2 0.45724823E+03</rscale>
<asrwt>0</asrwt>
<pdfrwt beam="1">  1       21 0.57323303E-02 0.45724823E+03</pdfrwt>
<pdfrwt beam="2">  1       21 0.19719461E+00 0.45724823E+03</pdfrwt>
<totfact> 0.26408053E+04</totfact>
</mgrwt>
</event>
<event>
 7    0  0.4725730E-002  0.4533533E+03  0.7546771E-02  0.1026727E+00
         21   -1    0    0  502  501  0.00000000000E+00  0.00000000000E+00  0.64605876915E+02  0.64605876915E+02  0.00000000000E+00 0.  1.
         21   -1    0    0  501  502 -0.00000000000E+00 -0.00000000000E+00 -0.79531943075E+03  0.79531943075E+03  0.00000000000E+00 0.  1.
      99926    2    1    2    0    0  0.00000000000E+00  0.35527136788E-14 -0.73071355384E+03  0.85992530767E+03  0.45335332469E+03 0.  0.
      99925    2    3    3    0    0 -0.10919310047E+03  0.22904014778E+02 -0.45044357220E+03  0.53335755392E+03  0.26291280208E+03 0.  0.
         25    1    4    4    0    0 -0.80964349083E+02 -0.19711626329E+02 -0.22796845538E+03  0.27305841643E+03  0.12509000000E+03 0.  0.
         25    1    3    3    0    0  0.10919310047E+03 -0.22904014778E+02 -0.28026998164E+03  0.32656775375E+03  0.12509000000E+03 0.  0.
         25    1    4    4    0    0 -0.28228751385E+02  0.42615641107E+02 -0.22247511683E+03  0.26029913749E+03  0.12509000000E+03 0.  0.
<mgrwt>
<rscale>  2 0.45335332E+03</rscale>
<asrwt>0</asrwt>
<pdfrwt beam="1">  1       21 0.95008646E-02 0.45335332E+03</pdfrwt>
<pdfrwt beam="2">  1       21 0.11695874E+00 0.45335332E+03</pdfrwt>
<totfact> 0.45584477E+04</totfact>
</mgrwt>
</event>
<event>
 7    0  0.4725730E-002  0.4448489E+03  0.7546771E-02  0.1029269E+00
         21   -1    0    0  502  501  0.00000000000E+00  0.00000000000E+00  0.74030914953E+03  0.74030914953E+03  0.00000000000E+00 0.  1.
         21   -1    0    0  501  502 -0.00000000000E+00 -0.00000000000E+00 -0.66826991723E+02  0.66826991723E+02  0.00000000000E+00 0.  1.
      99926    2    1    2    0    0 -0.14210854715E-13  0.00000000000E+00  0.67348215781E+03  0.80713614125E+03  0.44484888854E+03 0.  0.
      99925    2    3    3    0    0 -0.65016722184E+02  0.76158706589E+02  0.38067051830E+03  0.47334955212E+03  0.26291145323E+03 0.  0.
         25    1    4    4    0    0 -0.33756744634E+02  0.59733909474E+02  0.14036264483E+03  0.20014204434E+03  0.12509000000E+03 0.  0.
         25    1    3    3    0    0  0.65016722184E+02 -0.76158706589E+02  0.29281163951E+03  0.33378658913E+03  0.12509000000E+03 0.  0.
         25    1    4    4    0    0 -0.31259977551E+02  0.16424797115E+02  0.24030787347E+03  0.27320750778E+03  0.12509000000E+03 0.  0.
<mgrwt>
<rscale>  2 0.44484889E+03</rscale>
<asrwt>0</asrwt>
<pdfrwt beam="1">  1       21 0.10886899E+00 0.44484889E+03</pdfrwt>
<pdfrwt beam="2">  1       21 0.98274992E-02 0.44484889E+03</pdfrwt>
<totfact> 0.51395038E+04</totfact>
</mgrwt>
</event>
<event>
 7    0  0.4725730E-002  0.4539602E+03  0.7546771E-02  0.1026548E+00
         21   -1    0    0  502  501  0.00000000000E+00  0.00000000000E+00  0.50011332392E+03  0.50011332392E+03  0.00000000000E+00 0. -1.
         21   -1    0    0  501  502 -0.00000000000E+00 -0.00000000000E+00 -0.10301658375E+03  0.10301658375E+03  0.00000000000E+00 0. -1.
      99926    2    1    2    0    0  0.14210854715E-13 -0.71054273576E-14  0.39709674017E+03  0.60312990767E+03  0.45396020141E+03 0.  0.
      99925    2    3    3    0    0  0.73717803565E+02 -0.52851540146E+02  0.16237413996E+03  0.32211423727E+03  0.26299167414E+03 0.  0.
         25    1    3    3    0    0 -0.73717803565E+02  0.52851540146E+02  0.23472260022E+03  0.28101567040E+03  0.12509000000E+03 0.  0.
         25    1    4    4    0    0  0.76526253792E+02 -0.24917643969E+02  0.71951073230E+02  0.16523202335E+03  0.12509000000E+03 0.  0.
         25    1    4    4    0    0 -0.28084502279E+01 -0.27933896176E+02  0.90423066726E+02  0.15688221392E+03  0.12509000000E+03 0.  0.
<mgrwt>
<rscale>  2 0.45396020E+03</rscale>
<asrwt>0</asrwt>
<pdfrwt beam="1">  1       21 0.73546076E-01 0.45396020E+03</pdfrwt>
<pdfrwt beam="2">  1       21 0.15149498E-01 0.45396020E+03</pdfrwt>
<totfact> 0.58968962E+04</totfact>
</mgrwt>
</event>
<event>
 7    0  0.4725730E-002  0.4539180E+03  0.7546771E-02  0.1026560E+00
         21   -1    0    0  502  501  0.00000000000E+00  0.00000000000E+00  0.22176948620E+03  0.22176948620E+03  0.00000000000E+00 0.  1.
         21   -1    0    0  501  502 -0.00000000000E+00 -0.00000000000E+00 -0.23226995482E+03  0.23226995482E+03  0.00000000000E+00 0.  1.
      99926    2    1    2    0    0 -0.35527136788E-14  0.14210854715E-13 -0.10500468620E+02  0.45403944102E+03  0.45391800379E+03 0.  0.
      99925    2    3    3    0    0  0.21005076982E+02 -0.99304189214E+02 -0.54001468270E+02  0.28717907927E+03  0.26315989386E+03 0.  0.
         25    1    3    3    0    0 -0.21005076982E+02  0.99304189214E+02  0.43500999650E+02  0.16686036176E+03  0.12509000000E+03 0.  0.
         25    1    4    4    0    0  0.48695996032E+02 -0.54495085981E+02 -0.42423875486E+02  0.15095796679E+03  0.12509000000E+03 0.  0.
         25    1    4    4    0    0 -0.27690919050E+02 -0.44809103233E+02 -0.11577592785E+02  0.13622111248E+03  0.12509000000E+03 0.  0.
<mgrwt>
<rscale>  2 0.45391800E+03</rscale>
<asrwt>0</asrwt>
<pdfrwt beam="1">  1       21 0.32613160E-01 0.45391800E+03</pdfrwt>
<pdfrwt beam="2">  1       21 0.34157346E-01 0.45391800E+03</pdfrwt>
<totfact> 0.69211816E+04</totfact>
</mgrwt>
</event>
<event>
 7    0  0.4725730E-002  0.4499409E+03  0.7546771E-02  0.1027740E+00
         21   -1    0    0  502  501  0.00000000000E+00  0.00000000000E+00  0.99503800106E+02  0.99503800106E+02  0.00000000000E+00 0. -1.
         21   -1    0    0  501  502 -0.00000000000E+00 -0.00000000000E+00 -0.50864086395E+03  0.50864086395E+03  0.00000000000E+00 0. -1.
      99926    2    1    2    0    0  0.71054273576E-14  0.00000000000E+00 -0.40913706384E+03  0.60814466406E+03  0.44994087990E+03 0.  0.
      99925    2    3    3    0    0 -0.49889375329E+02 -0.34882723087E+02 -0.13744116714E+03  0.30290390248E+03  0.26297327920E+03 0.  0.
         25    1    4    4    0    0  0.23638123604E+01  0.89206874252E+01 -0.45909082615E+02  0.13356765417E+03  0.12509000000E+03 0.  0.
         25    1    4    4    0    0 -0.52253187689E+02 -0.43803410512E+02 -0.91532084527E+02  0.16933624832E+03  0.12509000000E+03 0.  0.
         25    1    3    3    0    0  0.49889375329E+02  0.34882723087E+02 -0.27169589670E+03  0.30524076157E+03  0.12509000000E+03 0.  0.
<mgrwt>
<rscale>  2 0.44994088E+03</rscale>
<asrwt>0</asrwt>
<pdfrwt beam="1">  1       21 0.14632912E-01 0.44994088E+03</pdfrwt>
<pdfrwt beam="2">  1       21 0.74800127E-01 0.44994088E+03</pdfrwt>
<totfact> 0.60563980E+04</totfact>
</mgrwt>
</event>
<event>
 7    0  0.4725730E-002  0.4494697E+03  0.7546771E-02  0.1027880E+00
         21   -1    0    0  502  501  0.00000000000E+00  0.00000000000E+00  0.13357368985E+03  0.13357368985E+03  0.00000000000E+00 0.  1.
         21   -1    0    0  501  502 -0.00000000000E+00 -0.00000000000E+00 -0.37811152005E+03  0.37811152005E+03  0.00000000000E+00 0.  1.
      99926    2    1    2    0    0  0.00000000000E+00  0.00000000000E+00 -0.24453783021E+03  0.51168520990E+03  0.44946969155E+03 0.  0.
      99925    2    3    3    0    0  0.10750587863E+03  0.91102215943E+01 -0.15654736071E+03  0.32452126866E+03  0.26299518549E+03 0.  0.
         25    1    3    3    0    0 -0.10750587863E+03 -0.91102215943E+01 -0.87990469492E+02  0.18716394124E+03  0.12509000000E+03 0.  0.
         25    1    4    4    0    0  0.23639990728E+02  0.11092524472E+02 -0.39435607272E+02  0.13373319888E+03  0.12509000000E+03 0.  0.
         25    1    4    4    0    0  0.83865887900E+02 -0.19823028772E+01 -0.11711175344E+03  0.19078806979E+03  0.12509000000E+03 0.  0.
<mgrwt>
<rscale>  2 0.44946969E+03</rscale>
<asrwt>0</asrwt>
<pdfrwt beam="1">  1       21 0.19643190E-01 0.44946969E+03</pdfrwt>
<pdfrwt beam="2">  1       21 0.55604635E-01 0.44946969E+03</pdfrwt>
<totfact> 0.67365339E+04</totfact>
</mgrwt>
</event>
<event>
 7    0  0.4725730E-002  0.4560369E+03  0.7546771E-02  0.1025937E+00
         21   -1    0    0  502  501  0.00000000000E+00  0.00000000000E+00  0.86852785819E+03  0.86852785819E+03  0.00000000000E+00 0. -1.
         21   -1    0    0  501  502 -0.00000000000E+00 -0.00000000000E+00 -0.59862699616E+02  0.59862699616E+02  0.00000000000E+00 0. -1.
      99926    2    1    2    0    0  0.00000000000E+00  0.00000000000E+00  0.80866515858E+03  0.92839055781E+03  0.45603693834E+03 0.  0.
      99925    2    3    3    0    0 -0.11290953881E+03  0.14758036481E+02  0.52747907750E+03  0.60024503538E+03  0.26285654207E+03 0.  0.
         25    1    4    4    0    0 -0.27444160285E+02 -0.18226342745E+02  0.20449279729E+03  0.24197147300E+03  0.12509000000E+03 0.  0.
         25    1    4    4    0    0 -0.85465378522E+02  0.32984379227E+02  0.32298628021E+03  0.35827356239E+03  0.12509000000E+03 0.  0.
         25    1    3    3    0    0  0.11290953881E+03 -0.14758036481E+02  0.28118608108E+03  0.32814552242E+03  0.12509000000E+03 0.  0.
<mgrwt>
<rscale>  2 0.45603694E+03</rscale>
<asrwt>0</asrwt>
<pdfrwt beam="1">  1       21 0.12772468E+00 0.45603694E+03</pdfrwt>
<pdfrwt beam="2">  1       21 0.88033387E-02 0.45603694E+03</pdfrwt>
<totfact> 0.41689333E+04</totfact>
</mgrwt>
</event>
<event>
 7    0  0.4725730E-002  0.4624716E+03  0.7546771E-02  0.1024067E+00
         21   -1    0    0  502  501  0.00000000000E+00  0.00000000000E+00  0.23713267584E+03  0.23713267584E+03  0.00000000000E+00 0. -1.
         21   -1    0    0  501  502 -0.00000000000E+00 -0.00000000000E+00 -0.22548552680E+03  0.22548552680E+03  0.00000000000E+00 0. -1.
      99926    2    1    2    0    0  0.00000000000E+00  0.00000000000E+00  0.11647149039E+02  0.46261820264E+03  0.46247156165E+03 0.  0.
      99925    2    3    3    0    0 -0.68913829851E+02  0.90946476253E+02  0.45369979054E+02  0.28997662349E+03  0.26269303319E+03 0.  0.
         25    1    4    4    0    0 -0.19410069468E+02  0.77180490314E+02  0.31002933991E+01  0.14829261209E+03  0.12509000000E+03 0.  0.
         25    1    4    4    0    0 -0.49503760383E+02  0.13765985938E+02  0.42269685655E+02  0.14168401140E+03  0.12509000000E+03 0.  0.
         25    1    3    3    0    0  0.68913829851E+02 -0.90946476253E+02 -0.33722830015E+02  0.17264157915E+03  0.12509000000E+03 0.  0.
<mgrwt>
<rscale>  2 0.46247156E+03</rscale>
<asrwt>0</asrwt>
<pdfrwt beam="1">  1       21 0.34872452E-01 0.46247156E+03</pdfrwt>
<pdfrwt beam="2">  1       21 0.33159636E-01 0.46247156E+03</pdfrwt>
<totfact> 0.64084780E+04</totfact>
</mgrwt>
</event>
<event>
 6    0  0.4725730E-002  0.4472900E+03  0.7546771E-02  0.1028533E+00
         21   -1    0    0  502  501  0.00000000000E+00  0.00000000000E+00  0.31102605606E+03  0.31102605606E+03  0.00000000000E+00 0. -1.
         21   -1    0    0  501  502 -0.00000000000E+00 -0.00000000000E+00 -0.16081316402E+03  0.16081316402E+03  0.00000000000E+00 0. -1.
      99926    2    1    2    0    0  0.35527136788E-14  0.00000000000E+00  0.15021289205E+03  0.47183922008E+03  0.44728999169E+03 0.  0.
         25    1    3    3    0    0  0.49307026466E+02 -0.63183684716E+02  0.10609187048E+03  0.18255507102E+03  0.12509000000E+03 0.  0.
         25    1    3    3    0    0 -0.30973754900E+02  0.81505209212E+02 -0.46332727907E+01  0.15254982117E+03  0.12509000000E+03 0.  0.
         25    1    3    3    0    0 -0.18333271566E+02 -0.18321524495E+02  0.48754294355E+02  0.13673432789E+03  0.12509000000E+03 0.  0.
<mgrwt>
<rscale>  2 0.44728999E+03</rscale>
<asrwt>0</asrwt>
<pdfrwt beam="1">  1       21 0.45739126E-01 0.44728999E+03</pdfrwt>
<pdfrwt beam="2">  1       21 0.23648995E-01 0.44728999E+03</pdfrwt>
<totfact> 0.71579750E+04</totfact>
</mgrwt>
</event>
<event>
 7    0  0.4725730E-002  0.4550940E+03  0.7546771E-02  0.1026214E+00
         21   -1    0    0  502  501  0.00000000000E+00  0.00000000000E+00  0.88903320286E+02  0.88903320286E+02  0.00000000000E+00 0.  1.
         21   -1    0    0  501  502 -0.00000000000E+00 -0.00000000000E+00 -0.58240381296E+03  0.58240381296E+03  0.00000000000E+00 0.  1.
      99926    2    1    2    0    0  0.00000000000E+00 -0.14210854715E-13 -0.49350049267E+03  0.67130713324E+03  0.45509398027E+03 0.  0.
      99925    2    3    3    0    0 -0.41216476585E+02 -0.91186796276E+02 -0.38870626327E+03  0.47988307945E+03  0.26302353711E+03 0.  0.
         25    1    4    4    0    0 -0.33047351543E+02 -0.86504298014E+02 -0.22683963082E+03  0.27509788663E+03  0.12509000000E+03 0.  0.
         25    1    4    4    0    0 -0.81691250421E+01 -0.46824982620E+01 -0.16186663245E+03  0.20478519281E+03  0.12509000000E+03 0.  0.
         25    1    3    3    0    0  0.41216476585E+02  0.91186796276E+02 -0.10479422940E+03  0.19142405380E+03  0.12509000000E+03 0.  0.
<mgrwt>
<rscale>  2 0.45509398E+03</rscale>
<asrwt>0</asrwt>
<pdfrwt beam="1">  1       21 0.13074018E-01 0.45509398E+03</pdfrwt>
<pdfrwt beam="2">  1       21 0.85647620E-01 0.45509398E+03</pdfrwt>
<totfact> 0.54448457E+04</totfact>
</mgrwt>
</event>
<event>
 7    0  0.4725730E-002  0.4500894E+03  0.7546771E-02  0.1027695E+00
         21   -1    0    0  502  501  0.00000000000E+00  0.00000000000E+00  0.44099112819E+03  0.44099112819E+03  0.00000000000E+00 0. -1.
         21   -1    0    0  501  502 -0.00000000000E+00 -0.00000000000E+00 -0.11484382403E+03  0.11484382403E+03  0.00000000000E+00 0. -1.
      99926    2    1    2    0    0  0.00000000000E+00  0.13322676296E-14  0.32614730416E+03  0.55583495222E+03  0.45008935791E+03 0.  0.
      99925    2    3    3    0    0  0.88056815189E+02 -0.27410497387E+01  0.12783180780E+03  0.30535928424E+03  0.26294829403E+03 0.  0.
         25    1    4    4    0    0  0.61699303686E+02  0.33403228955E+02  0.53120598127E+02  0.15294406110E+03  0.12509000000E+03 0.  0.
         25    1    3    3    0    0 -0.88056815189E+02  0.27410497387E+01  0.19831549636E+03  0.25047566798E+03  0.12509000000E+03 0.  0.
         25    1    4    4    0    0  0.26357511503E+02 -0.36144278694E+02  0.74711209671E+02  0.15241522314E+03  0.12509000000E+03 0.  0.
<mgrwt>
<rscale>  2 0.45008936E+03</rscale>
<asrwt>0</asrwt>
<pdfrwt beam="1">  1       21 0.64851636E-01 0.45008936E+03</pdfrwt>
<pdfrwt beam="2">  1       21 0.16888798E-01 0.45008936E+03</pdfrwt>
<totfact> 0.63930066E+04</totfact>
</mgrwt>
</event>
<event>
 7    0  0.4725730E-002  0.4533579E+03  0.7546771E-02  0.1026725E+00
         21   -1    0    0  502  501  0.00000000000E+00  0.00000000000E+00  0.20467656620E+03  0.20467656620E+03  0.00000000000E+00 0. -1.
         21   -1    0    0  501  502 -0.00000000000E+00 -0.00000000000E+00 -0.25104654083E+03  0.25104654083E+03  0.00000000000E+00 0. -1.
      99926    2    1    2    0    0  0.00000000000E+00  0.00000000000E+00 -0.46369974631E+02  0.45572310703E+03  0.45335788924E+03 0.  0.
      99925    2    3    3    0    0 -0.77061440400E+02 -0.54689633964E+02  0.30435416948E+02  0.28114934630E+03  0.26303843571E+03 0.  0.
         25    1    4    4    0    0 -0.43246769444E+02  0.69572419838E+01  0.36671654421E+02  0.13751728845E+03  0.12509000000E+03 0.  0.
         25    1    3    3    0    0  0.77061440400E+02  0.54689633964E+02 -0.76805391579E+02  0.17457376073E+03  0.12509000000E+03 0.  0.
         25    1    4    4    0    0 -0.33814670956E+02 -0.61646875948E+02 -0.62362374728E+01  0.14363205786E+03  0.12509000000E+03 0.  0.
<mgrwt>
<rscale>  2 0.45335789E+03</rscale>
<asrwt>0</asrwt>
<pdfrwt beam="1">  1       21 0.30099495E-01 0.45335789E+03</pdfrwt>
<pdfrwt beam="2">  1       21 0.36918609E-01 0.45335789E+03</pdfrwt>
<totfact> 0.69397609E+04</totfact>
</mgrwt>
</event>
<event>
 7    0  0.4725730E-002  0.4541761E+03  0.7546771E-02  0.1026484E+00
         21   -1    0    0  502  501  0.00000000000E+00  0.00000000000E+00  0.13727898326E+03  0.13727898326E+03  0.00000000000E+00 0. -1.
         21   -1    0    0  501  502 -0.00000000000E+00 -0.00000000000E+00 -0.37565095990E+03  0.37565095990E+03  0.00000000000E+00 0. -1.
      99926    2    1    2    0    0  0.00000000000E+00  0.00000000000E+00 -0.23837197664E+03  0.51292994317E+03  0.45417609729E+03 0.  0.
      99925    2    3    3    0    0 -0.19694706150E+02 -0.96077522211E+02 -0.88168331111E+02  0.29423514452E+03  0.26302451204E+03 0.  0.
         25    1    4    4    0    0 -0.17914731399E+02 -0.20621996104E+02 -0.97136613251E+01  0.12840587074E+03  0.12509000000E+03 0.  0.
         25    1    3    3    0    0  0.19694706150E+02  0.96077522211E+02 -0.15020364553E+03  0.21869479865E+03  0.12509000000E+03 0.  0.
         25    1    4    4    0    0 -0.17799747503E+01 -0.75455526108E+02 -0.78454669786E+02  0.16582927378E+03  0.12509000000E+03 0.  0.
<mgrwt>
<rscale>  2 0.45417610E+03</rscale>
<asrwt>0</asrwt>
<pdfrwt beam="1">  1       21 0.20188086E-01 0.45417610E+03</pdfrwt>
<pdfrwt beam="2">  1       21 0.55242788E-01 0.45417610E+03</pdfrwt>
<totfact> 0.64794103E+04</totfact>
</mgrwt>
</event>
<event>
 7    0  0.4725730E-002  0.4482744E+03  0.7546771E-02  0.1028238E+00
         21   -1    0    0  502  501  0.00000000000E+00  0.00000000000E+00  0.52347800641E+02  0.52347800641E+02  0.00000000000E+00 0.  1.
         21   -1    0    0  501  502 -0.00000000000E+00 -0.00000000000E+00 -0.95968659862E+03  0.95968659862E+03  0.00000000000E+00 0.  1.
      99926    2    1    2    0    0  0.00000000000E+00  0.00000000000E+00 -0.90733879798E+03  0.10120343993E+04  0.44827439250E+03 0.  0.
      99925    2    3    3    0    0 -0.13201526919E+02  0.77241206140E+02 -0.73831525614E+03  0.78763085643E+03  0.26289249573E+03 0.  0.
         25    1    3    3    0    0  0.13201526919E+02 -0.77241206140E+02 -0.16902354184E+03  0.22440354283E+03  0.12509000000E+03 0.  0.
         25    1    4    4    0    0 -0.19268495753E+02  0.39598845947E+01 -0.29062603010E+03  0.31701412127E+03  0.12509000000E+03 0.  0.
         25    1    4    4    0    0  0.60669688345E+01  0.73281321546E+02 -0.44768922605E+03  0.47061673516E+03  0.12509000000E+03 0.  0.
<mgrwt>
<rscale>  2 0.44827439E+03</rscale>
<asrwt>0</asrwt>
<pdfrwt beam="1">  1       21 0.76982063E-02 0.44827439E+03</pdfrwt>
<pdfrwt beam="2">  1       21 0.14113038E+00 0.44827439E+03</pdfrwt>
<totfact> 0.40803036E+04</totfact>
</mgrwt>
</event>
<event>
 7    0  0.4725730E-002  0.4508643E+03  0.7546771E-02  0.1027465E+00
         21   -1    0    0  502  501  0.00000000000E+00  0.00000000000E+00  0.36738165340E+03  0.36738165340E+03  0.00000000000E+00 0. -1.
         21   -1    0    0  501  502 -0.00000000000E+00 -0.00000000000E+00 -0.13832931937E+03  0.13832931937E+03  0.00000000000E+00 0. -1.
      99926    2    1    2    0    0  0.00000000000E+00  0.00000000000E+00  0.22905233403E+03  0.50571097276E+03  0.45086429915E+03 0.  0.
      99925    2    3    3    0    0 -0.24344028930E+01 -0.37907783632E+02  0.29740356991E+02  0.26735053421E+03  0.26296177085E+03 0.  0.
         25    1    4    4    0    0 -0.47358420501E+01  0.21454465245E+02  0.19492465736E+02  0.12849197095E+03  0.12509000000E+03 0.  0.
         25    1    3    3    0    0  0.24344028930E+01  0.37907783632E+02  0.19931197704E+03  0.23836043856E+03  0.12509000000E+03 0.  0.
         25    1    4    4    0    0  0.23014391571E+01 -0.59362248877E+02  0.10247891255E+02  0.13885856325E+03  0.12509000000E+03 0.  0.
<mgrwt>
<rscale>  2 0.45086430E+03</rscale>
<asrwt>0</asrwt>
<pdfrwt beam="1">  1       21 0.54026714E-01 0.45086430E+03</pdfrwt>
<pdfrwt beam="2">  1       21 0.20342547E-01 0.45086430E+03</pdfrwt>
<totfact> 0.67045076E+04</totfact>
</mgrwt>
</event>
<event>
 7    0  0.4725730E-002  0.4685068E+03  0.7546771E-02  0.1022343E+00
         21   -1    0    0  502  501  0.00000000000E+00  0.00000000000E+00  0.12073007695E+03  0.12073007695E+03  0.00000000000E+00 0.  1.
         21   -1    0    0  501  502 -0.00000000000E+00 -0.00000000000E+00 -0.45452346125E+03  0.45452346125E+03  0.00000000000E+00 0.  1.
      99926    2    1    2    0    0 -0.14210854715E-13  0.00000000000E+00 -0.33379338430E+03  0.57525353819E+03  0.46850678736E+03 0.  0.
      99925    2    3    3    0    0  0.78572350478E+02 -0.76974201086E+02 -0.28158144529E+03  0.40069055080E+03  0.26299461073E+03 0.  0.
         25    1    4    4    0    0  0.18592936072E+02 -0.13523005803E+01 -0.11234840889E+03  0.16916618772E+03  0.12509000000E+03 0.  0.
         25    1    4    4    0    0  0.59979414406E+02 -0.75621900506E+02 -0.16923303640E+03  0.23152436307E+03  0.12509000000E+03 0.  0.
         25    1    3    3    0    0 -0.78572350478E+02  0.76974201086E+02 -0.52211939011E+02  0.17456298739E+03  0.12509000000E+03 0.  0.
<mgrwt>
<rscale>  2 0.46850679E+03</rscale>
<asrwt>0</asrwt>
<pdfrwt beam="1">  1       21 0.17754423E-01 0.46850679E+03</pdfrwt>
<pdfrwt beam="2">  1       21 0.66841685E-01 0.46850679E+03</pdfrwt>
<totfact> 0.54202955E+04</totfact>
</mgrwt>
</event>
<event>
 7    0  0.4725730E-002  0.4514207E+03  0.7546771E-02  0.1027299E+00
         21   -1    0    0  502  501  0.00000000000E+00  0.00000000000E+00  0.15013519143E+03  0.15013519143E+03  0.00000000000E+00 0.  1.
         21   -1    0    0  501  502 -0.00000000000E+00 -0.00000000000E+00 -0.33932863077E+03  0.33932863077E+03  0.00000000000E+00 0.  1.
      99926    2    1    2    0    0  0.14210854715E-13  0.71054273576E-14 -0.18919343934E+03  0.48946382220E+03  0.45142073031E+03 0.  0.
      99925    2    3    3    0    0 -0.94297548011E+02 -0.41126529957E+02 -0.78203313890E+02  0.29312295770E+03  0.26310053401E+03 0.  0.
         25    1    4    4    0    0 -0.22158481233E+02 -0.28771525916E+02 -0.70215507308E+02  0.14797474298E+03  0.12509000000E+03 0.  0.
         25    1    4    4    0    0 -0.72139066778E+02 -0.12355004041E+02 -0.79878065812E+01  0.14514821471E+03  0.12509000000E+03 0.  0.
         25    1    3    3    0    0  0.94297548011E+02  0.41126529957E+02 -0.11099012545E+03  0.19634086450E+03  0.12509000000E+03 0.  0.
<mgrwt>
<rscale>  2 0.45142073E+03</rscale>
<asrwt>0</asrwt>
<pdfrwt beam="1">  1       21 0.22078705E-01 0.45142073E+03</pdfrwt>
<pdfrwt beam="2">  1       21 0.49901268E-01 0.45142073E+03</pdfrwt>
<totfact> 0.67927091E+04</totfact>
</mgrwt>
</event>
<event>
 7    0  0.4725730E-002  0.4445360E+03  0.7546771E-02  0.1029364E+00
         21   -1    0    0  502  501  0.00000000000E+00  0.00000000000E+00  0.49079705098E+02  0.49079705098E+02  0.00000000000E+00 0.  1.
         21   -1    0    0  501  502 -0.00000000000E+00 -0.00000000000E+00 -0.10065884259E+04  0.10065884259E+04  0.00000000000E+00 0.  1.
      99926    2    1    2    0    0  0.00000000000E+00  0.00000000000E+00 -0.95750872082E+03  0.10556681310E+04  0.44453599674E+03 0.  0.
      99925    2    3    3    0    0 -0.73829405203E+02  0.19016890770E+02 -0.44306748174E+03  0.52077588040E+03  0.26284273058E+03 0.  0.
         25    1    3    3    0    0  0.73829405203E+02 -0.19016890770E+02 -0.51444123907E+03  0.53489225061E+03  0.12509000000E+03 0.  0.
         25    1    4    4    0    0 -0.18025349248E+02  0.27027002704E+02 -0.15582476132E+03  0.20244563821E+03  0.12509000000E+03 0.  0.
         25    1    4    4    0    0 -0.55804055954E+02 -0.80101119336E+01 -0.28724272043E+03  0.31833024219E+03  0.12509000000E+03 0.  0.
<mgrwt>
<rscale>  2 0.44453600E+03</rscale>
<asrwt>0</asrwt>
<pdfrwt beam="1">  1       21 0.72176037E-02 0.44453600E+03</pdfrwt>
<pdfrwt beam="2">  1       21 0.14802771E+00 0.44453600E+03</pdfrwt>
<totfact> 0.40258837E+04</totfact>
</mgrwt>
</event>
<event>
 7    0  0.4725730E-002  0.4478231E+03  0.7546771E-02  0.1028373E+00
         21   -1    0    0  502  501  0.00000000000E+00  0.00000000000E+00  0.56800977554E+03  0.56800977554E+03  0.00000000000E+00 0. -1.
         21   -1    0    0  501  502 -0.00000000000E+00 -0.00000000000E+00 -0.88266743156E+02  0.88266743156E+02  0.00000000000E+00 0. -1.
      99926    2    1    2    0    0 -0.88817841970E-15  0.00000000000E+00  0.47974303239E+03  0.65627651870E+03  0.44782305866E+03 0.  0.
      99925    2    3    3    0    0  0.43826728321E+01 -0.10551266189E+03  0.32413324640E+03  0.43041363278E+03  0.26275731050E+03 0.  0.
         25    1    4    4    0    0  0.31114314404E+02 -0.72979483113E+02  0.13964764594E+03  0.20357573194E+03  0.12509000000E+03 0.  0.
         25    1    4    4    0    0 -0.26731641571E+02 -0.32533178780E+02  0.18448560046E+03  0.22683790084E+03  0.12509000000E+03 0.  0.
         25    1    3    3    0    0 -0.43826728321E+01  0.10551266189E+03  0.15560978599E+03  0.22586288592E+03  0.12509000000E+03 0.  0.
<mgrwt>
<rscale>  2 0.44782306E+03</rscale>
<asrwt>0</asrwt>
<pdfrwt beam="1">  1       21 0.83530847E-01 0.44782306E+03</pdfrwt>
<pdfrwt beam="2">  1       21 0.12980404E-01 0.44782306E+03</pdfrwt>
<totfact> 0.58587490E+04</totfact>
</mgrwt>
</event>
<event>
 7    0  0.4725730E-002  0.4502650E+03  0.7546771E-02  0.1027643E+00
         21   -1    0    0  502  501  0.00000000000E+00  0.00000000000E+00  0.90997749727E+02  0.90997749727E+02  0.00000000000E+00 0.  1.
         21   -1    0    0  501  502 -0.00000000000E+00 -0.00000000000E+00 -0.55698778695E+03  0.55698778695E+03  0.00000000000E+00 0.  1.
      99926    2    1    2    0    0  0.00000000000E+00  0.00000000000E+00 -0.46599003722E+03  0.64798553668E+03  0.45026496749E+03 0.  0.
      99925    2    3    3    0    0 -0.35010705008E+02 -0.13904054280E+02 -0.14771259407E+03  0.30394032001E+03  0.26294797107E+03 0.  0.
         25    1    4    4    0    0 -0.51391018794E+02 -0.18437296731E+02 -0.54268913974E+02  0.14687952154E+03  0.12509000000E+03 0.  0.
         25    1    3    3    0    0  0.35010705008E+02  0.13904054280E+02 -0.31827744316E+03  0.34404521667E+03  0.12509000000E+03 0.  0.
         25    1    4    4    0    0  0.16380313786E+02  0.45332424509E+01 -0.93443680092E+02  0.15706079847E+03  0.12509000000E+03 0.  0.
<mgrwt>
<rscale>  2 0.45026497E+03</rscale>
<asrwt>0</asrwt>
<pdfrwt beam="1">  1       21 0.13382022E-01 0.45026497E+03</pdfrwt>
<pdfrwt beam="2">  1       21 0.81909971E-01 0.45026497E+03</pdfrwt>
<totfact> 0.57952376E+04</totfact>
</mgrwt>
</event>
<event>
 7    0  0.4725730E-002  0.4462722E+03  0.7546771E-02  0.1028840E+00
         21   -1    0    0  502  501  0.00000000000E+00  0.00000000000E+00  0.49733661960E+03  0.49733661960E+03  0.00000000000E+00 0. -1.
         21   -1    0    0  501  502 -0.00000000000E+00 -0.00000000000E+00 -0.10011269468E+03  0.10011269468E+03  0.00000000000E+00 0. -1.
      99926    2    1    2    0    0  0.00000000000E+00  0.00000000000E+00  0.39722392492E+03  0.59744931428E+03  0.44627215531E+03 0.  0.
      99925    2    3    3    0    0  0.54629874945E+02  0.68435169336E+02  0.17482577287E+03  0.32767859354E+03  0.26294755021E+03 0.  0.
         25    1    4    4    0    0  0.53445783680E+02  0.46833526645E+02  0.12738451826E+03  0.19215658876E+03  0.12509000000E+03 0.  0.
         25    1    4    4    0    0  0.11840912658E+01  0.21601642690E+02  0.47441254610E+02  0.13552200477E+03  0.12509000000E+03 0.  0.
         25    1    3    3    0    0 -0.54629874945E+02 -0.68435169336E+02  0.22239815205E+03  0.26977072075E+03  0.12509000000E+03 0.  0.
<mgrwt>
<rscale>  2 0.44627216E+03</rscale>
<asrwt>0</asrwt>
<pdfrwt beam="1">  1       21 0.73137737E-01 0.44627216E+03</pdfrwt>
<pdfrwt beam="2">  1       21 0.14722455E-01 0.44627216E+03</pdfrwt>
<totfact> 0.63074090E+04</totfact>
</mgrwt>
</event>
<event>
 7    0  0.4725730E-002  0.4515927E+03  0.7546771E-02  0.1027248E+00
         21   -1    0    0  502  501  0.00000000000E+00  0.00000000000E+00  0.20511642940E+03  0.20511642940E+03  0.00000000000E+00 0.  1.
         21   -1    0    0  501  502 -0.00000000000E+00 -0.00000000000E+00 -0.24856118942E+03  0.24856118942E+03  0.00000000000E+00 0.  1.
      99926    2    1    2    0    0  0.71054273576E-14  0.00000000000E+00 -0.43444760025E+02  0.45367761882E+03  0.45159266452E+03 0.  0.
      99925    2    3    3    0    0  0.58271300248E+02  0.93167774363E+02 -0.24516723310E+02  0.28610209171E+03  0.26301627050E+03 0.  0.
         25    1    4    4    0    0  0.34063713540E+02  0.38020689079E+02 -0.51651229641E+02  0.14464185771E+03  0.12509000000E+03 0.  0.
         25    1    3    3    0    0 -0.58271300248E+02 -0.93167774363E+02 -0.18928036716E+02  0.16757552711E+03  0.12509000000E+03 0.  0.
         25    1    4    4    0    0  0.24207586707E+02  0.55147085284E+02  0.27134506332E+02  0.14146023400E+03  0.12509000000E+03 0.  0.
<mgrwt>
<rscale>  2 0.45159266E+03</rscale>
<asrwt>0</asrwt>
<pdfrwt beam="1">  1       21 0.30164181E-01 0.45159266E+03</pdfrwt>
<pdfrwt beam="2">  1       21 0.36553116E-01 0.45159266E+03</pdfrwt>
<totfact> 0.70541073E+04</totfact>
</mgrwt>
</event>
<event>
 7    0  0.4725730E-002  0.4553613E+03  0.7546771E-02  0.1026135E+00
         21   -1    0    0  502  501  0.00000000000E+00  0.00000000000E+00  0.20354670871E+03  0.20354670871E+03  0.00000000000E+00 0. -1.
         21   -1    0    0  501  502 -0.00000000000E+00 -0.00000000000E+00 -0.25467612260E+03  0.25467612260E+03  0.00000000000E+00 0. -1.
      99926    2    1    2    0    0 -0.14210854715E-13  0.00000000000E+00 -0.51129413887E+02  0.45822283131E+03  0.45536133583E+03 0.  0.
      99925    2    3    3    0    0 -0.11023604247E+03  0.99456706674E+01 -0.51045549530E+02  0.29119464040E+03  0.26445749951E+03 0.  0.
         25    1    3    3    0    0  0.11023604247E+03 -0.99456706674E+01 -0.83864356865E-01  0.16702819091E+03  0.12509000000E+03 0.  0.
         25    1    4    4    0    0 -0.79518565634E+02  0.41296822550E+02 -0.33459469452E+02  0.15746642191E+03  0.12509000000E+03 0.  0.
         25    1    4    4    0    0 -0.30717476836E+02 -0.31351151883E+02 -0.17586080078E+02  0.13372821849E+03  0.12509000000E+03 0.  0.
<mgrwt>
<rscale>  2 0.45536134E+03</rscale>
<asrwt>0</asrwt>
<pdfrwt beam="1">  1       21 0.29933339E-01 0.45536134E+03</pdfrwt>
<pdfrwt beam="2">  1       21 0.37452371E-01 0.45536134E+03</pdfrwt>
<totfact> 0.68113689E+04</totfact>
</mgrwt>
</event>
<event>
 7    0  0.4725730E-002  0.4529147E+03  0.7546771E-02  0.1026856E+00
         21   -1    0    0  502  501  0.00000000000E+00  0.00000000000E+00  0.14710979929E+03  0.14710979929E+03  0.00000000000E+00 0.  1.
         21   -1    0    0  501  502 -0.00000000000E+00 -0.00000000000E+00 -0.34860304920E+03  0.34860304920E+03  0.00000000000E+00 0.  1.
      99926    2    1    2    0    0  0.71054273576E-14  0.00000000000E+00 -0.20149324991E+03  0.49571284849E+03  0.45291467011E+03 0.  0.
      99925    2    3    3    0    0  0.50327024742E+02 -0.66784088129E+02 -0.47385745133E+02  0.28033050247E+03  0.26333791586E+03 0.  0.
         25    1    4    4    0    0  0.48940065947E+02 -0.46218871849E+02 -0.57284846735E+02  0.15316780319E+03  0.12509000000E+03 0.  0.
         25    1    3    3    0    0 -0.50327024742E+02  0.66784088129E+02 -0.15410750478E+03  0.21538234602E+03  0.12509000000E+03 0.  0.
         25    1    4    4    0    0  0.13869587942E+01 -0.20565216281E+02  0.98991016023E+01  0.12716269928E+03  0.12509000000E+03 0.  0.
<mgrwt>
<rscale>  2 0.45291467E+03</rscale>
<asrwt>0</asrwt>
<pdfrwt beam="1">  1       21 0.21633794E-01 0.45291467E+03</pdfrwt>
<pdfrwt beam="2">  1       21 0.51265154E-01 0.45291467E+03</pdfrwt>
<totfact> 0.66669749E+04</totfact>
</mgrwt>
</event>
<event>
 7    0  0.4725730E-002  0.4573638E+03  0.7546771E-02  0.1025549E+00
         21   -1    0    0  502  501  0.00000000000E+00  0.00000000000E+00  0.15741550137E+03  0.15741550137E+03  0.00000000000E+00 0.  1.
         21   -1    0    0  501  502 -0.00000000000E+00 -0.00000000000E+00 -0.33221253689E+03  0.33221253689E+03  0.00000000000E+00 0.  1.
      99926    2    1    2    0    0  0.00000000000E+00  0.29143354396E-14 -0.17479703551E+03  0.48962803826E+03  0.45736376357E+03 0.  0.
      99925    2    3    3    0    0  0.36715246707E+02  0.19191330960E+00 -0.22621824200E+03  0.34948634301E+03  0.26385216461E+03 0.  0.
         25    1    4    4    0    0  0.50965225293E+02 -0.21707287357E+02 -0.13716836254E+03  0.19373003974E+03  0.12509000000E+03 0.  0.
         25    1    3    3    0    0 -0.36715246707E+02 -0.19191330960E+00  0.51421206481E+02  0.14014169525E+03  0.12509000000E+03 0.  0.
         25    1    4    4    0    0 -0.14249978587E+02  0.21899200666E+02 -0.89049879452E+02  0.15575630328E+03  0.12509000000E+03 0.  0.
<mgrwt>
<rscale>  2 0.45736376E+03</rscale>
<asrwt>0</asrwt>
<pdfrwt beam="1">  1       21 0.23149339E-01 0.45736376E+03</pdfrwt>
<pdfrwt beam="2">  1       21 0.48854784E-01 0.45736376E+03</pdfrwt>
<totfact> 0.64781460E+04</totfact>
</mgrwt>
</event>
<event>
 7    0  0.4725730E-002  0.4536300E+03  0.7546771E-02  0.1026645E+00
         21   -1    0    0  502  501  0.00000000000E+00  0.00000000000E+00  0.84800039744E+02  0.84800039744E+02  0.00000000000E+00 0.  1.
         21   -1    0    0  501  502 -0.00000000000E+00 -0.00000000000E+00 -0.60666285796E+03  0.60666285796E+03  0.00000000000E+00 0.  1.
      99926    2    1    2    0    0  0.00000000000E+00  0.71054273576E-14 -0.52186281821E+03  0.69146289770E+03  0.45362995697E+03 0.  0.
      99925    2    3    3    0    0  0.10320142258E+03 -0.37880572299E+02 -0.29668851334E+03  0.41139782123E+03  0.26294224079E+03 0.  0.
         25    1    4    4    0    0  0.42696251982E+02 -0.51604422856E+02 -0.18153101465E+03  0.23040617130E+03  0.12509000000E+03 0.  0.
         25    1    4    4    0    0  0.60505170598E+02  0.13723850557E+02 -0.11515749869E+03  0.18099164994E+03  0.12509000000E+03 0.  0.
         25    1    3    3    0    0 -0.10320142258E+03  0.37880572299E+02 -0.22517430488E+03  0.28006507647E+03  0.12509000000E+03 0.  0.
<mgrwt>
<rscale>  2 0.45362996E+03</rscale>
<asrwt>0</asrwt>
<pdfrwt beam="1">  1       21 0.12470594E-01 0.45362996E+03</pdfrwt>
<pdfrwt beam="2">  1       21 0.89215123E-01 0.45362996E+03</pdfrwt>
<totfact> 0.53948455E+04</totfact>
</mgrwt>
</event>
<event>
 7    0  0.4725730E-002  0.4611318E+03  0.7546771E-02  0.1024453E+00
         21   -1    0    0  502  501  0.00000000000E+00  0.00000000000E+00  0.14570555260E+03  0.14570555260E+03  0.00000000000E+00 0. -1.
         21   -1    0    0  501  502 -0.00000000000E+00 -0.00000000000E+00 -0.36484977609E+03  0.36484977609E+03  0.00000000000E+00 0. -1.
      99926    2    1    2    0    0  0.00000000000E+00  0.00000000000E+00 -0.21914422349E+03  0.51055532869E+03  0.46113181734E+03 0.  0.
      99925    2    3    3    0    0 -0.71489507180E+02 -0.26144649682E+02 -0.23843819779E+03  0.36285949974E+03  0.26271648225E+03 0.  0.
         25    1    3    3    0    0  0.71489507180E+02  0.26144649682E+02  0.19293974306E+02  0.14769582895E+03  0.12509000000E+03 0.  0.
         25    1    4    4    0    0 -0.57919810130E+01 -0.47781715657E+01 -0.76209357669E+02  0.14666885240E+03  0.12509000000E+03 0.  0.
         25    1    4    4    0    0 -0.65697526167E+02 -0.21366478116E+02 -0.16222884012E+03  0.21619064734E+03  0.12509000000E+03 0.  0.
<mgrwt>
<rscale>  2 0.46113182E+03</rscale>
<asrwt>0</asrwt>
<pdfrwt beam="1">  1       21 0.21427288E-01 0.46113182E+03</pdfrwt>
<pdfrwt beam="2">  1       21 0.53654377E-01 0.46113182E+03</pdfrwt>
<totfact> 0.61487897E+04</totfact>
</mgrwt>
</event>
<event>
 7    0  0.4725730E-002  0.4127191E+03  0.7546771E-02  0.1039462E+00
         21   -1    0    0  502  501  0.00000000000E+00  0.00000000000E+00  0.22192681916E+03  0.22192681916E+03  0.00000000000E+00 0.  1.
         21   -1    0    0  501  502 -0.00000000000E+00 -0.00000000000E+00 -0.19188422754E+03  0.19188422754E+03  0.00000000000E+00 0.  1.
      99926    2    1    2    0    0  0.71054273576E-14 -0.35527136788E-14  0.30042591616E+02  0.41381104670E+03  0.41271906312E+03 0.  0.
      99925    2    3    3    0    0 -0.51670965819E+02  0.29414294446E+02  0.48860228269E+02  0.27403729746E+03  0.26300956079E+03 0.  0.
         25    1    4    4    0    0 -0.42683043870E+02  0.43110662920E+02  0.77779274342E+00  0.13902692025E+03  0.12509000000E+03 0.  0.
         25    1    3    3    0    0  0.51670965819E+02 -0.29414294446E+02 -0.18817636653E+02  0.13977374924E+03  0.12509000000E+03 0.  0.
         25    1    4    4    0    0 -0.89879219486E+01 -0.13696368474E+02  0.48082435525E+02  0.13501037722E+03  0.12509000000E+03 0.  0.
<mgrwt>
<rscale>  2 0.41271906E+03</rscale>
<asrwt>0</asrwt>
<pdfrwt beam="1">  1       21 0.32636297E-01 0.41271906E+03</pdfrwt>
<pdfrwt beam="2">  1       21 0.28218269E-01 0.41271906E+03</pdfrwt>
<totfact> 0.10197283E+05</totfact>
</mgrwt>
</event>
<event>
 7    0  0.4725730E-002  0.4456108E+03  0.7546771E-02  0.1029039E+00
         21   -1    0    0  502  501  0.00000000000E+00  0.00000000000E+00  0.21003868338E+03  0.21003868338E+03  0.00000000000E+00 0. -1.
         21   -1    0    0  501  502 -0.00000000000E+00 -0.00000000000E+00 -0.23634811987E+03  0.23634811987E+03  0.00000000000E+00 0. -1.
      99926    2    1    2    0    0  0.00000000000E+00  0.00000000000E+00 -0.26309436495E+02  0.44638680325E+03  0.44561080739E+03 0.  0.
      99925    2    3    3    0    0  0.62759763189E+02 -0.15034727431E+02  0.65190165058E+02  0.27850435602E+03  0.26296404278E+03 0.  0.
         25    1    3    3    0    0 -0.62759763189E+02  0.15034727431E+02 -0.91499601554E+02  0.16788244723E+03  0.12509000000E+03 0.  0.
         25    1    4    4    0    0  0.10012841755E+02  0.24190280750E+02  0.46344058940E+02  0.13594376257E+03  0.12509000000E+03 0.  0.
         25    1    4    4    0    0  0.52746921434E+02 -0.39225008182E+02  0.18846106118E+02  0.14256059345E+03  0.12509000000E+03 0.  0.
<mgrwt>
<rscale>  2 0.44561081E+03</rscale>
<asrwt>0</asrwt>
<pdfrwt beam="1">  1       21 0.30888042E-01 0.44561081E+03</pdfrwt>
<pdfrwt beam="2">  1       21 0.34757076E-01 0.44561081E+03</pdfrwt>
<totfact> 0.74616638E+04</totfact>
</mgrwt>
</event>
<event>
 7    0  0.4725730E-002  0.4526307E+03  0.7546771E-02  0.1026940E+00
         21   -1    0    0  502  501  0.00000000000E+00  0.00000000000E+00  0.13689551406E+03  0.13689551406E+03  0.00000000000E+00 0. -1.
         21   -1    0    0  501  502 -0.00000000000E+00 -0.00000000000E+00 -0.37414403666E+03  0.37414403666E+03  0.00000000000E+00 0. -1.
      99926    2    1    2    0    0 -0.14210854715E-13  0.71054273576E-14 -0.23724852260E+03  0.51103955071E+03  0.45263071142E+03 0.  0.
      99925    2    3    3    0    0 -0.95405261541E+02  0.29712853782E+02 -0.95279823767E+02  0.29705909095E+03  0.26302251062E+03 0.  0.
         25    1    4    4    0    0 -0.27744144846E+02 -0.20562231186E+02 -0.54915288200E+02  0.14091039672E+03  0.12509000000E+03 0.  0.
         25    1    4    4    0    0 -0.67661116696E+02  0.50275084968E+02 -0.40364535567E+02  0.15614869424E+03  0.12509000000E+03 0.  0.
         25    1    3    3    0    0  0.95405261541E+02 -0.29712853782E+02 -0.14196869883E+03  0.21398045976E+03  0.12509000000E+03 0.  0.
<mgrwt>
<rscale>  2 0.45263071E+03</rscale>
<asrwt>0</asrwt>
<pdfrwt beam="1">  1       21 0.20131693E-01 0.45263071E+03</pdfrwt>
<pdfrwt beam="2">  1       21 0.55021182E-01 0.45263071E+03</pdfrwt>
<totfact> 0.65729024E+04</totfact>
</mgrwt>
</event>
<event>
 7    0  0.4725730E-002  0.4533015E+03  0.7546771E-02  0.1026742E+00
         21   -1    0    0  502  501  0.00000000000E+00  0.00000000000E+00  0.23595497966E+03  0.23595497966E+03  0.00000000000E+00 0. -1.
         21   -1    0    0  501  502 -0.00000000000E+00 -0.00000000000E+00 -0.21771340311E+03  0.21771340311E+03  0.00000000000E+00 0. -1.
      99926    2    1    2    0    0  0.00000000000E+00  0.35527136788E-14  0.18241576552E+02  0.45366838276E+03  0.45330149614E+03 0.  0.
      99925    2    3    3    0    0  0.51501234075E+02 -0.26763780752E+02  0.10689601206E+03  0.28972999767E+03  0.26296014353E+03 0.  0.
         25    1    3    3    0    0 -0.51501234075E+02  0.26763780752E+02 -0.88654435510E+02  0.16393838509E+03  0.12509000000E+03 0.  0.
         25    1    4    4    0    0 -0.14881728191E+02 -0.12157305163E+02  0.42760086781E+02  0.13358592375E+03  0.12509000000E+03 0.  0.
         25    1    4    4    0    0  0.66382962266E+02 -0.14606475589E+02  0.64135925281E+02  0.15614407392E+03  0.12509000000E+03 0.  0.
<mgrwt>
<rscale>  2 0.45330150E+03</rscale>
<asrwt>0</asrwt>
<pdfrwt beam="1">  1       21 0.34699262E-01 0.45330150E+03</pdfrwt>
<pdfrwt beam="2">  1       21 0.32016677E-01 0.45330150E+03</pdfrwt>
<totfact> 0.69581688E+04</totfact>
</mgrwt>
</event>
<event>
 7    0  0.4725730E-002  0.4406479E+03  0.7546771E-02  0.1030548E+00
         21   -1    0    0  502  501  0.00000000000E+00  0.00000000000E+00  0.12912237361E+03  0.12912237361E+03  0.00000000000E+00 0. -1.
         21   -1    0    0  501  502 -0.00000000000E+00 -0.00000000000E+00 -0.37594288615E+03  0.37594288615E+03  0.00000000000E+00 0. -1.
      99926    2    1    2    0    0  0.00000000000E+00  0.00000000000E+00 -0.24682051253E+03  0.50506525976E+03  0.44064787666E+03 0.  0.
      99925    2    3    3    0    0 -0.46768746136E+02 -0.18225045247E+02 -0.59472021910E+02  0.27427004116E+03  0.26299746424E+03 0.  0.
         25    1    4    4    0    0 -0.24040867902E+02  0.25788235566E+02 -0.50500971217E+02  0.13943045800E+03  0.12509000000E+03 0.  0.
         25    1    4    4    0    0 -0.22727878234E+02 -0.44013280812E+02 -0.89710506930E+01  0.13483958316E+03  0.12509000000E+03 0.  0.
         25    1    3    3    0    0  0.46768746136E+02  0.18225045247E+02 -0.18734849062E+03  0.23079521860E+03  0.12509000000E+03 0.  0.
<mgrwt>
<rscale>  2 0.44064788E+03</rscale>
<asrwt>0</asrwt>
<pdfrwt beam="1">  1       21 0.18988584E-01 0.44064788E+03</pdfrwt>
<pdfrwt beam="2">  1       21 0.55285718E-01 0.44064788E+03</pdfrwt>
<totfact> 0.72868261E+04</totfact>
</mgrwt>
</event>
<event>
 7    0  0.4725730E-002  0.4764970E+03  0.7546771E-02  0.1020102E+00
         21   -1    0    0  502  501  0.00000000000E+00  0.00000000000E+00  0.10496701309E+03  0.10496701309E+03  0.00000000000E+00 0.  1.
         21   -1    0    0  501  502 -0.00000000000E+00 -0.00000000000E+00 -0.54076373619E+03  0.54076373619E+03  0.00000000000E+00 0.  1.
      99926    2    1    2    0    0  0.00000000000E+00  0.44408920985E-15 -0.43579672310E+03  0.64573074927E+03  0.47649702695E+03 0.  0.
      99925    2    3    3    0    0  0.94528184167E+02  0.15534455075E+01 -0.14416855635E+03  0.31462278118E+03  0.26318231514E+03 0.  0.
         25    1    3    3    0    0 -0.94528184167E+02 -0.15534455075E+01 -0.29162816675E+03  0.33110796810E+03  0.12509000000E+03 0.  0.
         25    1    4    4    0    0  0.17230298934E+02 -0.49824306255E+01 -0.34279901828E+02  0.13093634937E+03  0.12509000000E+03 0.  0.
         25    1    4    4    0    0  0.77297885233E+02  0.65358761330E+01 -0.10988865452E+03  0.18368643181E+03  0.12509000000E+03 0.  0.
<mgrwt>
<rscale>  2 0.47649703E+03</rscale>
<asrwt>0</asrwt>
<pdfrwt beam="1">  1       21 0.15436326E-01 0.47649703E+03</pdfrwt>
<pdfrwt beam="2">  1       21 0.79524078E-01 0.47649703E+03</pdfrwt>
<totfact> 0.47383505E+04</totfact>
</mgrwt>
</event>
<event>
 7    0  0.4725730E-002  0.4585825E+03  0.7546771E-02  0.1025193E+00
         21   -1    0    0  502  501  0.00000000000E+00  0.00000000000E+00  0.14986385932E+03  0.14986385932E+03  0.00000000000E+00 0.  1.
         21   -1    0    0  501  502 -0.00000000000E+00 -0.00000000000E+00 -0.35081485872E+03  0.35081485872E+03  0.00000000000E+00 0.  1.
      99926    2    1    2    0    0  0.00000000000E+00  0.00000000000E+00 -0.20095099940E+03  0.50067871803E+03  0.45858246208E+03 0.  0.
      99925    2    3    3    0    0 -0.35100160321E+02 -0.10013469592E+03 -0.73604483355E+02  0.29301643973E+03  0.26302478097E+03 0.  0.
         25    1    4    4    0    0 -0.17302306123E+02 -0.24801092231E+02 -0.37551226612E+00  0.12869387352E+03  0.12509000000E+03 0.  0.
         25    1    4    4    0    0 -0.17797854198E+02 -0.75333603686E+02 -0.73228971089E+02  0.16432256621E+03  0.12509000000E+03 0.  0.
         25    1    3    3    0    0  0.35100160321E+02  0.10013469592E+03 -0.12734651604E+03  0.20766227830E+03  0.12509000000E+03 0.  0.
<mgrwt>
<rscale>  2 0.45858246E+03</rscale>
<asrwt>0</asrwt>
<pdfrwt beam="1">  1       21 0.22038803E-01 0.45858246E+03</pdfrwt>
<pdfrwt beam="2">  1       21 0.51590420E-01 0.45858246E+03</pdfrwt>
<totfact> 0.63400721E+04</totfact>
</mgrwt>
</event>
<event>
 7    0  0.4725730E-002  0.4478425E+03  0.7546771E-02  0.1028367E+00
         21   -1    0    0  502  501  0.00000000000E+00  0.00000000000E+00  0.80867544083E+02  0.80867544083E+02  0.00000000000E+00 0.  1.
         21   -1    0    0  501  502 -0.00000000000E+00 -0.00000000000E+00 -0.62003515794E+03  0.62003515794E+03  0.00000000000E+00 0.  1.
      99926    2    1    2    0    0  0.00000000000E+00  0.00000000000E+00 -0.53916761385E+03  0.70090270202E+03  0.44784247439E+03 0.  0.
      99925    2    3    3    0    0 -0.46404573143E+02  0.85005327919E+02 -0.27318658579E+03  0.39143104649E+03  0.26307425439E+03 0.  0.
         25    1    4    4    0    0 -0.47236545317E+02  0.50866696958E+02 -0.18817308027E+03  0.23637962753E+03  0.12509000000E+03 0.  0.
         25    1    4    4    0    0  0.83197217426E+00  0.34138630962E+02 -0.85013505514E+02  0.15505141896E+03  0.12509000000E+03 0.  0.
         25    1    3    3    0    0  0.46404573143E+02 -0.85005327919E+02 -0.26598102807E+03  0.30947165553E+03  0.12509000000E+03 0.  0.
<mgrwt>
<rscale>  2 0.44784247E+03</rscale>
<asrwt>0</asrwt>
<pdfrwt beam="1">  1       21 0.11892285E-01 0.44784247E+03</pdfrwt>
<pdfrwt beam="2">  1       21 0.91181645E-01 0.44784247E+03</pdfrwt>
<totfact> 0.55938817E+04</totfact>
</mgrwt>
</event>
<event>
 7    0  0.4725730E-002  0.4537560E+03  0.7546771E-02  0.1026608E+00
         21   -1    0    0  502  501  0.00000000000E+00  0.00000000000E+00  0.62645925788E+03  0.62645925788E+03  0.00000000000E+00 0.  1.
         21   -1    0    0  501  502 -0.00000000000E+00 -0.00000000000E+00 -0.82165972938E+02  0.82165972938E+02  0.00000000000E+00 0.  1.
      99926    2    1    2    0    0 -0.71054273576E-14 -0.35527136788E-14  0.54429328494E+03  0.70862523082E+03  0.45375603326E+03 0.  0.
      99925    2    3    3    0    0 -0.39125644779E+02  0.29172526508E+02  0.50032488067E+03  0.56733623246E+03  0.26298966151E+03 0.  0.
         25    1    4    4    0    0 -0.39264019160E+02 -0.19335265524E+02  0.22687319583E+03  0.26274411655E+03  0.12509000000E+03 0.  0.
         25    1    3    3    0    0  0.39125644779E+02 -0.29172526508E+02  0.43968404269E+02  0.14128899836E+03  0.12509000000E+03 0.  0.
         25    1    4    4    0    0  0.13837438196E+00  0.48507792032E+02  0.27345168484E+03  0.30459211591E+03  0.12509000000E+03 0.  0.
<mgrwt>
<rscale>  2 0.45375603E+03</rscale>
<asrwt>0</asrwt>
<pdfrwt beam="1">  1       21 0.92126359E-01 0.45375603E+03</pdfrwt>
<pdfrwt beam="2">  1       21 0.12083232E-01 0.45375603E+03</pdfrwt>
<totfact> 0.52953551E+04</totfact>
</mgrwt>
</event>
<event>
 7    0  0.4725730E-002  0.4384697E+03  0.7546771E-02  0.1031217E+00
         21   -1    0    0  502  501  0.00000000000E+00  0.00000000000E+00  0.19016848431E+04  0.19016848431E+04  0.00000000000E+00 0.  1.
         21   -1    0    0  501  502 -0.00000000000E+00 -0.00000000000E+00 -0.25274385405E+02  0.25274385405E+02  0.00000000000E+00 0.  1.
      99926    2    1    2    0    0  0.00000000000E+00  0.00000000000E+00  0.18764104577E+04  0.19269592285E+04  0.43846968261E+03 0.  0.
      99925    2    3    3    0    0  0.15243260039E+02  0.83748259248E+02  0.14037958080E+04  0.14307150919E+04  0.26278674956E+03 0.  0.
         25    1    3    3    0    0 -0.15243260039E+02 -0.83748259248E+02  0.47261464972E+03  0.49624413662E+03  0.12509000000E+03 0.  0.
         25    1    4    4    0    0  0.28973416569E+02  0.72213420408E+02  0.65800869866E+03  0.67429755492E+03  0.12509000000E+03 0.  0.
         25    1    4    4    0    0 -0.13730156530E+02  0.11534838840E+02  0.74578710932E+03  0.75641753697E+03  0.12509000000E+03 0.  0.
<mgrwt>
<rscale>  2 0.43846968E+03</rscale>
<asrwt>0</asrwt>
<pdfrwt beam="1">  1       21 0.27965944E+00 0.43846968E+03</pdfrwt>
<pdfrwt beam="2">  1       21 0.37168227E-02 0.43846968E+03</pdfrwt>
<totfact> 0.17020407E+04</totfact>
</mgrwt>
</event>
<event>
 7    0  0.4725730E-002  0.4569010E+03  0.7546771E-02  0.1025684E+00
         21   -1    0    0  502  501  0.00000000000E+00  0.00000000000E+00  0.57501453818E+02  0.57501453818E+02  0.00000000000E+00 0. -1.
         21   -1    0    0  501  502 -0.00000000000E+00 -0.00000000000E+00 -0.90762284511E+03  0.90762284511E+03  0.00000000000E+00 0. -1.
      99926    2    1    2    0    0  0.14210854715E-13 -0.71054273576E-14 -0.85012139129E+03  0.96512429892E+03  0.45690100946E+03 0.  0.
      99925    2    3    3    0    0 -0.86898749964E+02  0.38296537720E+02 -0.39713281740E+03  0.48568277620E+03  0.26297389013E+03 0.  0.
         25    1    4    4    0    0 -0.70114455131E+02 -0.10389179433E+02 -0.18946628119E+03  0.23784228319E+03  0.12509000000E+03 0.  0.
         25    1    3    3    0    0  0.86898749964E+02 -0.38296537720E+02 -0.45298857388E+03  0.47944152273E+03  0.12509000000E+03 0.  0.
         25    1    4    4    0    0 -0.16784294834E+02  0.48685717153E+02 -0.20766653622E+03  0.24784049300E+03  0.12509000000E+03 0.  0.
<mgrwt>
<rscale>  2 0.45690101E+03</rscale>
<asrwt>0</asrwt>
<pdfrwt beam="1">  1       21 0.84560969E-02 0.45690101E+03</pdfrwt>
<pdfrwt beam="2">  1       21 0.13347394E+00 0.45690101E+03</pdfrwt>
<totfact> 0.39937504E+04</totfact>
</mgrwt>
</event>
<event>
 7    0  0.4725730E-002  0.4271597E+03  0.7546771E-02  0.1034761E+00
         21   -1    0    0  502  501  0.00000000000E+00  0.00000000000E+00  0.10019174764E+03  0.10019174764E+03  0.00000000000E+00 0. -1.
         21   -1    0    0  501  502 -0.00000000000E+00 -0.00000000000E+00 -0.45529048407E+03  0.45529048407E+03  0.00000000000E+00 0. -1.
      99926    2    1    2    0    0  0.00000000000E+00  0.00000000000E+00 -0.35509873642E+03  0.55548223171E+03  0.42715968576E+03 0.  0.
      99925    2    3    3    0    0 -0.80023919948E+02 -0.26559435665E+02 -0.22475587341E+03  0.35611823941E+03  0.26305088182E+03 0.  0.
         25    1    4    4    0    0 -0.90280887392E+01  0.16836861828E+01 -0.72963670862E+02  0.14510529470E+03  0.12509000000E+03 0.  0.
         25    1    3    3    0    0  0.80023919948E+02  0.26559435665E+02 -0.13034286302E+03  0.19936399230E+03  0.12509000000E+03 0.  0.
         25    1    4    4    0    0 -0.70995831209E+02 -0.28243121848E+02 -0.15179220255E+03  0.21101294471E+03  0.12509000000E+03 0.  0.
<mgrwt>
<rscale>  2 0.42715969E+03</rscale>
<asrwt>0</asrwt>
<pdfrwt beam="1">  1       21 0.14734081E-01 0.42715969E+03</pdfrwt>
<pdfrwt beam="2">  1       21 0.66954483E-01 0.42715969E+03</pdfrwt>
<totfact> 0.77142227E+04</totfact>
</mgrwt>
</event>
<event>
 7    0  0.4725730E-002  0.4563426E+03  0.7546771E-02  0.1025847E+00
         21   -1    0    0  502  501  0.00000000000E+00  0.00000000000E+00  0.93829435295E+03  0.93829435295E+03  0.00000000000E+00 0. -1.
         21   -1    0    0  501  502 -0.00000000000E+00 -0.00000000000E+00 -0.55485934361E+02  0.55485934361E+02  0.00000000000E+00 0. -1.
      99926    2    1    2    0    0  0.00000000000E+00  0.71054273576E-14  0.88280841859E+03  0.99378028731E+03  0.45634258569E+03 0.  0.
      99925    2    3    3    0    0  0.96493740408E+02  0.33499582089E+02  0.66714759181E+03  0.72435429702E+03  0.26300185249E+03 0.  0.
         25    1    3    3    0    0 -0.96493740408E+02 -0.33499582089E+02  0.21566082678E+03  0.26942599029E+03  0.12509000000E+03 0.  0.
         25    1    4    4    0    0  0.75068941347E+02 -0.48893944624E+01  0.29172900156E+03  0.32620939683E+03  0.12509000000E+03 0.  0.
         25    1    4    4    0    0  0.21424799061E+02  0.38388976551E+02  0.37541859025E+03  0.39814490018E+03  0.12509000000E+03 0.  0.
<mgrwt>
<rscale>  2 0.45634259E+03</rscale>
<asrwt>0</asrwt>
<pdfrwt beam="1">  1       21 0.13798445E+00 0.45634259E+03</pdfrwt>
<pdfrwt beam="2">  1       21 0.81596968E-02 0.45634259E+03</pdfrwt>
<totfact> 0.38999011E+04</totfact>
</mgrwt>
</event>
<event>
 7    0  0.4725730E-002  0.4508344E+03  0.7546771E-02  0.1027474E+00
         21   -1    0    0  502  501  0.00000000000E+00  0.00000000000E+00  0.64860851696E+02  0.64860851696E+02  0.00000000000E+00 0. -1.
         21   -1    0    0  501  502 -0.00000000000E+00 -0.00000000000E+00 -0.78341430948E+03  0.78341430948E+03  0.00000000000E+00 0. -1.
      99926    2    1    2    0    0  0.14210854715E-13 -0.71054273576E-14 -0.71855345778E+03  0.84827516117E+03  0.45083442346E+03 0.  0.
      99925    2    3    3    0    0 -0.89695914192E+02  0.32400747681E+02 -0.35444419095E+03  0.45164153707E+03  0.26316198061E+03 0.  0.
         25    1    4    4    0    0 -0.48231555784E+02  0.30729515745E+02 -0.24219044448E+03  0.27852164298E+03  0.12509000000E+03 0.  0.
         25    1    3    3    0    0  0.89695914192E+02 -0.32400747681E+02 -0.36410926684E+03  0.39663362410E+03  0.12509000000E+03 0.  0.
         25    1    4    4    0    0 -0.41464358408E+02  0.16712319360E+01 -0.11225374647E+03  0.17311989409E+03  0.12509000000E+03 0.  0.
<mgrwt>
<rscale>  2 0.45083442E+03</rscale>
<asrwt>0</asrwt>
<pdfrwt beam="1">  1       21 0.95383613E-02 0.45083442E+03</pdfrwt>
<pdfrwt beam="2">  1       21 0.11520798E+00 0.45083442E+03</pdfrwt>
<totfact> 0.47034877E+04</totfact>
</mgrwt>
</event>
<event>
 7    0  0.4725730E-002  0.4472921E+03  0.7546771E-02  0.1028533E+00
         21   -1    0    0  502  501  0.00000000000E+00  0.00000000000E+00  0.40438094594E+02  0.40438094594E+02  0.00000000000E+00 0. -1.
         21   -1    0    0  501  502 -0.00000000000E+00 -0.00000000000E+00 -0.12368920976E+04  0.12368920976E+04  0.00000000000E+00 0. -1.
      99926    2    1    2    0    0  0.00000000000E+00  0.00000000000E+00 -0.11964540030E+04  0.12773301922E+04  0.44729211772E+03 0.  0.
      99925    2    3    3    0    0  0.97171064109E+02  0.40871440520E+02 -0.73137558736E+03  0.78432093148E+03  0.26293798398E+03 0.  0.
         25    1    4    4    0    0  0.26290004649E+02  0.53880157120E+02 -0.34350811359E+03  0.37045859132E+03  0.12509000000E+03 0.  0.
         25    1    3    3    0    0 -0.97171064109E+02 -0.40871440520E+02 -0.46507841561E+03  0.49300926068E+03  0.12509000000E+03 0.  0.
         25    1    4    4    0    0  0.70881059460E+02 -0.13008716600E+02 -0.38786747377E+03  0.41386234016E+03  0.12509000000E+03 0.  0.
<mgrwt>
<rscale>  2 0.44729212E+03</rscale>
<asrwt>0</asrwt>
<pdfrwt beam="1">  1       21 0.59467777E-02 0.44729212E+03</pdfrwt>
<pdfrwt beam="2">  1       21 0.18189593E+00 0.44729212E+03</pdfrwt>
<totfact> 0.31634979E+04</totfact>
</mgrwt>
</event>
<event>
 7    0  0.4725730E-002  0.4560940E+03  0.7546771E-02  0.1025920E+00
         21   -1    0    0  502  501  0.00000000000E+00  0.00000000000E+00  0.36288780522E+03  0.36288780522E+03  0.00000000000E+00 0.  1.
         21   -1    0    0  501  502 -0.00000000000E+00 -0.00000000000E+00 -0.14330993015E+03  0.14330993015E+03  0.00000000000E+00 0.  1.
      99926    2    1    2    0    0  0.00000000000E+00  0.00000000000E+00  0.21957787507E+03  0.50619773536E+03  0.45609396408E+03 0.  0.
      99925    2    3    3    0    0  0.31272928794E+02  0.96126734297E+02  0.19696321777E+03  0.34378691077E+03  0.26301442116E+03 0.  0.
         25    1    4    4    0    0 -0.25023823712E+01  0.40506476459E+02  0.13895079307E+03  0.19131614555E+03  0.12509000000E+03 0.  0.
         25    1    4    4    0    0  0.33775311165E+02  0.55620257838E+02  0.58012424697E+02  0.15247076522E+03  0.12509000000E+03 0.  0.
         25    1    3    3    0    0 -0.31272928794E+02 -0.96126734297E+02  0.22614657304E+02  0.16241082460E+03  0.12509000000E+03 0.  0.
<mgrwt>
<rscale>  2 0.45609396E+03</rscale>
<asrwt>0</asrwt>
<pdfrwt beam="1">  1       21 0.53365854E-01 0.45609396E+03</pdfrwt>
<pdfrwt beam="2">  1       21 0.21074990E-01 0.45609396E+03</pdfrwt>
<totfact> 0.64277472E+04</totfact>
</mgrwt>
</event>
<event>
 7    0  0.4725730E-002  0.4565086E+03  0.7546771E-02  0.1025799E+00
         21   -1    0    0  502  501  0.00000000000E+00  0.00000000000E+00  0.47043434904E+03  0.47043434904E+03  0.00000000000E+00 0.  1.
         21   -1    0    0  501  502 -0.00000000000E+00 -0.00000000000E+00 -0.11074875815E+03  0.11074875815E+03  0.00000000000E+00 0.  1.
      99926    2    1    2    0    0  0.00000000000E+00  0.00000000000E+00  0.35968559088E+03  0.58118310719E+03  0.45650857582E+03 0.  0.
      99925    2    3    3    0    0  0.92329463715E+02 -0.54554126848E+02  0.17506762289E+03  0.33373172847E+03  0.26311083477E+03 0.  0.
         25    1    4    4    0    0  0.59118836310E+02 -0.62697114708E+02  0.11654716020E+03  0.19145943082E+03  0.12509000000E+03 0.  0.
         25    1    3    3    0    0 -0.92329463715E+02  0.54554126848E+02  0.18461796799E+03  0.24745137872E+03  0.12509000000E+03 0.  0.
         25    1    4    4    0    0  0.33210627405E+02  0.81429878602E+01  0.58520462685E+02  0.14227229764E+03  0.12509000000E+03 0.  0.
<mgrwt>
<rscale>  2 0.45650858E+03</rscale>
<asrwt>0</asrwt>
<pdfrwt beam="1">  1       21 0.69181521E-01 0.45650858E+03</pdfrwt>
<pdfrwt beam="2">  1       21 0.16286582E-01 0.45650858E+03</pdfrwt>
<totfact> 0.59143200E+04</totfact>
</mgrwt>
</event>
<event>
 7    0  0.4725730E-002  0.4535542E+03  0.7546771E-02  0.1026667E+00
         21   -1    0    0  502  501  0.00000000000E+00  0.00000000000E+00  0.31503110102E+03  0.31503110102E+03  0.00000000000E+00 0. -1.
         21   -1    0    0  501  502 -0.00000000000E+00 -0.00000000000E+00 -0.16324692918E+03  0.16324692918E+03  0.00000000000E+00 0. -1.
      99926    2    1    2    0    0  0.00000000000E+00 -0.71054273576E-14  0.15178417184E+03  0.47827803020E+03  0.45355422978E+03 0.  0.
      99925    2    3    3    0    0  0.46384816296E+02  0.47420654823E+02  0.19071768512E+03  0.33143254596E+03  0.26281938174E+03 0.  0.
         25    1    4    4    0    0  0.15351562191E+02 -0.17481626456E+01  0.12886807557E+03  0.18025874607E+03  0.12509000000E+03 0.  0.
         25    1    4    4    0    0  0.31033254106E+02  0.49168817469E+02  0.61849609552E+02  0.15117379989E+03  0.12509000000E+03 0.  0.
         25    1    3    3    0    0 -0.46384816296E+02 -0.47420654823E+02 -0.38933513279E+02  0.14684548424E+03  0.12509000000E+03 0.  0.
<mgrwt>
<rscale>  2 0.45355423E+03</rscale>
<asrwt>0</asrwt>
<pdfrwt beam="1">  1       21 0.46328103E-01 0.45355423E+03</pdfrwt>
<pdfrwt beam="2">  1       21 0.24006901E-01 0.45355423E+03</pdfrwt>
<totfact> 0.67598046E+04</totfact>
</mgrwt>
</event>
<event>
 7    0  0.4725730E-002  0.4505511E+03  0.7546771E-02  0.1027558E+00
         21   -1    0    0  502  501  0.00000000000E+00  0.00000000000E+00  0.61767567087E+02  0.61767567087E+02  0.00000000000E+00 0.  1.
         21   -1    0    0  501  502 -0.00000000000E+00 -0.00000000000E+00 -0.82161369575E+03  0.82161369575E+03  0.00000000000E+00 0.  1.
      99926    2    1    2    0    0  0.00000000000E+00  0.00000000000E+00 -0.75984612866E+03  0.88338126284E+03  0.45055112505E+03 0.  0.
      99925    2    3    3    0    0 -0.90559624369E+02  0.57475280469E+02 -0.44050675166E+03  0.52403519115E+03  0.26279693658E+03 0.  0.
         25    1    4    4    0    0 -0.73292628214E+02  0.18184162660E+02 -0.28197790088E+03  0.31758702399E+03  0.12509000000E+03 0.  0.
         25    1    3    3    0    0  0.90559624369E+02 -0.57475280469E+02 -0.31933937701E+03  0.35934607169E+03  0.12509000000E+03 0.  0.
         25    1    4    4    0    0 -0.17266996156E+02  0.39291117808E+02 -0.15852885078E+03  0.20644816716E+03  0.12509000000E+03 0.  0.
<mgrwt>
<rscale>  2 0.45055113E+03</rscale>
<asrwt>0</asrwt>
<pdfrwt beam="1">  1       21 0.90834667E-02 0.45055113E+03</pdfrwt>
<pdfrwt beam="2">  1       21 0.12082553E+00 0.45055113E+03</pdfrwt>
<totfact> 0.45525604E+04</totfact>
</mgrwt>
</event>
<event>
 7    0  0.4725730E-002  0.4532027E+03  0.7546771E-02  0.1026771E+00
         21   -1    0    0  502  501  0.00000000000E+00  0.00000000000E+00  0.18552335860E+03  0.18552335860E+03  0.00000000000E+00 0. -1.
         21   -1    0    0  501  502 -0.00000000000E+00 -0.00000000000E+00 -0.27677473362E+03  0.27677473362E+03  0.00000000000E+00 0. -1.
      99926    2    1    2    0    0  0.00000000000E+00 -0.17763568394E-14 -0.91251375015E+02  0.46229809222E+03  0.45320272796E+03 0.  0.
      99925    2    3    3    0    0  0.57505490649E+02  0.14563289923E+02  0.38743407408E+02  0.27238989749E+03  0.26301375205E+03 0.  0.
         25    1    3    3    0    0 -0.57505490649E+02 -0.14563289923E+02 -0.12999478242E+03  0.18990819473E+03  0.12509000000E+03 0.  0.
         25    1    4    4    0    0  0.19860338618E+02 -0.11718857583E+02  0.54166573634E+02  0.13825082449E+03  0.12509000000E+03 0.  0.
         25    1    4    4    0    0  0.37645152031E+02  0.26282147506E+02 -0.15423166226E+02  0.13413907300E+03  0.12509000000E+03 0.  0.
<mgrwt>
<rscale>  2 0.45320273E+03</rscale>
<asrwt>0</asrwt>
<pdfrwt beam="1">  1       21 0.27282847E-01 0.45320273E+03</pdfrwt>
<pdfrwt beam="2">  1       21 0.40702166E-01 0.45320273E+03</pdfrwt>
<totfact> 0.68991704E+04</totfact>
</mgrwt>
</event>
<event>
 7    0  0.4725730E-002  0.4476311E+03  0.7546771E-02  0.1028431E+00
         21   -1    0    0  502  501  0.00000000000E+00  0.00000000000E+00  0.14965340613E+03  0.14965340613E+03  0.00000000000E+00 0. -1.
         21   -1    0    0  501  502 -0.00000000000E+00 -0.00000000000E+00 -0.33472950141E+03  0.33472950141E+03  0.00000000000E+00 0. -1.
      99926    2    1    2    0    0  0.00000000000E+00  0.35527136788E-14 -0.18507609527E+03  0.48438290754E+03  0.44763114288E+03 0.  0.
      99925    2    3    3    0    0 -0.46062877312E+02 -0.23588373357E+02 -0.17170700049E+02  0.26870275113E+03  0.26311240089E+03 0.  0.
         25    1    4    4    0    0 -0.37035372550E+02  0.25124650720E+02  0.15452094609E+01  0.13286369958E+03  0.12509000000E+03 0.  0.
         25    1    3    3    0    0  0.46062877312E+02  0.23588373357E+02 -0.16790539522E+03  0.21568015641E+03  0.12509000000E+03 0.  0.
         25    1    4    4    0    0 -0.90275047619E+01 -0.48713024077E+02 -0.18715909510E+02  0.13583905155E+03  0.12509000000E+03 0.  0.
<mgrwt>
<rscale>  2 0.44763114E+03</rscale>
<asrwt>0</asrwt>
<pdfrwt beam="1">  1       21 0.22007854E-01 0.44763114E+03</pdfrwt>
<pdfrwt beam="2">  1       21 0.49224926E-01 0.44763114E+03</pdfrwt>
<totfact> 0.70412152E+04</totfact>
</mgrwt>
</event>
<event>
 7    0  0.4725730E-002  0.4571319E+03  0.7546771E-02  0.1025616E+00
         21   -1    0    0  502  501  0.00000000000E+00  0.00000000000E+00  0.17852516384E+03  0.17852516384E+03  0.00000000000E+00 0.  1.
         21   -1    0    0  501  502 -0.00000000000E+00 -0.00000000000E+00 -0.29263325278E+03  0.29263325278E+03  0.00000000000E+00 0.  1.
      99926    2    1    2    0    0  0.35527136788E-14 -0.71054273576E-14 -0.11410808894E+03  0.47115841662E+03  0.45713192581E+03 0.  0.
      99925    2    3    3    0    0  0.26844463413E+02 -0.63983043221E+02  0.23042148675E+02  0.27298639334E+03  0.26301364089E+03 0.  0.
         25    1    3    3    0    0 -0.26844463413E+02  0.63983043221E+02 -0.13715023761E+03  0.19817202328E+03  0.12509000000E+03 0.  0.
         25    1    4    4    0    0  0.29186056380E+02 -0.18079154965E+02 -0.23496910217E+02  0.13182675988E+03  0.12509000000E+03 0.  0.
         25    1    4    4    0    0 -0.23415929668E+01 -0.45903888256E+02  0.46539058892E+02  0.14115963346E+03  0.12509000000E+03 0.  0.
<mgrwt>
<rscale>  2 0.45713193E+03</rscale>
<asrwt>0</asrwt>
<pdfrwt beam="1">  1       21 0.26253701E-01 0.45713193E+03</pdfrwt>
<pdfrwt beam="2">  1       21 0.43034302E-01 0.45713193E+03</pdfrwt>
<totfact> 0.66222590E+04</totfact>
</mgrwt>
</event>
<event>
 7    0  0.4725730E-002  0.4586040E+03  0.7546771E-02  0.1025187E+00
         21   -1    0    0  502  501  0.00000000000E+00  0.00000000000E+00  0.68778282973E+03  0.68778282973E+03  0.00000000000E+00 0.  1.
         21   -1    0    0  501  502 -0.00000000000E+00 -0.00000000000E+00 -0.76447694859E+02  0.76447694859E+02  0.00000000000E+00 0.  1.
      99926    2    1    2    0    0  0.00000000000E+00  0.00000000000E+00  0.61133513487E+03  0.76423052459E+03  0.45860402046E+03 0.  0.
      99925    2    3    3    0    0 -0.37482473558E+02  0.37416307262E+02  0.55656756065E+03  0.61776581499E+03  0.26279694961E+03 0.  0.
         25    1    3    3    0    0  0.37482473558E+02 -0.37416307262E+02  0.54767574219E+02  0.14646470960E+03  0.12509000000E+03 0.  0.
         25    1    4    4    0    0 -0.25341292430E+02  0.22191346200E+02  0.19006567647E+03  0.23001544822E+03  0.12509000000E+03 0.  0.
         25    1    4    4    0    0 -0.12141181129E+02  0.15224961061E+02  0.36650188418E+03  0.38775036676E+03  0.12509000000E+03 0.  0.
<mgrwt>
<rscale>  2 0.45860402E+03</rscale>
<asrwt>0</asrwt>
<pdfrwt beam="1">  1       21 0.10114453E+00 0.45860402E+03</pdfrwt>
<pdfrwt beam="2">  1       21 0.11242308E-01 0.45860402E+03</pdfrwt>
<totfact> 0.48166017E+04</totfact>
</mgrwt>
</event>
<event>
 7    0  0.4725730E-002  0.4217123E+03  0.7546771E-02  0.1036510E+00
         21   -1    0    0  502  501  0.00000000000E+00  0.00000000000E+00  0.22384186048E+04  0.22384186048E+04  0.00000000000E+00 0. -1.
         21   -1    0    0  501  502 -0.00000000000E+00 -0.00000000000E+00 -0.19862382047E+02  0.19862382047E+02  0.00000000000E+00 0. -1.
      99926    2    1    2    0    0  0.00000000000E+00  0.00000000000E+00  0.22185562227E+04  0.22582809868E+04  0.42171234513E+03 0.  0.
      99925    2    3    3    0    0 -0.50483382157E+02 -0.71273208931E+01  0.11293390934E+04  0.11607196749E+04  0.26318055621E+03 0.  0.
         25    1    4    4    0    0 -0.43040028203E+02  0.11519244809E+02  0.43136202496E+03  0.45133783544E+03  0.12509000000E+03 0.  0.
         25    1    3    3    0    0  0.50483382157E+02  0.71273208931E+01  0.10892171293E+04  0.10975613119E+04  0.12509000000E+03 0.  0.
         25    1    4    4    0    0 -0.74433539536E+01 -0.18646565703E+02  0.69797706848E+03  0.70938183946E+03  0.12509000000E+03 0.  0.
<mgrwt>
<rscale>  2 0.42171235E+03</rscale>
<asrwt>0</asrwt>
<pdfrwt beam="1">  1       21 0.32917903E+00 0.42171235E+03</pdfrwt>
<pdfrwt beam="2">  1       21 0.29209401E-02 0.42171235E+03</pdfrwt>
<totfact> 0.12978438E+04</totfact>
</mgrwt>
</event>
<event>
 7    0  0.4725730E-002  0.4570480E+03  0.7546771E-02  0.1025641E+00
         21   -1    0    0  502  501  0.00000000000E+00  0.00000000000E+00  0.31817639194E+02  0.31817639194E+02  0.00000000000E+00 0. -1.
         21   -1    0    0  501  502 -0.00000000000E+00 -0.00000000000E+00 -0.16413291258E+04  0.16413291258E+04  0.00000000000E+00 0. -1.
      99926    2    1    2    0    0  0.14210854715E-13  0.00000000000E+00 -0.16095114866E+04  0.16731467650E+04  0.45704799714E+03 0.  0.
      99925    2    3    3    0    0 -0.83501412962E+02  0.57214394295E+02 -0.81037231926E+03  0.85796771119E+03  0.26298160531E+03 0.  0.
         25    1    4    4    0    0 -0.49514896989E+02  0.69300568946E+02 -0.41687668483E+03  0.44349517736E+03  0.12509000000E+03 0.  0.
         25    1    3    3    0    0  0.83501412962E+02 -0.57214394295E+02 -0.79913916730E+03  0.81517905376E+03  0.12509000000E+03 0.  0.
         25    1    4    4    0    0 -0.33986515973E+02 -0.12086174651E+02 -0.39349563443E+03  0.41447253383E+03  0.12509000000E+03 0.  0.
<mgrwt>
<rscale>  2 0.45704800E+03</rscale>
<asrwt>0</asrwt>
<pdfrwt beam="1">  1       21 0.46790648E-02 0.45704800E+03</pdfrwt>
<pdfrwt beam="2">  1       21 0.24137192E+00 0.45704800E+03</pdfrwt>
<totfact> 0.19514101E+04</totfact>
</mgrwt>
</event>
<event>
 7    0  0.4725730E-002  0.4500563E+03  0.7546771E-02  0.1027705E+00
         21   -1    0    0  502  501  0.00000000000E+00  0.00000000000E+00  0.29013154897E+03  0.29013154897E+03  0.00000000000E+00 0.  1.
         21   -1    0    0  501  502 -0.00000000000E+00 -0.00000000000E+00 -0.17453346958E+03  0.17453346958E+03  0.00000000000E+00 0.  1.
      99926    2    1    2    0    0  0.00000000000E+00  0.00000000000E+00  0.11559807939E+03  0.46466501855E+03  0.45005628926E+03 0.  0.
      99925    2    3    3    0    0 -0.28569207502E+02 -0.10167542114E+03  0.47614043105E+02  0.28739847300E+03  0.26301462754E+03 0.  0.
         25    1    4    4    0    0 -0.33752907846E+00 -0.81786141485E+02  0.50032012762E+02  0.15760646327E+03  0.12509000000E+03 0.  0.
         25    1    4    4    0    0 -0.28231678424E+02 -0.19889279654E+02 -0.24179696565E+01  0.12979200973E+03  0.12509000000E+03 0.  0.
         25    1    3    3    0    0  0.28569207502E+02  0.10167542114E+03  0.67984036282E+02  0.17726654555E+03  0.12509000000E+03 0.  0.
<mgrwt>
<rscale>  2 0.45005629E+03</rscale>
<asrwt>0</asrwt>
<pdfrwt beam="1">  1       21 0.42666404E-01 0.45005629E+03</pdfrwt>
<pdfrwt beam="2">  1       21 0.25666687E-01 0.45005629E+03</pdfrwt>
<totfact> 0.70561442E+04</totfact>
</mgrwt>
</event>
<event>
 7    0  0.4725730E-002  0.4602203E+03  0.7546771E-02  0.1024717E+00
         21   -1    0    0  502  501  0.00000000000E+00  0.00000000000E+00  0.18908150458E+04  0.18908150458E+04  0.00000000000E+00 0. -1.
         21   -1    0    0  501  502 -0.00000000000E+00 -0.00000000000E+00 -0.28004154934E+02  0.28004154934E+02  0.00000000000E+00 0. -1.
      99926    2    1    2    0    0  0.00000000000E+00  0.00000000000E+00  0.18628108909E+04  0.19188192007E+04  0.46022028418E+03 0.  0.
      99925    2    3    3    0    0 -0.29180612121E+02 -0.39805151899E+02  0.72582946931E+03  0.77391299527E+03  0.26396391323E+03 0.  0.
         25    1    4    4    0    0 -0.21217811791E+02 -0.26097510950E+02  0.24879362825E+03  0.28049430150E+03  0.12509000000E+03 0.  0.
         25    1    3    3    0    0  0.29180612121E+02  0.39805151899E+02  0.11369814216E+04  0.11449062055E+04  0.12509000000E+03 0.  0.
         25    1    4    4    0    0 -0.79628003291E+01 -0.13707640949E+02  0.47703584106E+03  0.49341869377E+03  0.12509000000E+03 0.  0.
<mgrwt>
<rscale>  2 0.46022028E+03</rscale>
<asrwt>0</asrwt>
<pdfrwt beam="1">  1       21 0.27806095E+00 0.46022028E+03</pdfrwt>
<pdfrwt beam="2">  1       21 0.41182594E-02 0.46022028E+03</pdfrwt>
<totfact> 0.14484998E+04</totfact>
</mgrwt>
</event>
<event>
 7    0  0.4725730E-002  0.4570972E+03  0.7546771E-02  0.1025626E+00
         21   -1    0    0  502  501  0.00000000000E+00  0.00000000000E+00  0.63092299441E+02  0.63092299441E+02  0.00000000000E+00 0. -1.
         21   -1    0    0  501  502 -0.00000000000E+00 -0.00000000000E+00 -0.82790557412E+03  0.82790557412E+03  0.00000000000E+00 0. -1.
      99926    2    1    2    0    0  0.14210854715E-13  0.00000000000E+00 -0.76481327468E+03  0.89099787356E+03  0.45709721675E+03 0.  0.
      99925    2    3    3    0    0 -0.10103030982E+03  0.30300140402E+02 -0.57027018018E+03  0.63679373172E+03  0.26300752147E+03 0.  0.
         25    1    4    4    0    0 -0.61106185798E+02 -0.19018115668E+02 -0.24238321734E+03  0.28016564174E+03  0.12509000000E+03 0.  0.
         25    1    3    3    0    0  0.10103030982E+03 -0.30300140402E+02 -0.19454309450E+03  0.25420414184E+03  0.12509000000E+03 0.  0.
         25    1    4    4    0    0 -0.39924124019E+02  0.49318256069E+02 -0.32788696284E+03  0.35662808998E+03  0.12509000000E+03 0.  0.
<mgrwt>
<rscale>  2 0.45709722E+03</rscale>
<asrwt>0</asrwt>
<pdfrwt beam="1">  1       21 0.92782794E-02 0.45709722E+03</pdfrwt>
<pdfrwt beam="2">  1       21 0.12175082E+00 0.45709722E+03</pdfrwt>
<totfact> 0.42916063E+04</totfact>
</mgrwt>
</event>
<event>
 7    0  0.4725730E-002  0.4576931E+03  0.7546771E-02  0.1025452E+00
         21   -1    0    0  502  501  0.00000000000E+00  0.00000000000E+00  0.14789397798E+03  0.14789397798E+03  0.00000000000E+00 0.  1.
         21   -1    0    0  501  502 -0.00000000000E+00 -0.00000000000E+00 -0.35411006291E+03  0.35411006291E+03  0.00000000000E+00 0.  1.
      99926    2    1    2    0    0  0.00000000000E+00  0.00000000000E+00 -0.20621608493E+03  0.50200404089E+03  0.45769311049E+03 0.  0.
      99925    2    3    3    0    0 -0.11247218801E+03 -0.13280657676E+02 -0.10384749904E+03  0.30463837918E+03  0.26304727725E+03 0.  0.
         25    1    3    3    0    0  0.11247218801E+03  0.13280657676E+02 -0.10236858589E+03  0.19736566171E+03  0.12509000000E+03 0.  0.
         25    1    4    4    0    0 -0.29460088916E+02  0.21469161972E+02 -0.65549905059E+02  0.14585307644E+03  0.12509000000E+03 0.  0.
         25    1    4    4    0    0 -0.83012099097E+02 -0.34749819648E+02 -0.38297593979E+02  0.15878530274E+03  0.12509000000E+03 0.  0.
<mgrwt>
<rscale>  2 0.45769311E+03</rscale>
<asrwt>0</asrwt>
<pdfrwt beam="1">  1       21 0.21749114E-01 0.45769311E+03</pdfrwt>
<pdfrwt beam="2">  1       21 0.52075010E-01 0.45769311E+03</pdfrwt>
<totfact> 0.63756188E+04</totfact>
</mgrwt>
</event>
<event>
 7    0  0.4725730E-002  0.4522551E+03  0.7546771E-02  0.1027052E+00
         21   -1    0    0  502  501  0.00000000000E+00  0.00000000000E+00  0.50192634322E+02  0.50192634322E+02  0.00000000000E+00 0. -1.
         21   -1    0    0  501  502 -0.00000000000E+00 -0.00000000000E+00 -0.10187484356E+04  0.10187484356E+04  0.00000000000E+00 0. -1.
      99926    2    1    2    0    0  0.35527136788E-14  0.00000000000E+00 -0.96855580127E+03  0.10689410699E+04  0.45225509480E+03 0.  0.
      99925    2    3    3    0    0 -0.28448426736E+02  0.34488527002E+02 -0.85028828688E+03  0.89108302389E+03  0.26275466345E+03 0.  0.
         25    1    4    4    0    0 -0.23503036372E+02 -0.22026347514E+02 -0.41536011647E+03  0.43498170899E+03  0.12509000000E+03 0.  0.
         25    1    3    3    0    0  0.28448426736E+02 -0.34488527002E+02 -0.11826751439E+03  0.17785804603E+03  0.12509000000E+03 0.  0.
         25    1    4    4    0    0 -0.49453903633E+01  0.56514874516E+02 -0.43492817042E+03  0.45610131490E+03  0.12509000000E+03 0.  0.
<mgrwt>
<rscale>  2 0.45225509E+03</rscale>
<asrwt>0</asrwt>
<pdfrwt beam="1">  1       21 0.73812698E-02 0.45225509E+03</pdfrwt>
<pdfrwt beam="2">  1       21 0.14981595E+00 0.45225509E+03</pdfrwt>
<totfact> 0.37384363E+04</totfact>
</mgrwt>
</event>
<event>
 7    0  0.4725730E-002  0.4522177E+03  0.7546771E-02  0.1027063E+00
         21   -1    0    0  502  501  0.00000000000E+00  0.00000000000E+00  0.17769474310E+04  0.17769474310E+04  0.00000000000E+00 0.  1.
         21   -1    0    0  501  502 -0.00000000000E+00 -0.00000000000E+00 -0.28771375115E+02  0.28771375115E+02  0.00000000000E+00 0.  1.
      99926    2    1    2    0    0 -0.44408920985E-15  0.00000000000E+00  0.17481760558E+04  0.18057188061E+04  0.45221774001E+03 0.  0.
      99925    2    3    3    0    0  0.62077342092E+00  0.29828383804E+02  0.15277305740E+04  0.15505054905E+04  0.26309019700E+03 0.  0.
         25    1    4    4    0    0 -0.61506691305E+01  0.17672644752E+01  0.53268817471E+03  0.54721581988E+03  0.12509000000E+03 0.  0.
         25    1    3    3    0    0 -0.62077342092E+00 -0.29828383804E+02  0.22044548189E+03  0.25521331553E+03  0.12509000000E+03 0.  0.
         25    1    4    4    0    0  0.67714425514E+01  0.28061119329E+02  0.99504239925E+03  0.10032896707E+04  0.12509000000E+03 0.  0.
<mgrwt>
<rscale>  2 0.45221774E+03</rscale>
<asrwt>0</asrwt>
<pdfrwt beam="1">  1       21 0.26131573E+00 0.45221774E+03</pdfrwt>
<pdfrwt beam="2">  1       21 0.42310858E-02 0.45221774E+03</pdfrwt>
<totfact> 0.17525347E+04</totfact>
</mgrwt>
</event>
<event>
 7    0  0.4725730E-002  0.4527982E+03  0.7546771E-02  0.1026891E+00
         21   -1    0    0  502  501  0.00000000000E+00  0.00000000000E+00  0.52864025985E+03  0.52864025985E+03  0.00000000000E+00 0.  1.
         21   -1    0    0  501  502 -0.00000000000E+00 -0.00000000000E+00 -0.96959227632E+02  0.96959227632E+02  0.00000000000E+00 0.  1.
      99926    2    1    2    0    0  0.00000000000E+00  0.35527136788E-14  0.43168103221E+03  0.62559948748E+03  0.45279819474E+03 0.  0.
      99925    2    3    3    0    0  0.12324563057E+02  0.18394786360E+02  0.12189142722E+03  0.29077509995E+03  0.26306344425E+03 0.  0.
         25    1    4    4    0    0 -0.29064185805E+01 -0.15135637297E+02  0.25429716145E+02  0.12857571057E+03  0.12509000000E+03 0.  0.
         25    1    4    4    0    0  0.15230981637E+02  0.33530423657E+02  0.96461711073E+02  0.16219938938E+03  0.12509000000E+03 0.  0.
         25    1    3    3    0    0 -0.12324563057E+02 -0.18394786360E+02  0.30978960500E+03  0.33482438753E+03  0.12509000000E+03 0.  0.
<mgrwt>
<rscale>  2 0.45279819E+03</rscale>
<asrwt>0</asrwt>
<pdfrwt beam="1">  1       21 0.77741213E-01 0.45279819E+03</pdfrwt>
<pdfrwt beam="2">  1       21 0.14258710E-01 0.45279819E+03</pdfrwt>
<totfact> 0.58133567E+04</totfact>
</mgrwt>
</event>
<event>
 7    0  0.4725730E-002  0.4513837E+03  0.7546771E-02  0.1027310E+00
         21   -1    0    0  502  501  0.00000000000E+00  0.00000000000E+00  0.22169159091E+04  0.22169159091E+04  0.00000000000E+00 0.  1.
         21   -1    0    0  501  502 -0.00000000000E+00 -0.00000000000E+00 -0.22976433414E+02  0.22976433414E+02  0.00000000000E+00 0.  1.
      99926    2    1    2    0    0  0.14210854715E-13  0.00000000000E+00  0.21939394757E+04  0.22398923425E+04  0.45138374259E+03 0.  0.
      99925    2    3    3    0    0  0.95040814664E+02  0.50850053707E+02  0.12824699537E+04  0.13135864093E+04  0.26298590832E+03 0.  0.
         25    1    4    4    0    0  0.74808778467E+02  0.10414823710E+02  0.79382294839E+03  0.80715996145E+03  0.12509000000E+03 0.  0.
         25    1    4    4    0    0  0.20232036197E+02  0.40435229997E+02  0.48864700536E+03  0.50642644783E+03  0.12509000000E+03 0.  0.
         25    1    3    3    0    0 -0.95040814664E+02 -0.50850053707E+02  0.91146952194E+03  0.92630593323E+03  0.12509000000E+03 0.  0.
<mgrwt>
<rscale>  2 0.45138374E+03</rscale>
<asrwt>0</asrwt>
<pdfrwt beam="1">  1       21 0.32601690E+00 0.45138374E+03</pdfrwt>
<pdfrwt beam="2">  1       21 0.33788888E-02 0.45138374E+03</pdfrwt>
<totfact> 0.10464517E+04</totfact>
</mgrwt>
</event>
<event>
 7    0  0.4725730E-002  0.4534715E+03  0.7546771E-02  0.1026692E+00
         21   -1    0    0  502  501  0.00000000000E+00  0.00000000000E+00  0.13377423749E+03  0.13377423749E+03  0.00000000000E+00 0. -1.
         21   -1    0    0  501  502 -0.00000000000E+00 -0.00000000000E+00 -0.38429746303E+03  0.38429746303E+03  0.00000000000E+00 0. -1.
      99926    2    1    2    0    0 -0.35527136788E-14  0.00000000000E+00 -0.25052322554E+03  0.51807170052E+03  0.45347149893E+03 0.  0.
      99925    2    3    3    0    0  0.25920610061E+02  0.10437058151E+03 -0.12343832694E+03  0.30983343347E+03  0.26304874003E+03 0.  0.
         25    1    4    4    0    0 -0.35820744577E+01  0.74175525675E+02 -0.97946321864E+02  0.17537340144E+03  0.12509000000E+03 0.  0.
         25    1    3    3    0    0 -0.25920610061E+02 -0.10437058151E+03 -0.12708489860E+03  0.20823826705E+03  0.12509000000E+03 0.  0.
         25    1    4    4    0    0  0.29502684518E+02  0.30195055836E+02 -0.25492005071E+02  0.13446003203E+03  0.12509000000E+03 0.  0.
<mgrwt>
<rscale>  2 0.45347150E+03</rscale>
<asrwt>0</asrwt>
<pdfrwt beam="1">  1       21 0.19672682E-01 0.45347150E+03</pdfrwt>
<pdfrwt beam="2">  1       21 0.56514333E-01 0.45347150E+03</pdfrwt>
<totfact> 0.64801136E+04</totfact>
</mgrwt>
</event>
<event>
 7    0  0.4725730E-002  0.4519964E+03  0.7546771E-02  0.1027128E+00
         21   -1    0    0  502  501  0.00000000000E+00  0.00000000000E+00  0.42580667466E+03  0.42580667466E+03  0.00000000000E+00 0.  1.
         21   -1    0    0  501  502 -0.00000000000E+00 -0.00000000000E+00 -0.11994924405E+03  0.11994924405E+03  0.00000000000E+00 0.  1.
      99926    2    1    2    0    0  0.00000000000E+00  0.14210854715E-13  0.30585743061E+03  0.54575591870E+03  0.45199641032E+03 0.  0.
      99925    2    3    3    0    0  0.75815094634E+02 -0.72049105841E+02  0.15065581219E+03  0.32064693912E+03  0.26301764883E+03 0.  0.
         25    1    4    4    0    0  0.42678512173E+02 -0.72977639499E+02  0.59138407636E+02  0.16214823658E+03  0.12509000000E+03 0.  0.
         25    1    3    3    0    0 -0.75815094634E+02  0.72049105841E+02  0.15520161842E+03  0.22510897958E+03  0.12509000000E+03 0.  0.
         25    1    4    4    0    0  0.33136582461E+02  0.92853365826E+00  0.91517404552E+02  0.15849870254E+03  0.12509000000E+03 0.  0.
<mgrwt>
<rscale>  2 0.45199641E+03</rscale>
<asrwt>0</asrwt>
<pdfrwt beam="1">  1       21 0.62618628E-01 0.45199641E+03</pdfrwt>
<pdfrwt beam="2">  1       21 0.17639595E-01 0.45199641E+03</pdfrwt>
<totfact> 0.63647075E+04</totfact>
</mgrwt>
</event>
<event>
 7    0  0.4725730E-002  0.4614632E+03  0.7546771E-02  0.1024358E+00
         21   -1    0    0  502  501  0.00000000000E+00  0.00000000000E+00  0.10052003334E+04  0.10052003334E+04  0.00000000000E+00 0. -1.
         21   -1    0    0  501  502 -0.00000000000E+00 -0.00000000000E+00 -0.52961644531E+02  0.52961644531E+02  0.00000000000E+00 0. -1.
      99926    2    1    2    0    0  0.71054273576E-14 -0.26645352591E-14  0.95223868889E+03  0.10581619779E+04  0.46146316317E+03 0.  0.
      99925    2    3    3    0    0 -0.34779969516E+02 -0.50059607609E+01  0.33631532340E+03  0.42868298213E+03  0.26348889254E+03 0.  0.
         25    1    4    4    0    0 -0.53609877024E+02  0.16465101043E+02  0.16156645549E+03  0.21188757894E+03  0.12509000000E+03 0.  0.
         25    1    4    4    0    0  0.18829907508E+02 -0.21471061804E+02  0.17474886791E+03  0.21679540319E+03  0.12509000000E+03 0.  0.
         25    1    3    3    0    0  0.34779969516E+02  0.50059607609E+01  0.61592336549E+03  0.62947899582E+03  0.12509000000E+03 0.  0.
<mgrwt>
<rscale>  2 0.46146316E+03</rscale>
<asrwt>0</asrwt>
<pdfrwt beam="1">  1       21 0.14782357E+00 0.46146316E+03</pdfrwt>
<pdfrwt beam="2">  1       21 0.77884778E-02 0.46146316E+03</pdfrwt>
<totfact> 0.35171404E+04</totfact>
</mgrwt>
</event>
<event>
 7    0  0.4725730E-002  0.4632762E+03  0.7546771E-02  0.1023835E+00
         21   -1    0    0  502  501  0.00000000000E+00  0.00000000000E+00  0.16213680405E+03  0.16213680405E+03  0.00000000000E+00 0. -1.
         21   -1    0    0  501  502 -0.00000000000E+00 -0.00000000000E+00 -0.33093175528E+03  0.33093175528E+03  0.00000000000E+00 0. -1.
      99926    2    1    2    0    0  0.14210854715E-13  0.00000000000E+00 -0.16879495123E+03  0.49306855933E+03  0.46327623363E+03 0.  0.
      99925    2    3    3    0    0 -0.11402324404E+03  0.39733294570E+02 -0.10458877015E+03  0.30773109235E+03  0.26302011231E+03 0.  0.
         25    1    4    4    0    0 -0.78499409488E+02  0.30665999099E+02 -0.19550260891E+02  0.15209300310E+03  0.12509000000E+03 0.  0.
         25    1    3    3    0    0  0.11402324404E+03 -0.39733294570E+02 -0.64206181077E+02  0.18533746698E+03  0.12509000000E+03 0.  0.
         25    1    4    4    0    0 -0.35523834553E+02  0.90672954704E+01 -0.85038509264E+02  0.15563808925E+03  0.12509000000E+03 0.  0.
<mgrwt>
<rscale>  2 0.46327623E+03</rscale>
<asrwt>0</asrwt>
<pdfrwt beam="1">  1       21 0.23843648E-01 0.46327623E+03</pdfrwt>
<pdfrwt beam="2">  1       21 0.48666434E-01 0.46327623E+03</pdfrwt>
<totfact> 0.61611827E+04</totfact>
</mgrwt>
</event>
<event>
 7    0  0.4725730E-002  0.4824024E+03  0.7546771E-02  0.1018477E+00
         21   -1    0    0  502  501  0.00000000000E+00  0.00000000000E+00  0.30315443162E+03  0.30315443162E+03  0.00000000000E+00 0.  1.
         21   -1    0    0  501  502 -0.00000000000E+00 -0.00000000000E+00 -0.19190882576E+03  0.19190882576E+03  0.00000000000E+00 0.  1.
      99926    2    1    2    0    0  0.00000000000E+00  0.00000000000E+00  0.11124560586E+03  0.49506325738E+03  0.48240236731E+03 0.  0.
      99925    2    3    3    0    0  0.67096551920E+02  0.86447031617E+02 -0.16530875670E+02  0.28542219775E+03  0.26309223584E+03 0.  0.
         25    1    4    4    0    0  0.29072776838E+02  0.16699130315E+02  0.24192890328E+02  0.13174555533E+03  0.12509000000E+03 0.  0.
         25    1    3    3    0    0 -0.67096551920E+02 -0.86447031617E+02  0.12777648153E+03  0.20964105964E+03  0.12509000000E+03 0.  0.
         25    1    4    4    0    0  0.38023775082E+02  0.69747901302E+02 -0.40723765999E+02  0.15367664242E+03  0.12509000000E+03 0.  0.
<mgrwt>
<rscale>  2 0.48240237E+03</rscale>
<asrwt>0</asrwt>
<pdfrwt beam="1">  1       21 0.44581534E-01 0.48240237E+03</pdfrwt>
<pdfrwt beam="2">  1       21 0.28221886E-01 0.48240237E+03</pdfrwt>
<totfact> 0.53093423E+04</totfact>
</mgrwt>
</event>
<event>
 7    0  0.4725730E-002  0.4385729E+03  0.7546771E-02  0.1031186E+00
         21   -1    0    0  502  501  0.00000000000E+00  0.00000000000E+00  0.36476805885E+03  0.36476805885E+03  0.00000000000E+00 0. -1.
         21   -1    0    0  501  502 -0.00000000000E+00 -0.00000000000E+00 -0.13182773311E+03  0.13182773311E+03  0.00000000000E+00 0. -1.
      99926    2    1    2    0    0 -0.26645352591E-14  0.00000000000E+00  0.23294032574E+03  0.49659579197E+03  0.43857289615E+03 0.  0.
      99925    2    3    3    0    0  0.60767188054E+01  0.77850809745E+02  0.21422981761E+03  0.34795102649E+03  0.26282661013E+03 0.  0.
         25    1    4    4    0    0  0.27049677896E+02  0.54637193069E+01  0.96956849090E+02  0.16065390125E+03  0.12509000000E+03 0.  0.
         25    1    3    3    0    0 -0.60767188054E+01 -0.77850809745E+02  0.18710508133E+02  0.14864476548E+03  0.12509000000E+03 0.  0.
         25    1    4    4    0    0 -0.20972959091E+02  0.72387090438E+02  0.11727296852E+03  0.18729712523E+03  0.12509000000E+03 0.  0.
<mgrwt>
<rscale>  2 0.43857290E+03</rscale>
<asrwt>0</asrwt>
<pdfrwt beam="1">  1       21 0.53642361E-01 0.43857290E+03</pdfrwt>
<pdfrwt beam="2">  1       21 0.19386431E-01 0.43857290E+03</pdfrwt>
<totfact> 0.74797198E+04</totfact>
</mgrwt>
</event>
<event>
 7    0  0.4725730E-002  0.4489897E+03  0.7546771E-02  0.1028024E+00
         21   -1    0    0  502  501  0.00000000000E+00  0.00000000000E+00  0.48786615856E+03  0.48786615856E+03  0.00000000000E+00 0. -1.
         21   -1    0    0  501  502 -0.00000000000E+00 -0.00000000000E+00 -0.10330278536E+03  0.10330278536E+03  0.00000000000E+00 0. -1.
      99926    2    1    2    0    0  0.00000000000E+00 -0.14210854715E-13  0.38456337320E+03  0.59116894392E+03  0.44898967945E+03 0.  0.
      99925    2    3    3    0    0 -0.77273943199E+02  0.73294249566E+02  0.22598908689E+03  0.36283449252E+03  0.26312448053E+03 0.  0.
         25    1    4    4    0    0 -0.77691725562E+02  0.56020613916E+02  0.12827870283E+03  0.20316802678E+03  0.12509000000E+03 0.  0.
         25    1    3    3    0    0  0.77273943199E+02 -0.73294249566E+02  0.15857428630E+03  0.22833445139E+03  0.12509000000E+03 0.  0.
         25    1    4    4    0    0  0.41778236305E+00  0.17273635649E+02  0.97710384061E+02  0.15966646575E+03  0.12509000000E+03 0.  0.
<mgrwt>
<rscale>  2 0.44898968E+03</rscale>
<asrwt>0</asrwt>
<pdfrwt beam="1">  1       21 0.71745023E-01 0.44898968E+03</pdfrwt>
<pdfrwt beam="2">  1       21 0.15191586E-01 0.44898968E+03</pdfrwt>
<totfact> 0.62123870E+04</totfact>
</mgrwt>
</event>
<event>
 7    0  0.4725730E-002  0.4553234E+03  0.7546771E-02  0.1026146E+00
         21   -1    0    0  502  501  0.00000000000E+00  0.00000000000E+00  0.73058620707E+03  0.73058620707E+03  0.00000000000E+00 0.  1.
         21   -1    0    0  501  502 -0.00000000000E+00 -0.00000000000E+00 -0.70942818137E+02  0.70942818137E+02  0.00000000000E+00 0.  1.
      99926    2    1    2    0    0  0.00000000000E+00  0.71054273576E-14  0.65964338893E+03  0.80152902520E+03  0.45532337705E+03 0.  0.
      99925    2    3    3    0    0 -0.98260843234E+02  0.38191001098E+02  0.34180725717E+03  0.44406425683E+03  0.26314847000E+03 0.  0.
         25    1    4    4    0    0 -0.88514313263E+02  0.37022128717E+01  0.17984397362E+03  0.23630457672E+03  0.12509000000E+03 0.  0.
         25    1    3    3    0    0  0.98260843234E+02 -0.38191001098E+02  0.31783613176E+03  0.35746476837E+03  0.12509000000E+03 0.  0.
         25    1    4    4    0    0 -0.97465299704E+01  0.34488788226E+02  0.16196328355E+03  0.20775968011E+03  0.12509000000E+03 0.  0.
<mgrwt>
<rscale>  2 0.45532338E+03</rscale>
<asrwt>0</asrwt>
<pdfrwt beam="1">  1       21 0.10743914E+00 0.45532338E+03</pdfrwt>
<pdfrwt beam="2">  1       21 0.10432768E-01 0.45532338E+03</pdfrwt>
<totfact> 0.47570102E+04</totfact>
</mgrwt>
</event>
<event>
 7    0  0.4725730E-002  0.4544706E+03  0.7546771E-02  0.1026397E+00
         21   -1    0    0  502  501  0.00000000000E+00  0.00000000000E+00  0.32970623764E+02  0.32970623764E+02  0.00000000000E+00 0.  1.
         21   -1    0    0  501  502 -0.00000000000E+00 -0.00000000000E+00 -0.15661175443E+04  0.15661175443E+04  0.00000000000E+00 0.  1.
      99926    2    1    2    0    0  0.00000000000E+00  0.00000000000E+00 -0.15331469205E+04  0.15990881681E+04  0.45447055933E+03 0.  0.
      99925    2    3    3    0    0  0.92325602424E+02  0.34775300870E+02 -0.11575592531E+04  0.11911090725E+04  0.26280041793E+03 0.  0.
         25    1    4    4    0    0  0.32552356710E+02  0.55193642366E+02 -0.58813311232E+03  0.60469336030E+03  0.12509000000E+03 0.  0.
         25    1    3    3    0    0 -0.92325602424E+02 -0.34775300870E+02 -0.37558766744E+03  0.40797909560E+03  0.12509000000E+03 0.  0.
         25    1    4    4    0    0  0.59773245714E+02 -0.20418341495E+02 -0.56942614078E+03  0.58641571217E+03  0.12509000000E+03 0.  0.
<mgrwt>
<rscale>  2 0.45447056E+03</rscale>
<asrwt>0</asrwt>
<pdfrwt beam="1">  1       21 0.48486223E-02 0.45447056E+03</pdfrwt>
<pdfrwt beam="2">  1       21 0.23031135E+00 0.45447056E+03</pdfrwt>
<totfact> 0.21538817E+04</totfact>
</mgrwt>
</event>
<event>
 7    0  0.4725730E-002  0.4572336E+03  0.7546771E-02  0.1025587E+00
         21   -1    0    0  502  501  0.00000000000E+00  0.00000000000E+00  0.10498303577E+03  0.10498303577E+03  0.00000000000E+00 0.  1.
         21   -1    0    0  501  502 -0.00000000000E+00 -0.00000000000E+00 -0.49784852382E+03  0.49784852382E+03  0.00000000000E+00 0.  1.
      99926    2    1    2    0    0  0.00000000000E+00  0.00000000000E+00 -0.39286548805E+03  0.60283155958E+03  0.45723363561E+03 0.  0.
      99925    2    3    3    0    0  0.53611989374E+02  0.60739679237E+02 -0.35475530128E+03  0.44900227604E+03  0.26303643487E+03 0.  0.
         25    1    4    4    0    0 -0.14021387497E+00  0.52340742340E+02 -0.14260798411E+03  0.19678444603E+03  0.12509000000E+03 0.  0.
         25    1    3    3    0    0 -0.53611989374E+02 -0.60739679237E+02 -0.38110186771E+02  0.15382928354E+03  0.12509000000E+03 0.  0.
         25    1    4    4    0    0  0.53752203249E+02  0.83989368965E+01 -0.21214731717E+03  0.25221783001E+03  0.12509000000E+03 0.  0.
<mgrwt>
<rscale>  2 0.45723364E+03</rscale>
<asrwt>0</asrwt>
<pdfrwt beam="1">  1       21 0.15438682E-01 0.45723364E+03</pdfrwt>
<pdfrwt beam="2">  1       21 0.73213016E-01 0.45723364E+03</pdfrwt>
<totfact> 0.57483159E+04</totfact>
</mgrwt>
</event>
<event>
 7    0  0.4725730E-002  0.4215320E+03  0.7546771E-02  0.1036569E+00
         21   -1    0    0  502  501  0.00000000000E+00  0.00000000000E+00  0.11127947476E+03  0.11127947476E+03  0.00000000000E+00 0. -1.
         21   -1    0    0  501  502 -0.00000000000E+00 -0.00000000000E+00 -0.39919579298E+03  0.39919579298E+03  0.00000000000E+00 0. -1.
      99926    2    1    2    0    0  0.00000000000E+00  0.71054273576E-14 -0.28791631822E+03  0.51047526773E+03  0.42153195925E+03 0.  0.
      99925    2    3    3    0    0  0.50545334968E+02 -0.42533659592E+02 -0.23704366088E+03  0.36014403861E+03  0.26296404374E+03 0.  0.
         25    1    4    4    0    0 -0.57490069365E+01 -0.47286549155E+02 -0.11953300780E+03  0.17945672700E+03  0.12509000000E+03 0.  0.
         25    1    3    3    0    0 -0.50545334968E+02  0.42533659592E+02 -0.50872657345E+02  0.15033122913E+03  0.12509000000E+03 0.  0.
         25    1    4    4    0    0  0.56294341904E+02  0.47528895625E+01 -0.11751065308E+03  0.18068731161E+03  0.12509000000E+03 0.  0.
<mgrwt>
<rscale>  2 0.42153196E+03</rscale>
<asrwt>0</asrwt>
<pdfrwt beam="1">  1       21 0.16364629E-01 0.42153196E+03</pdfrwt>
<pdfrwt beam="2">  1       21 0.58705263E-01 0.42153196E+03</pdfrwt>
<totfact> 0.84926495E+04</totfact>
</mgrwt>
</event>
<event>
 7    0  0.4725730E-002  0.4563454E+03  0.7546771E-02  0.1025846E+00
         21   -1    0    0  502  501  0.00000000000E+00  0.00000000000E+00  0.87699882636E+03  0.87699882636E+03  0.00000000000E+00 0.  1.
         21   -1    0    0  501  502 -0.00000000000E+00 -0.00000000000E+00 -0.59364718321E+02  0.59364718321E+02  0.00000000000E+00 0.  1.
      99926    2    1    2    0    0  0.00000000000E+00  0.00000000000E+00  0.81763410804E+03  0.93636354468E+03  0.45634543186E+03 0.  0.
      99925    2    3    3    0    0 -0.27146298277E+02 -0.68981387096E+02  0.33547872589E+03  0.43275985734E+03  0.26313450043E+03 0.  0.
         25    1    4    4    0    0 -0.28894723742E+02 -0.22058493802E+02  0.10921563039E+03  0.16999130634E+03  0.12509000000E+03 0.  0.
         25    1    3    3    0    0  0.27146298277E+02  0.68981387096E+02  0.48215538214E+03  0.50360368734E+03  0.12509000000E+03 0.  0.
         25    1    4    4    0    0  0.17484254659E+01 -0.46922893294E+02  0.22626309550E+03  0.26276855100E+03  0.12509000000E+03 0.  0.
<mgrwt>
<rscale>  2 0.45634543E+03</rscale>
<asrwt>0</asrwt>
<pdfrwt beam="1">  1       21 0.12897041E+00 0.45634543E+03</pdfrwt>
<pdfrwt beam="2">  1       21 0.87301061E-02 0.45634543E+03</pdfrwt>
<totfact> 0.41262080E+04</totfact>
</mgrwt>
</event>
<event>
 7    0  0.4725730E-002  0.4574560E+03  0.7546771E-02  0.1025522E+00
         21   -1    0    0  502  501  0.00000000000E+00  0.00000000000E+00  0.28882574537E+03  0.28882574537E+03  0.00000000000E+00 0. -1.
         21   -1    0    0  501  502 -0.00000000000E+00 -0.00000000000E+00 -0.18113513709E+03  0.18113513709E+03  0.00000000000E+00 0. -1.
      99926    2    1    2    0    0 -0.71054273576E-14 -0.35527136788E-14  0.10769060829E+03  0.46996088246E+03  0.45745596939E+03 0.  0.
      99925    2    3    3    0    0  0.45744473068E+02 -0.27529015917E+02 -0.37500041696E+02  0.27101808547E+03  0.26304780172E+03 0.  0.
         25    1    3    3    0    0 -0.45744473068E+02  0.27529015917E+02  0.14519064998E+03  0.19894279700E+03  0.12509000000E+03 0.  0.
         25    1    4    4    0    0 -0.20684116846E+01 -0.56137788398E+00 -0.48023231145E+02  0.13400870234E+03  0.12509000000E+03 0.  0.
         25    1    4    4    0    0  0.47812884752E+02 -0.26967638033E+02  0.10523189449E+02  0.13700938313E+03  0.12509000000E+03 0.  0.
<mgrwt>
<rscale>  2 0.45745597E+03</rscale>
<asrwt>0</asrwt>
<pdfrwt beam="1">  1       21 0.42474374E-01 0.45745597E+03</pdfrwt>
<pdfrwt beam="2">  1       21 0.26637520E-01 0.45745597E+03</pdfrwt>
<totfact> 0.66140793E+04</totfact>
</mgrwt>
</event>
<event>
 7    0  0.4725730E-002  0.4511185E+03  0.7546771E-02  0.1027389E+00
         21   -1    0    0  502  501  0.00000000000E+00  0.00000000000E+00  0.33461257094E+03  0.33461257094E+03  0.00000000000E+00 0.  1.
         21   -1    0    0  501  502 -0.00000000000E+00 -0.00000000000E+00 -0.15204741345E+03  0.15204741345E+03  0.00000000000E+00 0.  1.
      99926    2    1    2    0    0  0.17763568394E-14 -0.88817841970E-15  0.18256515748E+03  0.48665998439E+03  0.45111850292E+03 0.  0.
      99925    2    3    3    0    0 -0.98082325241E+01  0.60458430342E+01 -0.21418469172E+01  0.26328375643E+03  0.26302280367E+03 0.  0.
         25    1    4    4    0    0 -0.33870427347E+02  0.28398365767E+02 -0.14028677741E+02  0.13340908862E+03  0.12509000000E+03 0.  0.
         25    1    3    3    0    0  0.98082325241E+01 -0.60458430342E+01  0.18470700440E+03  0.22337622796E+03  0.12509000000E+03 0.  0.
         25    1    4    4    0    0  0.24062194823E+02 -0.22352522733E+02  0.11886830824E+02  0.12987466781E+03  0.12509000000E+03 0.  0.
<mgrwt>
<rscale>  2 0.45111850E+03</rscale>
<asrwt>0</asrwt>
<pdfrwt beam="1">  1       21 0.49207731E-01 0.45111850E+03</pdfrwt>
<pdfrwt beam="2">  1       21 0.22359914E-01 0.45111850E+03</pdfrwt>
<totfact> 0.68298818E+04</totfact>
</mgrwt>
</event>
<event>
 7    0  0.4725730E-002  0.4643484E+03  0.7546771E-02  0.1023528E+00
         21   -1    0    0  502  501  0.00000000000E+00  0.00000000000E+00  0.87084971978E+02  0.87084971978E+02  0.00000000000E+00 0.  1.
         21   -1    0    0  501  502 -0.00000000000E+00 -0.00000000000E+00 -0.61899153629E+03  0.61899153629E+03  0.00000000000E+00 0.  1.
      99926    2    1    2    0    0  0.00000000000E+00  0.00000000000E+00 -0.53190656432E+03  0.70607650827E+03  0.46434840623E+03 0.  0.
      99925    2    3    3    0    0  0.81814470093E+02  0.17087363890E+02 -0.19720366496E+03  0.33911721290E+03  0.26291750245E+03 0.  0.
         25    1    3    3    0    0 -0.81814470093E+02 -0.17087363890E+02 -0.33470289935E+03  0.36695929537E+03  0.12509000000E+03 0.  0.
         25    1    4    4    0    0  0.64149054414E+02  0.42461149656E+02 -0.11107678154E+03  0.18412932930E+03  0.12509000000E+03 0.  0.
         25    1    4    4    0    0  0.17665415679E+02 -0.25373785765E+02 -0.86126883424E+02  0.15498788360E+03  0.12509000000E+03 0.  0.
<mgrwt>
<rscale>  2 0.46434841E+03</rscale>
<asrwt>0</asrwt>
<pdfrwt beam="1">  1       21 0.12806613E-01 0.46434841E+03</pdfrwt>
<pdfrwt beam="2">  1       21 0.91028168E-01 0.46434841E+03</pdfrwt>
<totfact> 0.48878314E+04</totfact>
</mgrwt>
</event>
<event>
 7    0  0.4725730E-002  0.4517282E+03  0.7546771E-02  0.1027208E+00
         21   -1    0    0  502  501  0.00000000000E+00  0.00000000000E+00  0.34709551309E+03  0.34709551309E+03  0.00000000000E+00 0. -1.
         21   -1    0    0  501  502 -0.00000000000E+00 -0.00000000000E+00 -0.14697566729E+03  0.14697566729E+03  0.00000000000E+00 0. -1.
      99926    2    1    2    0    0  0.00000000000E+00  0.00000000000E+00  0.20011984580E+03  0.49407118038E+03  0.45172821320E+03 0.  0.
      99925    2    3    3    0    0 -0.44537626823E+02  0.50731713870E+02  0.22136478539E+03  0.35034866108E+03  0.26302948336E+03 0.  0.
         25    1    4    4    0    0 -0.63297737162E+02  0.26733581769E+02  0.11187690689E+03  0.18134287501E+03  0.12509000000E+03 0.  0.
         25    1    4    4    0    0  0.18760110339E+02  0.23998132102E+02  0.10948787850E+03  0.16900578607E+03  0.12509000000E+03 0.  0.
         25    1    3    3    0    0  0.44537626823E+02 -0.50731713870E+02 -0.21244939594E+02  0.14372251930E+03  0.12509000000E+03 0.  0.
<mgrwt>
<rscale>  2 0.45172821E+03</rscale>
<asrwt>0</asrwt>
<pdfrwt beam="1">  1       21 0.51043458E-01 0.45172821E+03</pdfrwt>
<pdfrwt beam="2">  1       21 0.21614069E-01 0.45172821E+03</pdfrwt>
<totfact> 0.67423458E+04</totfact>
</mgrwt>
</event>
<event>
 7    0  0.4725730E-002  0.4631497E+03  0.7546771E-02  0.1023872E+00
         21   -1    0    0  502  501  0.00000000000E+00  0.00000000000E+00  0.13381649249E+04  0.13381649249E+04  0.00000000000E+00 0.  1.
         21   -1    0    0  501  502 -0.00000000000E+00 -0.00000000000E+00 -0.40074960938E+02  0.40074960938E+02  0.00000000000E+00 0.  1.
      99926    2    1    2    0    0  0.10477729795E-14  0.00000000000E+00  0.12980899640E+04  0.13782398859E+04  0.46314968248E+03 0.  0.
      99925    2    3    3    0    0 -0.30242643501E-01 -0.96773955844E+02  0.10254944704E+04  0.10630875248E+04  0.26296573384E+03 0.  0.
         25    1    3    3    0    0  0.30242643501E-01  0.96773955844E+02  0.27259549360E+03  0.31515236105E+03  0.12509000000E+03 0.  0.
         25    1    4    4    0    0  0.93314799195E+01 -0.68140417267E+02  0.66963990844E+03  0.68468628441E+03  0.12509000000E+03 0.  0.
         25    1    4    4    0    0 -0.93617225630E+01 -0.28633538576E+02  0.35585456196E+03  0.37840124042E+03  0.12509000000E+03 0.  0.
<mgrwt>
<rscale>  2 0.46314968E+03</rscale>
<asrwt>0</asrwt>
<pdfrwt beam="1">  1       21 0.19678893E+00 0.46314968E+03</pdfrwt>
<pdfrwt beam="2">  1       21 0.58933775E-02 0.46314968E+03</pdfrwt>
<totfact> 0.25278274E+04</totfact>
</mgrwt>
</event>
<event>
 7    0  0.4725730E-002  0.4550266E+03  0.7546771E-02  0.1026234E+00
         21   -1    0    0  502  501  0.00000000000E+00  0.00000000000E+00  0.92050850262E+03  0.92050850262E+03  0.00000000000E+00 0. -1.
         21   -1    0    0  501  502 -0.00000000000E+00 -0.00000000000E+00 -0.56232290576E+02  0.56232290576E+02  0.00000000000E+00 0. -1.
      99926    2    1    2    0    0  0.00000000000E+00  0.00000000000E+00  0.86427621205E+03  0.97674079320E+03  0.45502659965E+03 0.  0.
      99925    2    3    3    0    0 -0.10795160159E+03  0.33335765369E+02  0.53336470731E+03  0.60537203629E+03  0.26312082734E+03 0.  0.
         25    1    4    4    0    0 -0.17802464645E+02  0.28385897336E+02  0.28423631290E+03  0.31234672495E+03  0.12509000000E+03 0.  0.
         25    1    3    3    0    0  0.10795160159E+03 -0.33335765369E+02  0.33091150473E+03  0.37136875690E+03  0.12509000000E+03 0.  0.
         25    1    4    4    0    0 -0.90149136950E+02  0.49498680331E+01  0.24912839441E+03  0.29302531134E+03  0.12509000000E+03 0.  0.
<mgrwt>
<rscale>  2 0.45502660E+03</rscale>
<asrwt>0</asrwt>
<pdfrwt beam="1">  1       21 0.13536889E+00 0.45502660E+03</pdfrwt>
<pdfrwt beam="2">  1       21 0.82694551E-02 0.45502660E+03</pdfrwt>
<totfact> 0.40068151E+04</totfact>
</mgrwt>
</event>
<event>
 7    0  0.4725730E-002  0.4562134E+03  0.7546771E-02  0.1025885E+00
         21   -1    0    0  502  501  0.00000000000E+00  0.00000000000E+00  0.76308654867E+03  0.76308654867E+03  0.00000000000E+00 0.  1.
         21   -1    0    0  501  502 -0.00000000000E+00 -0.00000000000E+00 -0.68187114430E+02  0.68187114430E+02  0.00000000000E+00 0.  1.
      99926    2    1    2    0    0  0.00000000000E+00  0.00000000000E+00  0.69489943424E+03  0.83127366310E+03  0.45621341416E+03 0.  0.
      99925    2    3    3    0    0  0.61639400010E+02  0.78427244732E+02  0.53862928675E+03  0.60762636165E+03  0.26294113120E+03 0.  0.
         25    1    4    4    0    0  0.31079960417E+02  0.67663042495E+02  0.34912867329E+03  0.37826259380E+03  0.12509000000E+03 0.  0.
         25    1    3    3    0    0 -0.61639400010E+02 -0.78427244732E+02  0.15627014749E+03  0.22364730145E+03  0.12509000000E+03 0.  0.
         25    1    4    4    0    0  0.30559439593E+02  0.10764202237E+02  0.18950061346E+03  0.22936376784E+03  0.12509000000E+03 0.  0.
<mgrwt>
<rscale>  2 0.45621341E+03</rscale>
<asrwt>0</asrwt>
<pdfrwt beam="1">  1       21 0.11221861E+00 0.45621341E+03</pdfrwt>
<pdfrwt beam="2">  1       21 0.10027517E-01 0.45621341E+03</pdfrwt>
<totfact> 0.45850962E+04</totfact>
</mgrwt>
</event>
<event>
 7    0  0.4725730E-002  0.4581983E+03  0.7546771E-02  0.1025305E+00
         21   -1    0    0  502  501  0.00000000000E+00  0.00000000000E+00  0.78851404262E+03  0.78851404262E+03  0.00000000000E+00 0. -1.
         21   -1    0    0  501  502 -0.00000000000E+00 -0.00000000000E+00 -0.66563719605E+02  0.66563719605E+02  0.00000000000E+00 0. -1.
      99926    2    1    2    0    0  0.17763568394E-14  0.71054273576E-14  0.72195032302E+03  0.85507776223E+03  0.45819833102E+03 0.  0.
      99925    2    3    3    0    0 -0.12494604860E+02  0.48642156418E+02  0.25751523918E+03  0.37147706978E+03  0.26298087465E+03 0.  0.
         25    1    4    4    0    0  0.93843385132E+01  0.46155539251E+02  0.17422096151E+03  0.21958791210E+03  0.12509000000E+03 0.  0.
         25    1    4    4    0    0 -0.21878943374E+02  0.24866171665E+01  0.83294277667E+02  0.15188915768E+03  0.12509000000E+03 0.  0.
         25    1    3    3    0    0  0.12494604860E+02 -0.48642156418E+02  0.46443508384E+03  0.48360069245E+03  0.12509000000E+03 0.  0.
<mgrwt>
<rscale>  2 0.45819833E+03</rscale>
<asrwt>0</asrwt>
<pdfrwt beam="1">  1       21 0.11595794E+00 0.45819833E+03</pdfrwt>
<pdfrwt beam="2">  1       21 0.97887828E-02 0.45819833E+03</pdfrwt>
<totfact> 0.44096324E+04</totfact>
</mgrwt>
</event>
<event>
 7    0  0.4725730E-002  0.4494515E+03  0.7546771E-02  0.1027886E+00
         21   -1    0    0  502  501  0.00000000000E+00  0.00000000000E+00  0.58517105523E+02  0.58517105523E+02  0.00000000000E+00 0. -1.
         21   -1    0    0  501  502 -0.00000000000E+00 -0.00000000000E+00 -0.86302388258E+03  0.86302388258E+03  0.00000000000E+00 0. -1.
      99926    2    1    2    0    0 -0.35527136788E-14  0.14210854715E-13 -0.80450677706E+03  0.92154098810E+03  0.44945148617E+03 0.  0.
      99925    2    3    3    0    0 -0.20242954129E+02  0.90797147548E+02 -0.39510970503E+03  0.48346865403E+03  0.26263351124E+03 0.  0.
         25    1    4    4    0    0 -0.20015003610E+02  0.36879847407E+02 -0.12901144098E+03  0.18453233732E+03  0.12509000000E+03 0.  0.
         25    1    4    4    0    0 -0.22795051894E+00  0.53917300142E+02 -0.26609826405E+03  0.29893631671E+03  0.12509000000E+03 0.  0.
         25    1    3    3    0    0  0.20242954129E+02 -0.90797147548E+02 -0.40939707203E+03  0.43807233408E+03  0.12509000000E+03 0.  0.
<mgrwt>
<rscale>  2 0.44945149E+03</rscale>
<asrwt>0</asrwt>
<pdfrwt beam="1">  1       21 0.86054568E-02 0.44945149E+03</pdfrwt>
<pdfrwt beam="2">  1       21 0.12691528E+00 0.44945149E+03</pdfrwt>
<totfact> 0.44202775E+04</totfact>
</mgrwt>
</event>
<event>
 7    0  0.4725730E-002  0.4487095E+03  0.7546771E-02  0.1028108E+00
         21   -1    0    0  502  501  0.00000000000E+00  0.00000000000E+00  0.76400372201E+03  0.76400372201E+03  0.00000000000E+00 0. -1.
         21   -1    0    0  501  502 -0.00000000000E+00 -0.00000000000E+00 -0.65883248315E+02  0.65883248315E+02  0.00000000000E+00 0. -1.
      99926    2    1    2    0    0 -0.17763568394E-14  0.00000000000E+00  0.69812047369E+03  0.82988697032E+03  0.44870946917E+03 0.  0.
      99925    2    3    3    0    0 -0.54330107953E+01 -0.35321777066E+02  0.62802953291E+03  0.68211216320E+03  0.26377786759E+03 0.  0.
         25    1    4    4    0    0  0.17144824937E+02 -0.42080136357E+02  0.24985307771E+03  0.28308788642E+03  0.12509000000E+03 0.  0.
         25    1    3    3    0    0  0.54330107953E+01  0.35321777066E+02  0.70090940781E+02  0.14777480713E+03  0.12509000000E+03 0.  0.
         25    1    4    4    0    0 -0.22577835733E+02  0.67583592911E+01  0.37817645520E+03  0.39902427678E+03  0.12509000000E+03 0.  0.
<mgrwt>
<rscale>  2 0.44870947E+03</rscale>
<asrwt>0</asrwt>
<pdfrwt beam="1">  1       21 0.11235348E+00 0.44870947E+03</pdfrwt>
<pdfrwt beam="2">  1       21 0.96887134E-02 0.44870947E+03</pdfrwt>
<totfact> 0.48713073E+04</totfact>
</mgrwt>
</event>
<event>
 7    0  0.4725730E-002  0.4537901E+03  0.7546771E-02  0.1026598E+00
         21   -1    0    0  502  501  0.00000000000E+00  0.00000000000E+00  0.37651017819E+03  0.37651017819E+03  0.00000000000E+00 0. -1.
         21   -1    0    0  501  502 -0.00000000000E+00 -0.00000000000E+00 -0.13673299780E+03  0.13673299780E+03  0.00000000000E+00 0. -1.
      99926    2    1    2    0    0  0.00000000000E+00  0.00000000000E+00  0.23977718039E+03  0.51324317600E+03  0.45379010728E+03 0.  0.
      99925    2    3    3    0    0 -0.54621414022E+02  0.82072995379E+02  0.21053514772E+03  0.35131084440E+03  0.26339093669E+03 0.  0.
         25    1    3    3    0    0  0.54621414022E+02 -0.82072995379E+02  0.29242032670E+02  0.16193233159E+03  0.12509000000E+03 0.  0.
         25    1    4    4    0    0 -0.54119337712E+02  0.38196297407E+02  0.14782075893E+03  0.20466153698E+03  0.12509000000E+03 0.  0.
         25    1    4    4    0    0 -0.50207630965E+00  0.43876697972E+02  0.62714388795E+02  0.14664930742E+03  0.12509000000E+03 0.  0.
<mgrwt>
<rscale>  2 0.45379011E+03</rscale>
<asrwt>0</asrwt>
<pdfrwt beam="1">  1       21 0.55369144E-01 0.45379011E+03</pdfrwt>
<pdfrwt beam="2">  1       21 0.20107794E-01 0.45379011E+03</pdfrwt>
<totfact> 0.64971497E+04</totfact>
</mgrwt>
</event>
<event>
 7    0  0.4725730E-002  0.4526571E+03  0.7546771E-02  0.1026933E+00
         21   -1    0    0  502  501  0.00000000000E+00  0.00000000000E+00  0.68130633920E+03  0.68130633920E+03  0.00000000000E+00 0.  1.
         21   -1    0    0  501  502 -0.00000000000E+00 -0.00000000000E+00 -0.75185862380E+02  0.75185862380E+02  0.00000000000E+00 0.  1.
      99926    2    1    2    0    0 -0.14210854715E-13  0.71054273576E-14  0.60612047682E+03  0.75649220158E+03  0.45265706515E+03 0.  0.
      99925    2    3    3    0    0  0.93298549072E+02  0.48630920073E+02  0.44037351804E+03  0.52370657468E+03  0.26319224025E+03 0.  0.
         25    1    3    3    0    0 -0.93298549072E+02 -0.48630920073E+02  0.16574695878E+03  0.23278562690E+03  0.12509000000E+03 0.  0.
         25    1    4    4    0    0  0.25554032953E+02 -0.13093085661E+02  0.19565554228E+03  0.23399366833E+03  0.12509000000E+03 0.  0.
         25    1    4    4    0    0  0.67744516119E+02  0.61724005733E+02  0.24471797575E+03  0.28971290635E+03  0.12509000000E+03 0.  0.
<mgrwt>
<rscale>  2 0.45265707E+03</rscale>
<asrwt>0</asrwt>
<pdfrwt beam="1">  1       21 0.10019210E+00 0.45265707E+03</pdfrwt>
<pdfrwt beam="2">  1       21 0.11056745E-01 0.45265707E+03</pdfrwt>
<totfact> 0.50869887E+04</totfact>
</mgrwt>
</event>
<event>
 7    0  0.4725730E-002  0.4481376E+03  0.7546771E-02  0.1028279E+00
         21   -1    0    0  502  501  0.00000000000E+00  0.00000000000E+00  0.13412060026E+03  0.13412060026E+03  0.00000000000E+00 0.  1.
         21   -1    0    0  501  502 -0.00000000000E+00 -0.00000000000E+00 -0.37434094408E+03  0.37434094408E+03  0.00000000000E+00 0.  1.
      99926    2    1    2    0    0  0.00000000000E+00  0.00000000000E+00 -0.24022034382E+03  0.50846154433E+03  0.44813762226E+03 0.  0.
      99925    2    3    3    0    0  0.94829353543E+02 -0.36689723364E+02 -0.11587302130E+03  0.30487248075E+03  0.26302458128E+03 0.  0.
         25    1    4    4    0    0  0.35358520564E+02 -0.22495740910E+02 -0.14652002650E+02  0.13273459465E+03  0.12509000000E+03 0.  0.
         25    1    3    3    0    0 -0.94829353543E+02  0.36689723364E+02 -0.12434732252E+03  0.20358906358E+03  0.12509000000E+03 0.  0.
         25    1    4    4    0    0  0.59470832979E+02 -0.14193982455E+02 -0.10122101865E+03  0.17213788610E+03  0.12509000000E+03 0.  0.
<mgrwt>
<rscale>  2 0.44813762E+03</rscale>
<asrwt>0</asrwt>
<pdfrwt beam="1">  1       21 0.19723618E-01 0.44813762E+03</pdfrwt>
<pdfrwt beam="2">  1       21 0.55050139E-01 0.44813762E+03</pdfrwt>
<totfact> 0.68325962E+04</totfact>
</mgrwt>
</event>
<event>
 7    0  0.4725730E-002  0.4583103E+03  0.7546771E-02  0.1025272E+00
         21   -1    0    0  502  501  0.00000000000E+00  0.00000000000E+00  0.47109219575E+02  0.47109219575E+02  0.00000000000E+00 0. -1.
         21   -1    0    0  501  502 -0.00000000000E+00 -0.00000000000E+00 -0.11146881669E+04  0.11146881669E+04  0.00000000000E+00 0. -1.
      99926    2    1    2    0    0  0.00000000000E+00  0.35527136788E-14 -0.10675789474E+04  0.11617973865E+04  0.45831032986E+03 0.  0.
      99925    2    3    3    0    0 -0.91642344482E+02 -0.21113837465E+02 -0.84270861469E+03  0.88782970949E+03  0.26313431998E+03 0.  0.
         25    1    4    4    0    0 -0.41739007605E+02  0.15310151446E+02 -0.51126492750E+03  0.52821953739E+03  0.12509000000E+03 0.  0.
         25    1    3    3    0    0  0.91642344482E+02  0.21113837465E+02 -0.22487033267E+03  0.27396767702E+03  0.12509000000E+03 0.  0.
         25    1    4    4    0    0 -0.49903336877E+02 -0.36423988910E+02 -0.33144368719E+03  0.35961017210E+03  0.12509000000E+03 0.  0.
<mgrwt>
<rscale>  2 0.45831033E+03</rscale>
<asrwt>0</asrwt>
<pdfrwt beam="1">  1       21 0.69278257E-02 0.45831033E+03</pdfrwt>
<pdfrwt beam="2">  1       21 0.16392475E+00 0.45831033E+03</pdfrwt>
<totfact> 0.32543258E+04</totfact>
</mgrwt>
</event>
<event>
 7    0  0.4725730E-002  0.4518523E+03  0.7546771E-02  0.1027171E+00
         21   -1    0    0  502  501  0.00000000000E+00  0.00000000000E+00  0.97806540814E+03  0.97806540814E+03  0.00000000000E+00 0. -1.
         21   -1    0    0  501  502 -0.00000000000E+00 -0.00000000000E+00 -0.52187322656E+02  0.52187322656E+02  0.00000000000E+00 0. -1.
      99926    2    1    2    0    0  0.00000000000E+00  0.00000000000E+00  0.92587808549E+03  0.10302527308E+04  0.45185225476E+03 0.  0.
      99925    2    3    3    0    0  0.82037018766E+02 -0.24541511917E+02  0.42628245691E+03  0.50816494273E+03  0.26302569779E+03 0.  0.
         25    1    3    3    0    0 -0.82037018766E+02  0.24541511917E+02  0.49959562858E+03  0.52208778807E+03  0.12509000000E+03 0.  0.
         25    1    4    4    0    0  0.78715907370E+02 -0.31569997101E+02  0.24138414583E+03  0.28479233267E+03  0.12509000000E+03 0.  0.
         25    1    4    4    0    0  0.33211113958E+01  0.70284851844E+01  0.18489831108E+03  0.22337261006E+03  0.12509000000E+03 0.  0.
<mgrwt>
<rscale>  2 0.45185225E+03</rscale>
<asrwt>0</asrwt>
<pdfrwt beam="1">  1       21 0.14383314E+00 0.45185225E+03</pdfrwt>
<pdfrwt beam="2">  1       21 0.76746069E-02 0.45185225E+03</pdfrwt>
<totfact> 0.38959046E+04</totfact>
</mgrwt>
</event>
<event>
 7    0  0.4725730E-002  0.4546848E+03  0.7546771E-02  0.1026334E+00
         21   -1    0    0  502  501  0.00000000000E+00  0.00000000000E+00  0.44465526936E+03  0.44465526936E+03  0.00000000000E+00 0.  1.
         21   -1    0    0  501  502 -0.00000000000E+00 -0.00000000000E+00 -0.11623514944E+03  0.11623514944E+03  0.00000000000E+00 0.  1.
      99926    2    1    2    0    0  0.00000000000E+00  0.00000000000E+00  0.32842011992E+03  0.56089041880E+03  0.45468482131E+03 0.  0.
      99925    2    3    3    0    0  0.43133640863E+02 -0.48499232273E+02  0.92646258958E+02  0.28620968027E+03  0.26290676157E+03 0.  0.
         25    1    4    4    0    0  0.47767375406E+02 -0.50177291151E+02  0.29524178800E+02  0.14600913648E+03  0.12509000000E+03 0.  0.
         25    1    3    3    0    0 -0.43133640863E+02  0.48499232273E+02  0.23577386096E+03  0.27468073853E+03  0.12509000000E+03 0.  0.
         25    1    4    4    0    0 -0.46337345437E+01  0.16780588776E+01  0.63122080157E+02  0.14020054380E+03  0.12509000000E+03 0.  0.
<mgrwt>
<rscale>  2 0.45468482E+03</rscale>
<asrwt>0</asrwt>
<pdfrwt beam="1">  1       21 0.65390480E-01 0.45468482E+03</pdfrwt>
<pdfrwt beam="2">  1       21 0.17093404E-01 0.45468482E+03</pdfrwt>
<totfact> 0.61305239E+04</totfact>
</mgrwt>
</event>
<event>
 7    0  0.4725730E-002  0.4557755E+03  0.7546771E-02  0.1026014E+00
         21   -1    0    0  502  501  0.00000000000E+00  0.00000000000E+00  0.21145247659E+03  0.21145247659E+03  0.00000000000E+00 0. -1.
         21   -1    0    0  501  502 -0.00000000000E+00 -0.00000000000E+00 -0.24560041451E+03  0.24560041451E+03  0.00000000000E+00 0. -1.
      99926    2    1    2    0    0  0.00000000000E+00  0.00000000000E+00 -0.34147937915E+02  0.45705289110E+03  0.45577545305E+03 0.  0.
      99925    2    3    3    0    0  0.71407783348E+02 -0.65986795026E+02 -0.81009346137E+02  0.29183537290E+03  0.26296775862E+03 0.  0.
         25    1    4    4    0    0  0.83659786235E+00 -0.53597115979E+02 -0.43569588539E+02  0.14289565383E+03  0.12509000000E+03 0.  0.
         25    1    3    3    0    0 -0.71407783348E+02  0.65986795026E+02  0.46861408223E+02  0.16521751820E+03  0.12509000000E+03 0.  0.
         25    1    4    4    0    0  0.70571185485E+02 -0.12389679047E+02 -0.37439757599E+02  0.14893971907E+03  0.12509000000E+03 0.  0.
<mgrwt>
<rscale>  2 0.45577545E+03</rscale>
<asrwt>0</asrwt>
<pdfrwt beam="1">  1       21 0.31095953E-01 0.45577545E+03</pdfrwt>
<pdfrwt beam="2">  1       21 0.36117708E-01 0.45577545E+03</pdfrwt>
<totfact> 0.67974156E+04</totfact>
</mgrwt>
</event>
<event>
 7    0  0.4725730E-002  0.4507741E+03  0.7546771E-02  0.1027491E+00
         21   -1    0    0  502  501  0.00000000000E+00  0.00000000000E+00  0.16198024111E+04  0.16198024111E+04  0.00000000000E+00 0.  1.
         21   -1    0    0  501  502 -0.00000000000E+00 -0.00000000000E+00 -0.31361436282E+02  0.31361436282E+02  0.00000000000E+00 0.  1.
      99926    2    1    2    0    0  0.00000000000E+00  0.46629367034E-14  0.15884409748E+04  0.16511638473E+04  0.45077413459E+03 0.  0.
      99925    2    3    3    0    0 -0.51239387405E+02  0.47096535842E+00  0.13562888706E+04  0.13825231874E+04  0.26310675855E+03 0.  0.
         25    1    4    4    0    0 -0.14535012717E+02  0.35140487775E+02  0.76025460868E+03  0.77141473838E+03  0.12509000000E+03 0.  0.
         25    1    4    4    0    0 -0.36704374688E+02 -0.34669522417E+02  0.59603426193E+03  0.61110844897E+03  0.12509000000E+03 0.  0.
         25    1    3    3    0    0  0.51239387405E+02 -0.47096535842E+00  0.23215210416E+03  0.26864065998E+03  0.12509000000E+03 0.  0.
<mgrwt>
<rscale>  2 0.45077413E+03</rscale>
<asrwt>0</asrwt>
<pdfrwt beam="1">  1       21 0.23820618E+00 0.45077413E+03</pdfrwt>
<pdfrwt beam="2">  1       21 0.46119770E-02 0.45077413E+03</pdfrwt>
<totfact> 0.20977838E+04</totfact>
</mgrwt>
</event>
<event>
 7    0  0.4725730E-002  0.4579304E+03  0.7546771E-02  0.1025383E+00
         21   -1    0    0  502  501  0.00000000000E+00  0.00000000000E+00  0.85575796794E+03  0.85575796794E+03  0.00000000000E+00 0.  1.
         21   -1    0    0  501  502 -0.00000000000E+00 -0.00000000000E+00 -0.61261549367E+02  0.61261549367E+02  0.00000000000E+00 0.  1.
      99926    2    1    2    0    0  0.00000000000E+00  0.17763568394E-14  0.79449641858E+03  0.91701951731E+03  0.45793038335E+03 0.  0.
      99925    2    3    3    0    0 -0.87956814111E+02  0.45627885309E+01  0.64873377912E+03  0.70571056022E+03  0.26346661731E+03 0.  0.
         25    1    4    4    0    0 -0.30099156542E+02  0.37272967346E+02  0.27117554143E+03  0.30245481594E+03  0.12509000000E+03 0.  0.
         25    1    4    4    0    0 -0.57857657570E+02 -0.32710178815E+02  0.37755823770E+03  0.40325574427E+03  0.12509000000E+03 0.  0.
         25    1    3    3    0    0  0.87956814111E+02 -0.45627885309E+01  0.14576263946E+03  0.21130895710E+03  0.12509000000E+03 0.  0.
<mgrwt>
<rscale>  2 0.45793038E+03</rscale>
<asrwt>0</asrwt>
<pdfrwt beam="1">  1       21 0.12584675E+00 0.45793038E+03</pdfrwt>
<pdfrwt beam="2">  1       21 0.90090519E-02 0.45793038E+03</pdfrwt>
<totfact> 0.41544933E+04</totfact>
</mgrwt>
</event>
<event>
 7    0  0.4725730E-002  0.4644448E+03  0.7546771E-02  0.1023500E+00
         21   -1    0    0  502  501  0.00000000000E+00  0.00000000000E+00  0.10009914317E+04  0.10009914317E+04  0.00000000000E+00 0.  1.
         21   -1    0    0  501  502 -0.00000000000E+00 -0.00000000000E+00 -0.53873837460E+02  0.53873837460E+02  0.00000000000E+00 0.  1.
      99926    2    1    2    0    0  0.00000000000E+00 -0.66613381478E-15  0.94711759427E+03  0.10548652692E+04  0.46444482855E+03 0.  0.
      99925    2    3    3    0    0  0.96643072524E+02 -0.86458770364E+00  0.75938746564E+03  0.80944575025E+03  0.26304461343E+03 0.  0.
         25    1    3    3    0    0 -0.96643072524E+02  0.86458770364E+00  0.18773012863E+03  0.24541951893E+03  0.12509000000E+03 0.  0.
         25    1    4    4    0    0  0.55898485664E+02  0.72254804994E+01  0.27331390654E+03  0.30581832495E+03  0.12509000000E+03 0.  0.
         25    1    4    4    0    0  0.40744586860E+02 -0.80900682031E+01  0.48607355910E+03  0.50362742531E+03  0.12509000000E+03 0.  0.
<mgrwt>
<rscale>  2 0.46444483E+03</rscale>
<asrwt>0</asrwt>
<pdfrwt beam="1">  1       21 0.14720461E+00 0.46444483E+03</pdfrwt>
<pdfrwt beam="2">  1       21 0.79226238E-02 0.46444483E+03</pdfrwt>
<totfact> 0.34486167E+04</totfact>
</mgrwt>
</event>
<event>
 7    0  0.4725730E-002  0.4555797E+03  0.7546771E-02  0.1026071E+00
         21   -1    0    0  502  501  0.00000000000E+00  0.00000000000E+00  0.16054573121E+03  0.16054573121E+03  0.00000000000E+00 0.  1.
         21   -1    0    0  501  502 -0.00000000000E+00 -0.00000000000E+00 -0.32319897640E+03  0.32319897640E+03  0.00000000000E+00 0.  1.
      99926    2    1    2    0    0  0.00000000000E+00  0.00000000000E+00 -0.16265324518E+03  0.48374470761E+03  0.45557970101E+03 0.  0.
      99925    2    3    3    0    0 -0.11296161264E+03 -0.10039323520E+02 -0.93421001228E+02  0.30125710351E+03  0.26299666347E+03 0.  0.
         25    1    4    4    0    0 -0.13731398329E+02 -0.12095865771E+01 -0.31128548690E+02  0.12963992072E+03  0.12509000000E+03 0.  0.
         25    1    3    3    0    0  0.11296161264E+03  0.10039323520E+02 -0.69232243955E+02  0.18248760410E+03  0.12509000000E+03 0.  0.
         25    1    4    4    0    0 -0.99230214313E+02 -0.88297369429E+01 -0.62292452538E+02  0.17161718279E+03  0.12509000000E+03 0.  0.
<mgrwt>
<rscale>  2 0.45557970E+03</rscale>
<asrwt>0</asrwt>
<pdfrwt beam="1">  1       21 0.23609666E-01 0.45557970E+03</pdfrwt>
<pdfrwt beam="2">  1       21 0.47529261E-01 0.45557970E+03</pdfrwt>
<totfact> 0.66123701E+04</totfact>
</mgrwt>
</event>
<event>
 7    0  0.4725730E-002  0.4492083E+03  0.7546771E-02  0.1027958E+00
         21   -1    0    0  502  501  0.00000000000E+00  0.00000000000E+00  0.67503770365E+03  0.67503770365E+03  0.00000000000E+00 0. -1.
         21   -1    0    0  501  502 -0.00000000000E+00 -0.00000000000E+00 -0.74732150073E+02  0.74732150073E+02  0.00000000000E+00 0. -1.
      99926    2    1    2    0    0 -0.71054273576E-14  0.14210854715E-13  0.60030555358E+03  0.74976985373E+03  0.44920827675E+03 0.  0.
      99925    2    3    3    0    0  0.40699343268E+02 -0.76223266385E+02  0.48680732129E+03  0.56004431587E+03  0.26306243517E+03 0.  0.
         25    1    4    4    0    0  0.10313696869E+02 -0.31166847030E+02  0.31618779237E+03  0.34161377730E+03  0.12509000000E+03 0.  0.
         25    1    3    3    0    0 -0.40699343268E+02  0.76223266385E+02  0.11349823229E+03  0.18972553785E+03  0.12509000000E+03 0.  0.
         25    1    4    4    0    0  0.30385646399E+02 -0.45056419355E+02  0.17061952892E+03  0.21843053857E+03  0.12509000000E+03 0.  0.
<mgrwt>
<rscale>  2 0.44920828E+03</rscale>
<asrwt>0</asrwt>
<pdfrwt beam="1">  1       21 0.99270247E-01 0.44920828E+03</pdfrwt>
<pdfrwt beam="2">  1       21 0.10990022E-01 0.44920828E+03</pdfrwt>
<totfact> 0.52638149E+04</totfact>
</mgrwt>
</event>
<event>
 7    0  0.4725730E-002  0.4561440E+03  0.7546771E-02  0.1025906E+00
         21   -1    0    0  502  501  0.00000000000E+00  0.00000000000E+00  0.72165063616E+02  0.72165063616E+02  0.00000000000E+00 0.  1.
         21   -1    0    0  501  502 -0.00000000000E+00 -0.00000000000E+00 -0.72080360128E+03  0.72080360128E+03  0.00000000000E+00 0.  1.
      99926    2    1    2    0    0  0.00000000000E+00  0.71054273576E-14 -0.64863853766E+03  0.79296866489E+03  0.45614400244E+03 0.  0.
      99925    2    3    3    0    0  0.95645563606E+02  0.62046967727E+02 -0.39489687233E+03  0.48796007343E+03  0.26298972117E+03 0.  0.
         25    1    4    4    0    0  0.76818254677E+02  0.61338387708E+02 -0.24048002280E+03  0.28834283679E+03  0.12509000000E+03 0.  0.
         25    1    4    4    0    0  0.18827308929E+02  0.70858001914E+00 -0.15441684952E+03  0.19961723664E+03  0.12509000000E+03 0.  0.
         25    1    3    3    0    0 -0.95645563606E+02 -0.62046967727E+02 -0.25374166533E+03  0.30500859147E+03  0.12509000000E+03 0.  0.
<mgrwt>
<rscale>  2 0.45614400E+03</rscale>
<asrwt>0</asrwt>
<pdfrwt beam="1">  1       21 0.10612510E-01 0.45614400E+03</pdfrwt>
<pdfrwt beam="2">  1       21 0.10600052E+00 0.45614400E+03</pdfrwt>
<totfact> 0.47677291E+04</totfact>
</mgrwt>
</event>
<event>
 7    0  0.4725730E-002  0.4192749E+03  0.7546771E-02  0.1037303E+00
         21   -1    0    0  502  501  0.00000000000E+00  0.00000000000E+00  0.17582015401E+03  0.17582015401E+03  0.00000000000E+00 0.  1.
         21   -1    0    0  501  502 -0.00000000000E+00 -0.00000000000E+00 -0.24995913325E+03  0.24995913325E+03  0.00000000000E+00 0.  1.
      99926    2    1    2    0    0  0.00000000000E+00 -0.71054273576E-14 -0.74138979248E+02  0.42577928726E+03  0.41927486595E+03 0.  0.
      99925    2    3    3    0    0  0.40770178746E+01 -0.33871646369E+02  0.19391419888E+02  0.26590635595E+03  0.26299477650E+03 0.  0.
         25    1    4    4    0    0  0.46756095060E+01  0.20019374051E+02  0.26525604365E+02  0.12951352226E+03  0.12509000000E+03 0.  0.
         25    1    4    4    0    0 -0.59859163142E+00 -0.53891020420E+02 -0.71341844768E+01  0.13639283369E+03  0.12509000000E+03 0.  0.
         25    1    3    3    0    0 -0.40770178746E+01  0.33871646369E+02 -0.93530399136E+02  0.15987293131E+03  0.12509000000E+03 0.  0.
<mgrwt>
<rscale>  2 0.41927487E+03</rscale>
<asrwt>0</asrwt>
<pdfrwt beam="1">  1       21 0.25855905E-01 0.41927487E+03</pdfrwt>
<pdfrwt beam="2">  1       21 0.36758696E-01 0.41927487E+03</pdfrwt>
<totfact> 0.95077604E+04</totfact>
</mgrwt>
</event>
<event>
 7    0  0.4725730E-002  0.3981163E+03  0.7546771E-02  0.1044434E+00
         21   -1    0    0  502  501  0.00000000000E+00  0.00000000000E+00  0.80229869715E+02  0.80229869715E+02  0.00000000000E+00 0.  1.
         21   -1    0    0  501  502 -0.00000000000E+00 -0.00000000000E+00 -0.49388271397E+03  0.49388271397E+03  0.00000000000E+00 0.  1.
      99926    2    1    2    0    0  0.00000000000E+00  0.35527136788E-14 -0.41365284425E+03  0.57411258368E+03  0.39811629354E+03 0.  0.
      99925    2    3    3    0    0  0.32957821745E+02 -0.21975151151E+02 -0.26261139458E+03  0.37403721563E+03  0.26338179290E+03 0.  0.
         25    1    4    4    0    0  0.51703791192E+02  0.80275939336E+01 -0.11998513733E+03  0.18105707820E+03  0.12509000000E+03 0.  0.
         25    1    4    4    0    0 -0.18745969447E+02 -0.30002745084E+02 -0.14262625725E+03  0.19298013742E+03  0.12509000000E+03 0.  0.
         25    1    3    3    0    0 -0.32957821745E+02  0.21975151151E+02 -0.15104144968E+03  0.20007536806E+03  0.12509000000E+03 0.  0.
<mgrwt>
<rscale>  2 0.39811629E+03</rscale>
<asrwt>0</asrwt>
<pdfrwt beam="1">  1       21 0.11798511E-01 0.39811629E+03</pdfrwt>
<pdfrwt beam="2">  1       21 0.72629808E-01 0.39811629E+03</pdfrwt>
<totfact> 0.97155776E+04</totfact>
</mgrwt>
</event>
<event>
 7    0  0.4725730E-002  0.4631262E+03  0.7546771E-02  0.1023878E+00
         21   -1    0    0  502  501  0.00000000000E+00  0.00000000000E+00  0.63095311118E+03  0.63095311118E+03  0.00000000000E+00 0.  1.
         21   -1    0    0  501  502 -0.00000000000E+00 -0.00000000000E+00 -0.84984876508E+02  0.84984876508E+02  0.00000000000E+00 0.  1.
      99926    2    1    2    0    0 -0.71054273576E-14  0.00000000000E+00  0.54596823467E+03  0.71593798768E+03  0.46312621276E+03 0.  0.
      99925    2    3    3    0    0  0.39413061408E+02 -0.11363599432E+03  0.35547802896E+03  0.45825493588E+03  0.26299511132E+03 0.  0.
         25    1    4    4    0    0  0.49544829783E+02 -0.88815514567E+02  0.19405661099E+03  0.25228627024E+03  0.12509000000E+03 0.  0.
         25    1    3    3    0    0 -0.39413061408E+02  0.11363599432E+03  0.19049020571E+03  0.25768305180E+03  0.12509000000E+03 0.  0.
         25    1    4    4    0    0 -0.10131768374E+02 -0.24820479749E+02  0.16142141797E+03  0.20596866564E+03  0.12509000000E+03 0.  0.
<mgrwt>
<rscale>  2 0.46312621E+03</rscale>
<asrwt>0</asrwt>
<pdfrwt beam="1">  1       21 0.92787219E-01 0.46312621E+03</pdfrwt>
<pdfrwt beam="2">  1       21 0.12497776E-01 0.46312621E+03</pdfrwt>
<totfact> 0.48847852E+04</totfact>
</mgrwt>
</event>
<event>
 7    0  0.4725730E-002  0.4506377E+03  0.7546771E-02  0.1027532E+00
         21   -1    0    0  502  501  0.00000000000E+00  0.00000000000E+00  0.12478773667E+03  0.12478773667E+03  0.00000000000E+00 0. -1.
         21   -1    0    0  501  502 -0.00000000000E+00 -0.00000000000E+00 -0.40683955462E+03  0.40683955462E+03  0.00000000000E+00 0. -1.
      99926    2    1    2    0    0  0.00000000000E+00  0.00000000000E+00 -0.28205181796E+03  0.53162729129E+03  0.45063771350E+03 0.  0.
      99925    2    3    3    0    0 -0.57274728648E+02  0.53393255456E+02 -0.26762214637E+03  0.38334729334E+03  0.26306330002E+03 0.  0.
         25    1    4    4    0    0 -0.43189331033E+02 -0.85683399094E+01 -0.15043373513E+03  0.20054064807E+03  0.12509000000E+03 0.  0.
         25    1    3    3    0    0  0.57274728648E+02 -0.53393255456E+02 -0.14429671591E+02  0.14827999795E+03  0.12509000000E+03 0.  0.
         25    1    4    4    0    0 -0.14085397615E+02  0.61961595366E+02 -0.11718841124E+03  0.18280664527E+03  0.12509000000E+03 0.  0.
<mgrwt>
<rscale>  2 0.45063771E+03</rscale>
<asrwt>0</asrwt>
<pdfrwt beam="1">  1       21 0.18351138E-01 0.45063771E+03</pdfrwt>
<pdfrwt beam="2">  1       21 0.59829347E-01 0.45063771E+03</pdfrwt>
<totfact> 0.65323734E+04</totfact>
</mgrwt>
</event>
<event>
 7    0  0.4725730E-002  0.4546278E+03  0.7546771E-02  0.1026351E+00
         21   -1    0    0  502  501  0.00000000000E+00  0.00000000000E+00  0.14495160142E+04  0.14495160142E+04  0.00000000000E+00 0. -1.
         21   -1    0    0  501  502 -0.00000000000E+00 -0.00000000000E+00 -0.35647489304E+02  0.35647489304E+02  0.00000000000E+00 0. -1.
      99926    2    1    2    0    0  0.00000000000E+00  0.14210854715E-13  0.14138685249E+04  0.14851635035E+04  0.45462778891E+03 0.  0.
      99925    2    3    3    0    0  0.42624262783E+02  0.62196106978E+02  0.11635549846E+04  0.11953539797E+04  0.26329783750E+03 0.  0.
         25    1    3    3    0    0 -0.42624262783E+02 -0.62196106978E+02  0.25031354033E+03  0.28980952378E+03  0.12509000000E+03 0.  0.
         25    1    4    4    0    0  0.55226880808E+02  0.55666624485E+02  0.59766945085E+03  0.61563387011E+03  0.12509000000E+03 0.  0.
         25    1    4    4    0    0 -0.12602618025E+02  0.65294824929E+01  0.56588553370E+03  0.57972010960E+03  0.12509000000E+03 0.  0.
<mgrwt>
<rscale>  2 0.45462779E+03</rscale>
<asrwt>0</asrwt>
<pdfrwt beam="1">  1       21 0.21316408E+00 0.45462779E+03</pdfrwt>
<pdfrwt beam="2">  1       21 0.52422788E-02 0.45462779E+03</pdfrwt>
<totfact> 0.24215039E+04</totfact>
</mgrwt>
</event>
<event>
 7    0  0.4725730E-002  0.4524643E+03  0.7546771E-02  0.1026990E+00
         21   -1    0    0  502  501  0.00000000000E+00  0.00000000000E+00  0.80659491449E+03  0.80659491449E+03  0.00000000000E+00 0.  1.
         21   -1    0    0  501  502 -0.00000000000E+00 -0.00000000000E+00 -0.63453145519E+02  0.63453145519E+02  0.00000000000E+00 0.  1.
      99926    2    1    2    0    0  0.00000000000E+00  0.00000000000E+00  0.74314176897E+03  0.87004806001E+03  0.45246429465E+03 0.  0.
      99925    2    3    3    0    0 -0.48851610478E+02 -0.51076421248E+02  0.30504622808E+03  0.40899438450E+03  0.26311200017E+03 0.  0.
         25    1    4    4    0    0 -0.61016784350E+02 -0.45819329636E+02  0.15800108002E+03  0.21548621378E+03  0.12509000000E+03 0.  0.
         25    1    4    4    0    0  0.12165173872E+02 -0.52570916124E+01  0.14704514806E+03  0.19350817072E+03  0.12509000000E+03 0.  0.
         25    1    3    3    0    0  0.48851610478E+02  0.51076421248E+02  0.43809554089E+03  0.46105367551E+03  0.12509000000E+03 0.  0.
<mgrwt>
<rscale>  2 0.45246429E+03</rscale>
<asrwt>0</asrwt>
<pdfrwt beam="1">  1       21 0.11861689E+00 0.45246429E+03</pdfrwt>
<pdfrwt beam="2">  1       21 0.93313454E-02 0.45246429E+03</pdfrwt>
<totfact> 0.45450120E+04</totfact>
</mgrwt>
</event>
<event>
 7    0  0.4725730E-002  0.4637113E+03  0.7546771E-02  0.1023710E+00
         21   -1    0    0  502  501  0.00000000000E+00  0.00000000000E+00  0.88032770244E+02  0.88032770244E+02  0.00000000000E+00 0.  1.
         21   -1    0    0  501  502 -0.00000000000E+00 -0.00000000000E+00 -0.61064797140E+03  0.61064797140E+03  0.00000000000E+00 0.  1.
      99926    2    1    2    0    0  0.14210854715E-13  0.00000000000E+00 -0.52261520116E+03  0.69868074164E+03  0.46371125743E+03 0.  0.
      99925    2    3    3    0    0 -0.10136455097E+03  0.51826135648E+02 -0.38883017830E+03  0.48302671091E+03  0.26299272874E+03 0.  0.
         25    1    4    4    0    0 -0.92997572999E+02  0.38053860500E+02 -0.21667939892E+03  0.26961846172E+03  0.12509000000E+03 0.  0.
         25    1    4    4    0    0 -0.83669779729E+01  0.13772275148E+02 -0.17215077938E+03  0.21340824919E+03  0.12509000000E+03 0.  0.
         25    1    3    3    0    0  0.10136455097E+03 -0.51826135648E+02 -0.13378502286E+03  0.21565403073E+03  0.12509000000E+03 0.  0.
<mgrwt>
<rscale>  2 0.46371126E+03</rscale>
<asrwt>0</asrwt>
<pdfrwt beam="1">  1       21 0.12945996E-01 0.46371126E+03</pdfrwt>
<pdfrwt beam="2">  1       21 0.89801170E-01 0.46371126E+03</pdfrwt>
<totfact> 0.49492933E+04</totfact>
</mgrwt>
</event>
<event>
 7    0  0.4725730E-002  0.4494711E+03  0.7546771E-02  0.1027880E+00
         21   -1    0    0  502  501  0.00000000000E+00  0.00000000000E+00  0.33310836765E+02  0.33310836765E+02  0.00000000000E+00 0.  1.
         21   -1    0    0  501  502 -0.00000000000E+00 -0.00000000000E+00 -0.15162052263E+04  0.15162052263E+04  0.00000000000E+00 0.  1.
      99926    2    1    2    0    0  0.00000000000E+00  0.00000000000E+00 -0.14828943895E+04  0.15495160631E+04  0.44947108826E+03 0.  0.
      99925    2    3    3    0    0 -0.80717556163E+02  0.13543997129E+02 -0.69484273305E+03  0.74741152803E+03  0.26290455461E+03 0.  0.
         25    1    4    4    0    0 -0.53844416069E+02  0.44801143646E+02 -0.34537801927E+03  0.37395166521E+03  0.12509000000E+03 0.  0.
         25    1    4    4    0    0 -0.26873140093E+02 -0.31257146517E+02 -0.34946471377E+03  0.37345986282E+03  0.12509000000E+03 0.  0.
         25    1    3    3    0    0  0.80717556163E+02 -0.13543997129E+02 -0.78805165649E+03  0.80210453504E+03  0.12509000000E+03 0.  0.
<mgrwt>
<rscale>  2 0.44947109E+03</rscale>
<asrwt>0</asrwt>
<pdfrwt beam="1">  1       21 0.48986523E-02 0.44947109E+03</pdfrwt>
<pdfrwt beam="2">  1       21 0.22297137E+00 0.44947109E+03</pdfrwt>
<totfact> 0.23587990E+04</totfact>
</mgrwt>
</event>
<event>
 7    0  0.4725730E-002  0.4637242E+03  0.7546771E-02  0.1023707E+00
         21   -1    0    0  502  501  0.00000000000E+00  0.00000000000E+00  0.29113726356E+03  0.29113726356E+03  0.00000000000E+00 0.  1.
         21   -1    0    0  501  502 -0.00000000000E+00 -0.00000000000E+00 -0.18465525882E+03  0.18465525882E+03  0.00000000000E+00 0.  1.
      99926    2    1    2    0    0  0.00000000000E+00 -0.71054273576E-14  0.10648200473E+03  0.47579252238E+03  0.46372417127E+03 0.  0.
      99925    2    3    3    0    0  0.81299426542E+02  0.62944396453E+02  0.13291113767E+03  0.31172667899E+03  0.26255772332E+03 0.  0.
         25    1    4    4    0    0  0.26897687656E+02  0.65753558786E+02  0.85173515713E+02  0.16717969964E+03  0.12509000000E+03 0.  0.
         25    1    4    4    0    0  0.54401738885E+02 -0.28091623325E+01  0.47737621957E+02  0.14454697934E+03  0.12509000000E+03 0.  0.
         25    1    3    3    0    0 -0.81299426542E+02 -0.62944396453E+02 -0.26429132937E+02  0.16406584339E+03  0.12509000000E+03 0.  0.
<mgrwt>
<rscale>  2 0.46372417E+03</rscale>
<asrwt>0</asrwt>
<pdfrwt beam="1">  1       21 0.42814303E-01 0.46372417E+03</pdfrwt>
<pdfrwt beam="2">  1       21 0.27155185E-01 0.46372417E+03</pdfrwt>
<totfact> 0.62564088E+04</totfact>
</mgrwt>
</event>
<event>
 7    0  0.4725730E-002  0.4558800E+03  0.7546771E-02  0.1025983E+00
         21   -1    0    0  502  501  0.00000000000E+00  0.00000000000E+00  0.13637500726E+03  0.13637500726E+03  0.00000000000E+00 0.  1.
         21   -1    0    0  501  502 -0.00000000000E+00 -0.00000000000E+00 -0.38098353904E+03  0.38098353904E+03  0.00000000000E+00 0.  1.
      99926    2    1    2    0    0  0.66613381478E-15  0.71054273576E-14 -0.24460853178E+03  0.51735854631E+03  0.45587995308E+03 0.  0.
      99925    2    3    3    0    0  0.13921455265E+01  0.48731661604E+02 -0.27065573620E+03  0.38060081208E+03  0.26310784425E+03 0.  0.
         25    1    4    4    0    0 -0.10310159806E+02  0.26754443655E+02 -0.19138584255E+03  0.23043035494E+03  0.12509000000E+03 0.  0.
         25    1    4    4    0    0  0.11702305332E+02  0.21977217949E+02 -0.79269893656E+02  0.15017045714E+03  0.12509000000E+03 0.  0.
         25    1    3    3    0    0 -0.13921455265E+01 -0.48731661604E+02  0.26047204421E+02  0.13675773422E+03  0.12509000000E+03 0.  0.
<mgrwt>
<rscale>  2 0.45587995E+03</rscale>
<asrwt>0</asrwt>
<pdfrwt beam="1">  1       21 0.20055148E-01 0.45587995E+03</pdfrwt>
<pdfrwt beam="2">  1       21 0.56026991E-01 0.45587995E+03</pdfrwt>
<totfact> 0.63622218E+04</totfact>
</mgrwt>
</event>
<event>
 7    0  0.4725730E-002  0.4508119E+03  0.7546771E-02  0.1027480E+00
         21   -1    0    0  502  501  0.00000000000E+00  0.00000000000E+00  0.66871442737E+02  0.66871442737E+02  0.00000000000E+00 0.  1.
         21   -1    0    0  501  502 -0.00000000000E+00 -0.00000000000E+00 -0.75978393119E+03  0.75978393119E+03  0.00000000000E+00 0.  1.
      99926    2    1    2    0    0  0.00000000000E+00  0.00000000000E+00 -0.69291248845E+03  0.82665537392E+03  0.45081192374E+03 0.  0.
      99925    2    3    3    0    0 -0.23477104505E+02 -0.10287337533E+03 -0.48957976775E+03  0.56564616107E+03  0.26293178726E+03 0.  0.
         25    1    4    4    0    0 -0.23910200452E+02 -0.61846918118E+02 -0.17830335924E+03  0.22767594292E+03  0.12509000000E+03 0.  0.
         25    1    4    4    0    0  0.43309594741E+00 -0.41026457213E+02 -0.31127640851E+03  0.33797021815E+03  0.12509000000E+03 0.  0.
         25    1    3    3    0    0  0.23477104505E+02  0.10287337533E+03 -0.20333272070E+03  0.26100921286E+03  0.12509000000E+03 0.  0.
<mgrwt>
<rscale>  2 0.45081192E+03</rscale>
<asrwt>0</asrwt>
<pdfrwt beam="1">  1       21 0.98340356E-02 0.45081192E+03</pdfrwt>
<pdfrwt beam="2">  1       21 0.11173293E+00 0.45081192E+03</pdfrwt>
<totfact> 0.48062403E+04</totfact>
</mgrwt>
</event>
<event>
 7    0  0.4725730E-002  0.4664508E+03  0.7546771E-02  0.1022927E+00
         21   -1    0    0  502  501  0.00000000000E+00  0.00000000000E+00  0.22990831362E+03  0.22990831362E+03  0.00000000000E+00 0. -1.
         21   -1    0    0  501  502 -0.00000000000E+00 -0.00000000000E+00 -0.23659036877E+03  0.23659036877E+03  0.00000000000E+00 0. -1.
      99926    2    1    2    0    0  0.35527136788E-14  0.17763568394E-14 -0.66820551558E+01  0.46649868239E+03  0.46645082357E+03 0.  0.
      99925    2    3    3    0    0  0.27236301703E+02 -0.10063031677E+02  0.11590463838E+03  0.28896534392E+03  0.26310454966E+03 0.  0.
         25    1    3    3    0    0 -0.27236301703E+02  0.10063031677E+02 -0.12258669353E+03  0.17753333847E+03  0.12509000000E+03 0.  0.
         25    1    4    4    0    0  0.86154359696E+01 -0.14869389474E+02  0.10068475400E+03  0.16149381495E+03  0.12509000000E+03 0.  0.
         25    1    4    4    0    0  0.18620865733E+02  0.48063577974E+01  0.15219884380E+02  0.12747152896E+03  0.12509000000E+03 0.  0.
<mgrwt>
<rscale>  2 0.46645082E+03</rscale>
<asrwt>0</asrwt>
<pdfrwt beam="1">  1       21 0.33810046E-01 0.46645082E+03</pdfrwt>
<pdfrwt beam="2">  1       21 0.34792701E-01 0.46645082E+03</pdfrwt>
<totfact> 0.61863158E+04</totfact>
</mgrwt>
</event>
<event>
 7    0  0.4725730E-002  0.4977906E+03  0.7546771E-02  0.1014357E+00
         21   -1    0    0  502  501  0.00000000000E+00  0.00000000000E+00  0.21436118106E+03  0.21436118106E+03  0.00000000000E+00 0.  1.
         21   -1    0    0  501  502 -0.00000000000E+00 -0.00000000000E+00 -0.28899295732E+03  0.28899295732E+03  0.00000000000E+00 0.  1.
      99926    2    1    2    0    0 -0.71054273576E-14  0.17763568394E-14 -0.74631776266E+02  0.50335413838E+03  0.49779060517E+03 0.  0.
      99925    2    3    3    0    0  0.63379522921E+02 -0.11286464999E+02  0.91354669578E+02  0.28576885275E+03  0.26300915066E+03 0.  0.
         25    1    4    4    0    0 -0.78104235989E+01  0.77892750862E+01  0.43617431252E+02  0.13293481084E+03  0.12509000000E+03 0.  0.
         25    1    3    3    0    0 -0.63379522921E+02  0.11286464999E+02 -0.16598644584E+03  0.21758528563E+03  0.12509000000E+03 0.  0.
         25    1    4    4    0    0  0.71189946520E+02 -0.19075740085E+02  0.47737238327E+02  0.15283404192E+03  0.12509000000E+03 0.  0.
<mgrwt>
<rscale>  2 0.49779061E+03</rscale>
<asrwt>0</asrwt>
<pdfrwt beam="1">  1       21 0.31523703E-01 0.49779061E+03</pdfrwt>
<pdfrwt beam="2">  1       21 0.42498964E-01 0.49779061E+03</pdfrwt>
<totfact> 0.46938147E+04</totfact>
</mgrwt>
</event>
<event>
 7    0  0.4725730E-002  0.4865144E+03  0.7546771E-02  0.1017360E+00
         21   -1    0    0  502  501  0.00000000000E+00  0.00000000000E+00  0.29191940756E+03  0.29191940756E+03  0.00000000000E+00 0.  1.
         21   -1    0    0  501  502 -0.00000000000E+00 -0.00000000000E+00 -0.20270682712E+03  0.20270682712E+03  0.00000000000E+00 0.  1.
      99926    2    1    2    0    0  0.00000000000E+00  0.00000000000E+00  0.89212580431E+02  0.49462623468E+03  0.48651436518E+03 0.  0.
      99925    2    3    3    0    0  0.43299900907E+02 -0.10748214652E+03  0.13582021343E+03  0.31785781897E+03  0.26298131011E+03 0.  0.
         25    1    4    4    0    0 -0.17957402637E+02 -0.54514344072E+02  0.53882392130E+02  0.14780088735E+03  0.12509000000E+03 0.  0.
         25    1    4    4    0    0  0.61257303544E+02 -0.52967802445E+02  0.81937821305E+02  0.17005693162E+03  0.12509000000E+03 0.  0.
         25    1    3    3    0    0 -0.43299900907E+02  0.10748214652E+03 -0.46607633003E+02  0.17676841571E+03  0.12509000000E+03 0.  0.
<mgrwt>
<rscale>  2 0.48651437E+03</rscale>
<asrwt>0</asrwt>
<pdfrwt beam="1">  1       21 0.42929325E-01 0.48651437E+03</pdfrwt>
<pdfrwt beam="2">  1       21 0.29809827E-01 0.48651437E+03</pdfrwt>
<totfact> 0.51502800E+04</totfact>
</mgrwt>
</event>
<event>
 7    0  0.4725730E-002  0.4621867E+03  0.7546771E-02  0.1024149E+00
         21   -1    0    0  502  501  0.00000000000E+00  0.00000000000E+00  0.57174352385E+03  0.57174352385E+03  0.00000000000E+00 0.  1.
         21   -1    0    0  501  502 -0.00000000000E+00 -0.00000000000E+00 -0.93405763036E+02  0.93405763036E+02  0.00000000000E+00 0.  1.
      99926    2    1    2    0    0  0.00000000000E+00  0.14210854715E-13  0.47833776082E+03  0.66514928689E+03  0.46218671598E+03 0.  0.
      99925    2    3    3    0    0  0.36257547575E+02  0.85246864256E+02  0.18965785502E+03  0.33717789526E+03  0.26293952433E+03 0.  0.
         25    1    3    3    0    0 -0.36257547575E+02 -0.85246864256E+02  0.28867990579E+03  0.32797139163E+03  0.12509000000E+03 0.  0.
         25    1    4    4    0    0  0.26968698772E+02  0.83155052843E+02  0.91992697669E+02  0.17819157682E+03  0.12509000000E+03 0.  0.
         25    1    4    4    0    0  0.92888488030E+01  0.20918114131E+01  0.97665157356E+02  0.15898631843E+03  0.12509000000E+03 0.  0.
<mgrwt>
<rscale>  2 0.46218672E+03</rscale>
<asrwt>0</asrwt>
<pdfrwt beam="1">  1       21 0.84079928E-01 0.46218672E+03</pdfrwt>
<pdfrwt beam="2">  1       21 0.13736142E-01 0.46218672E+03</pdfrwt>
<totfact> 0.51835767E+04</totfact>
</mgrwt>
</event>
<event>
 7    0  0.4725730E-002  0.4577280E+03  0.7546771E-02  0.1025442E+00
         21   -1    0    0  502  501  0.00000000000E+00  0.00000000000E+00  0.45987206029E+02  0.45987206029E+02  0.00000000000E+00 0. -1.
         21   -1    0    0  501  502 -0.00000000000E+00 -0.00000000000E+00 -0.11389849018E+04  0.11389849018E+04  0.00000000000E+00 0. -1.
      99926    2    1    2    0    0  0.14210854715E-13  0.33306690739E-15 -0.10929976958E+04  0.11849721078E+04  0.45772801244E+03 0.  0.
      99925    2    3    3    0    0 -0.11398980315E+03  0.52826917023E+00 -0.73795465777E+03  0.79165668577E+03  0.26296250098E+03 0.  0.
         25    1    4    4    0    0 -0.28243984866E+02 -0.10166032838E+02 -0.41933092247E+03  0.43861942678E+03  0.12509000000E+03 0.  0.
         25    1    3    3    0    0  0.11398980315E+03 -0.52826917023E+00 -0.35504303800E+03  0.39331542205E+03  0.12509000000E+03 0.  0.
         25    1    4    4    0    0 -0.85745818280E+02  0.10694302008E+02 -0.31862373529E+03  0.35303725899E+03  0.12509000000E+03 0.  0.
<mgrwt>
<rscale>  2 0.45772801E+03</rscale>
<asrwt>0</asrwt>
<pdfrwt beam="1">  1       21 0.67628252E-02 0.45772801E+03</pdfrwt>
<pdfrwt beam="2">  1       21 0.16749776E+00 0.45772801E+03</pdfrwt>
<totfact> 0.31951396E+04</totfact>
</mgrwt>
</event>
<event>
 7    0  0.4725730E-002  0.4523838E+03  0.7546771E-02  0.1027014E+00
         21   -1    0    0  502  501  0.00000000000E+00  0.00000000000E+00  0.57260664942E+03  0.57260664942E+03  0.00000000000E+00 0. -1.
         21   -1    0    0  501  502 -0.00000000000E+00 -0.00000000000E+00 -0.89350661040E+02  0.89350661040E+02  0.00000000000E+00 0. -1.
      99926    2    1    2    0    0 -0.26645352591E-14  0.00000000000E+00  0.48325598838E+03  0.66195731046E+03  0.45238383102E+03 0.  0.
      99925    2    3    3    0    0  0.45311398008E+01 -0.97408850801E+02  0.22798413110E+03  0.36142404332E+03  0.26294782678E+03 0.  0.
         25    1    3    3    0    0 -0.45311398008E+01  0.97408850801E+02  0.25527185728E+03  0.30053326715E+03  0.12509000000E+03 0.  0.
         25    1    4    4    0    0 -0.28123517216E+02 -0.63689867164E+02  0.14698633199E+03  0.20518240980E+03  0.12509000000E+03 0.  0.
         25    1    4    4    0    0  0.32654657017E+02 -0.33718983637E+02  0.80997799113E+02  0.15624163352E+03  0.12509000000E+03 0.  0.
<mgrwt>
<rscale>  2 0.45238383E+03</rscale>
<asrwt>0</asrwt>
<pdfrwt beam="1">  1       21 0.84206859E-01 0.45238383E+03</pdfrwt>
<pdfrwt beam="2">  1       21 0.13139803E-01 0.45238383E+03</pdfrwt>
<totfact> 0.56166881E+04</totfact>
</mgrwt>
</event>
<event>
 7    0  0.4725730E-002  0.4581398E+03  0.7546771E-02  0.1025322E+00
         21   -1    0    0  502  501  0.00000000000E+00  0.00000000000E+00  0.17071365884E+04  0.17071365884E+04  0.00000000000E+00 0.  1.
         21   -1    0    0  501  502 -0.00000000000E+00 -0.00000000000E+00 -0.30737448319E+02  0.30737448319E+02  0.00000000000E+00 0.  1.
      99926    2    1    2    0    0  0.00000000000E+00  0.00000000000E+00  0.16763991400E+04  0.17378740367E+04  0.45813981560E+03 0.  0.
      99925    2    3    3    0    0  0.65476189846E+02 -0.71859261999E+02  0.81099149360E+03  0.85808497810E+03  0.26296718804E+03 0.  0.
         25    1    3    3    0    0 -0.65476189846E+02  0.71859261999E+02  0.86540764645E+03  0.87978905859E+03  0.12509000000E+03 0.  0.
         25    1    4    4    0    0 -0.67126211683E+01 -0.38029960851E+02  0.34230770672E+03  0.36648794167E+03  0.12509000000E+03 0.  0.
         25    1    4    4    0    0  0.72188811014E+02 -0.33829301147E+02  0.46868378687E+03  0.49159703643E+03  0.12509000000E+03 0.  0.
<mgrwt>
<rscale>  2 0.45813982E+03</rscale>
<asrwt>0</asrwt>
<pdfrwt beam="1">  1       21 0.25104943E+00 0.45813982E+03</pdfrwt>
<pdfrwt beam="2">  1       21 0.45202141E-02 0.45813982E+03</pdfrwt>
<totfact> 0.18040559E+04</totfact>
</mgrwt>
</event>
<event>
 7    0  0.4725730E-002  0.4513852E+03  0.7546771E-02  0.1027310E+00
         21   -1    0    0  502  501  0.00000000000E+00  0.00000000000E+00  0.38707597939E+03  0.38707597939E+03  0.00000000000E+00 0. -1.
         21   -1    0    0  501  502 -0.00000000000E+00 -0.00000000000E+00 -0.13159469544E+03  0.13159469544E+03  0.00000000000E+00 0. -1.
      99926    2    1    2    0    0  0.00000000000E+00 -0.71054273576E-14  0.25548128396E+03  0.51867067483E+03  0.45138518194E+03 0.  0.
      99925    2    3    3    0    0 -0.72844328146E+02  0.62061215945E+02  0.99357820421E+02  0.29690518014E+03  0.26291218847E+03 0.  0.
         25    1    3    3    0    0  0.72844328146E+02 -0.62061215945E+02  0.15612346354E+03  0.22176549469E+03  0.12509000000E+03 0.  0.
         25    1    4    4    0    0 -0.25580675871E+02  0.28948551765E+02  0.71112563997E+01  0.13111242388E+03  0.12509000000E+03 0.  0.
         25    1    4    4    0    0 -0.47263652275E+02  0.33112664180E+02  0.92246564021E+02  0.16579275626E+03  0.12509000000E+03 0.  0.
<mgrwt>
<rscale>  2 0.45138518E+03</rscale>
<asrwt>0</asrwt>
<pdfrwt beam="1">  1       21 0.56922938E-01 0.45138518E+03</pdfrwt>
<pdfrwt beam="2">  1       21 0.19352161E-01 0.45138518E+03</pdfrwt>
<totfact> 0.65846111E+04</totfact>
</mgrwt>
</event>
<event>
 7    0  0.4725730E-002  0.4556158E+03  0.7546771E-02  0.1026060E+00
         21   -1    0    0  502  501  0.00000000000E+00  0.00000000000E+00  0.19642044299E+03  0.19642044299E+03  0.00000000000E+00 0.  1.
         21   -1    0    0  501  502 -0.00000000000E+00 -0.00000000000E+00 -0.26421099002E+03  0.26421099002E+03  0.00000000000E+00 0.  1.
      99926    2    1    2    0    0 -0.71054273576E-14  0.00000000000E+00 -0.67790547032E+02  0.46063143301E+03  0.45561580175E+03 0.  0.
      99925    2    3    3    0    0 -0.43859030908E+02 -0.10420739685E+03 -0.54512602032E+02  0.29149655170E+03  0.26308899583E+03 0.  0.
         25    1    3    3    0    0  0.43859030908E+02  0.10420739685E+03 -0.13277945000E+02  0.16913488130E+03  0.12509000000E+03 0.  0.
         25    1    4    4    0    0 -0.49433586290E+02 -0.67165653041E+02 -0.57295310042E+02  0.16088867286E+03  0.12509000000E+03 0.  0.
         25    1    4    4    0    0  0.55745553820E+01 -0.37041743807E+02  0.27827080092E+01  0.13060787884E+03  0.12509000000E+03 0.  0.
<mgrwt>
<rscale>  2 0.45561580E+03</rscale>
<asrwt>0</asrwt>
<pdfrwt beam="1">  1       21 0.28885359E-01 0.45561580E+03</pdfrwt>
<pdfrwt beam="2">  1       21 0.38854557E-01 0.45561580E+03</pdfrwt>
<totfact> 0.67801008E+04</totfact>
</mgrwt>
</event>
<event>
 7    0  0.4725730E-002  0.4741287E+03  0.7546771E-02  0.1020761E+00
         21   -1    0    0  502  501  0.00000000000E+00  0.00000000000E+00  0.28764273851E+03  0.28764273851E+03  0.00000000000E+00 0. -1.
         21   -1    0    0  501  502 -0.00000000000E+00 -0.00000000000E+00 -0.19537950320E+03  0.19537950320E+03  0.00000000000E+00 0. -1.
      99926    2    1    2    0    0  0.00000000000E+00 -0.17763568394E-14  0.92263235310E+02  0.48302224171E+03  0.47412865489E+03 0.  0.
      99925    2    3    3    0    0 -0.20383757198E+02 -0.11782560564E+02  0.18767695012E+03  0.32394486630E+03  0.26298918705E+03 0.  0.
         25    1    4    4    0    0  0.66231649863E+01  0.16991079091E+02  0.56582120228E+02  0.13849768053E+03  0.12509000000E+03 0.  0.
         25    1    4    4    0    0 -0.27006922185E+02 -0.28773639655E+02  0.13109482989E+03  0.18544718577E+03  0.12509000000E+03 0.  0.
         25    1    3    3    0    0  0.20383757198E+02  0.11782560564E+02 -0.95413714813E+02  0.15907737540E+03  0.12509000000E+03 0.  0.
<mgrwt>
<rscale>  2 0.47412865E+03</rscale>
<asrwt>0</asrwt>
<pdfrwt beam="1">  1       21 0.42300403E-01 0.47412865E+03</pdfrwt>
<pdfrwt beam="2">  1       21 0.28732280E-01 0.47412865E+03</pdfrwt>
<totfact> 0.57275607E+04</totfact>
</mgrwt>
</event>
<event>
 7    0  0.4725730E-002  0.4857878E+03  0.7546771E-02  0.1017557E+00
         21   -1    0    0  502  501  0.00000000000E+00  0.00000000000E+00  0.59544291900E+03  0.59544291900E+03  0.00000000000E+00 0.  1.
         21   -1    0    0  501  502 -0.00000000000E+00 -0.00000000000E+00 -0.99081619408E+02  0.99081619408E+02  0.00000000000E+00 0.  1.
      99926    2    1    2    0    0 -0.14210854715E-13  0.00000000000E+00  0.49636129959E+03  0.69452453841E+03  0.48578780833E+03 0.  0.
      99925    2    3    3    0    0 -0.11381342309E+03  0.64753119629E+02  0.23326868293E+03  0.37513184153E+03  0.26298889390E+03 0.  0.
         25    1    4    4    0    0 -0.88477884164E+02  0.11009473622E+02  0.10255627315E+03  0.18470203506E+03  0.12509000000E+03 0.  0.
         25    1    4    4    0    0 -0.25335538923E+02  0.53743646008E+02  0.13071240978E+03  0.19042980646E+03  0.12509000000E+03 0.  0.
         25    1    3    3    0    0  0.11381342309E+03 -0.64753119629E+02  0.26309261666E+03  0.31939269688E+03  0.12509000000E+03 0.  0.
<mgrwt>
<rscale>  2 0.48578781E+03</rscale>
<asrwt>0</asrwt>
<pdfrwt beam="1">  1       21 0.87565134E-01 0.48578781E+03</pdfrwt>
<pdfrwt beam="2">  1       21 0.14570827E-01 0.48578781E+03</pdfrwt>
<totfact> 0.42038902E+04</totfact>
</mgrwt>
</event>
<event>
 7    0  0.4725730E-002  0.4285709E+03  0.7546771E-02  0.1034312E+00
         21   -1    0    0  502  501  0.00000000000E+00  0.00000000000E+00  0.14676135378E+03  0.14676135378E+03  0.00000000000E+00 0. -1.
         21   -1    0    0  501  502 -0.00000000000E+00 -0.00000000000E+00 -0.31287707148E+03  0.31287707148E+03  0.00000000000E+00 0. -1.
      99926    2    1    2    0    0  0.00000000000E+00  0.00000000000E+00 -0.16611571770E+03  0.45963842526E+03  0.42857093964E+03 0.  0.
      99925    2    3    3    0    0  0.49329765554E+02  0.34900569438E+02 -0.17274401535E+03  0.32055960607E+03  0.26318527825E+03 0.  0.
         25    1    4    4    0    0  0.48656204489E+02  0.15339006523E+02 -0.49522512553E+02  0.14388432405E+03  0.12509000000E+03 0.  0.
         25    1    4    4    0    0  0.67356106493E+00  0.19561562915E+02 -0.12322150279E+03  0.17667528203E+03  0.12509000000E+03 0.  0.
         25    1    3    3    0    0 -0.49329765554E+02 -0.34900569438E+02  0.66282976495E+01  0.13907881919E+03  0.12509000000E+03 0.  0.
<mgrwt>
<rscale>  2 0.42857094E+03</rscale>
<asrwt>0</asrwt>
<pdfrwt beam="1">  1       21 0.21582552E-01 0.42857094E+03</pdfrwt>
<pdfrwt beam="2">  1       21 0.46011334E-01 0.42857094E+03</pdfrwt>
<totfact> 0.84616606E+04</totfact>
</mgrwt>
</event>
<event>
 7    0  0.4725730E-002  0.4629603E+03  0.7546771E-02  0.1023926E+00
         21   -1    0    0  502  501  0.00000000000E+00  0.00000000000E+00  0.45404438473E+02  0.45404438473E+02  0.00000000000E+00 0. -1.
         21   -1    0    0  501  502 -0.00000000000E+00 -0.00000000000E+00 -0.11801280668E+04  0.11801280668E+04  0.00000000000E+00 0. -1.
      99926    2    1    2    0    0  0.17763568394E-14  0.14210854715E-13 -0.11347236283E+04  0.12255325053E+04  0.46296026698E+03 0.  0.
      99925    2    3    3    0    0 -0.11780128473E+02 -0.11942961512E+03 -0.68357603604E+03  0.74222736096E+03  0.26310274403E+03 0.  0.
         25    1    4    4    0    0 -0.38744127063E+02 -0.38618914843E+02 -0.35956839962E+03  0.38461600340E+03  0.12509000000E+03 0.  0.
         25    1    3    3    0    0  0.11780128473E+02  0.11942961512E+03 -0.45114759230E+03  0.48330514432E+03  0.12509000000E+03 0.  0.
         25    1    4    4    0    0  0.26963998590E+02 -0.80810700272E+02 -0.32400763642E+03  0.35761135756E+03  0.12509000000E+03 0.  0.
<mgrwt>
<rscale>  2 0.46296027E+03</rscale>
<asrwt>0</asrwt>
<pdfrwt beam="1">  1       21 0.66771224E-02 0.46296027E+03</pdfrwt>
<pdfrwt beam="2">  1       21 0.17354827E+00 0.46296027E+03</pdfrwt>
<totfact> 0.29485974E+04</totfact>
</mgrwt>
</event>
<event>
 7    0  0.4725730E-002  0.4564201E+03  0.7546771E-02  0.1025825E+00
         21   -1    0    0  502  501  0.00000000000E+00  0.00000000000E+00  0.16955098003E+04  0.16955098003E+04  0.00000000000E+00 0.  1.
         21   -1    0    0  501  502 -0.00000000000E+00 -0.00000000000E+00 -0.30716319099E+02  0.30716319099E+02  0.00000000000E+00 0.  1.
      99926    2    1    2    0    0 -0.35527136788E-14 -0.14210854715E-13  0.16647934812E+04  0.17262261194E+04  0.45642006995E+03 0.  0.
      99925    2    3    3    0    0 -0.27654989815E+02 -0.96897127107E+02  0.83825962437E+03  0.88422874631E+03  0.26273071051E+03 0.  0.
         25    1    4    4    0    0 -0.11521223822E+02 -0.89020033118E+02  0.49815731899E+03  0.52140725681E+03  0.12509000000E+03 0.  0.
         25    1    4    4    0    0 -0.16133765993E+02 -0.78770939887E+01  0.34010230538E+03  0.36282148950E+03  0.12509000000E+03 0.  0.
         25    1    3    3    0    0  0.27654989815E+02  0.96897127107E+02  0.82653385685E+03  0.84199737311E+03  0.12509000000E+03 0.  0.
<mgrwt>
<rscale>  2 0.45642007E+03</rscale>
<asrwt>0</asrwt>
<pdfrwt beam="1">  1       21 0.24933961E+00 0.45642007E+03</pdfrwt>
<pdfrwt beam="2">  1       21 0.45171069E-02 0.45642007E+03</pdfrwt>
<totfact> 0.18516070E+04</totfact>
</mgrwt>
</event>
<event>
 7    0  0.4725730E-002  0.4518818E+03  0.7546771E-02  0.1027162E+00
         21   -1    0    0  502  501  0.00000000000E+00  0.00000000000E+00  0.54483463408E+03  0.54483463408E+03  0.00000000000E+00 0. -1.
         21   -1    0    0  501  502 -0.00000000000E+00 -0.00000000000E+00 -0.93696832630E+02  0.93696832630E+02  0.00000000000E+00 0. -1.
      99926    2    1    2    0    0  0.00000000000E+00  0.71054273576E-14  0.45113780145E+03  0.63853146671E+03  0.45188175232E+03 0.  0.
      99925    2    3    3    0    0  0.96296562879E+02 -0.50101463914E+02  0.31280980231E+03  0.42274145731E+03  0.26282538424E+03 0.  0.
         25    1    4    4    0    0  0.41039844716E+02 -0.55316048482E+02  0.19792590313E+03  0.24406209313E+03  0.12509000000E+03 0.  0.
         25    1    3    3    0    0 -0.96296562879E+02  0.50101463914E+02  0.13832799914E+03  0.21579000940E+03  0.12509000000E+03 0.  0.
         25    1    4    4    0    0  0.55256718163E+02  0.52145845673E+01  0.11488389918E+03  0.17867936418E+03  0.12509000000E+03 0.  0.
<mgrwt>
<rscale>  2 0.45188175E+03</rscale>
<asrwt>0</asrwt>
<pdfrwt beam="1">  1       21 0.80122739E-01 0.45188175E+03</pdfrwt>
<pdfrwt beam="2">  1       21 0.13778946E-01 0.45188175E+03</pdfrwt>
<totfact> 0.57775766E+04</totfact>
</mgrwt>
</event>
<event>
 7    0  0.4725730E-002  0.4777331E+03  0.7546771E-02  0.1019760E+00
         21   -1    0    0  502  501  0.00000000000E+00  0.00000000000E+00  0.14587722070E+03  0.14587722070E+03  0.00000000000E+00 0.  1.
         21   -1    0    0  501  502 -0.00000000000E+00 -0.00000000000E+00 -0.39113187688E+03  0.39113187688E+03  0.00000000000E+00 0.  1.
      99926    2    1    2    0    0  0.00000000000E+00  0.00000000000E+00 -0.24525465618E+03  0.53700909758E+03  0.47773311012E+03 0.  0.
      99925    2    3    3    0    0 -0.87868359758E+02  0.34358495505E+02 -0.25746313971E+03  0.37985341034E+03  0.26286876989E+03 0.  0.
         25    1    4    4    0    0 -0.78580435149E+02  0.12542129155E+02 -0.10746918169E+03  0.18311013873E+03  0.12509000000E+03 0.  0.
         25    1    3    3    0    0  0.87868359758E+02 -0.34358495505E+02  0.12208483530E+02  0.15715568723E+03  0.12509000000E+03 0.  0.
         25    1    4    4    0    0 -0.92879246089E+01  0.21816366350E+02 -0.14999395802E+03  0.19674327162E+03  0.12509000000E+03 0.  0.
<mgrwt>
<rscale>  2 0.47773311E+03</rscale>
<asrwt>0</asrwt>
<pdfrwt beam="1">  1       21 0.21452533E-01 0.47773311E+03</pdfrwt>
<pdfrwt beam="2">  1       21 0.57519393E-01 0.47773311E+03</pdfrwt>
<totfact> 0.52597080E+04</totfact>
</mgrwt>
</event>
<event>
 7    0  0.4725730E-002  0.4504570E+03  0.7546771E-02  0.1027586E+00
         21   -1    0    0  502  501  0.00000000000E+00  0.00000000000E+00  0.39287449118E+03  0.39287449118E+03  0.00000000000E+00 0. -1.
         21   -1    0    0  501  502 -0.00000000000E+00 -0.00000000000E+00 -0.12911981619E+03  0.12911981619E+03  0.00000000000E+00 0. -1.
      99926    2    1    2    0    0  0.00000000000E+00  0.00000000000E+00  0.26375467500E+03  0.52199430737E+03  0.45045702164E+03 0.  0.
      99925    2    3    3    0    0 -0.64506782198E+02 -0.87282420797E+02  0.15640050600E+03  0.32463227548E+03  0.26295560476E+03 0.  0.
         25    1    3    3    0    0  0.64506782198E+02  0.87282420797E+02  0.10735416900E+03  0.19736203189E+03  0.12509000000E+03 0.  0.
         25    1    4    4    0    0 -0.48200939518E+02 -0.30600948071E+02  0.11776105218E+03  0.18103845477E+03  0.12509000000E+03 0.  0.
         25    1    4    4    0    0 -0.16305842680E+02 -0.56681472726E+02  0.38639453817E+02  0.14359382071E+03  0.12509000000E+03 0.  0.
<mgrwt>
<rscale>  2 0.45045702E+03</rscale>
<asrwt>0</asrwt>
<pdfrwt beam="1">  1       21 0.57775660E-01 0.45045702E+03</pdfrwt>
<pdfrwt beam="2">  1       21 0.18988208E-01 0.45045702E+03</pdfrwt>
<totfact> 0.66100333E+04</totfact>
</mgrwt>
</event>
<event>
 7    0  0.4725730E-002  0.4604524E+03  0.7546771E-02  0.1024650E+00
         21   -1    0    0  502  501  0.00000000000E+00  0.00000000000E+00  0.51141663628E+03  0.51141663628E+03  0.00000000000E+00 0.  1.
         21   -1    0    0  501  502 -0.00000000000E+00 -0.00000000000E+00 -0.10364173105E+03  0.10364173105E+03  0.00000000000E+00 0.  1.
      99926    2    1    2    0    0  0.71054273576E-14  0.00000000000E+00  0.40777490523E+03  0.61505836732E+03  0.46045241000E+03 0.  0.
      99925    2    3    3    0    0  0.56140369497E+02  0.67646859686E+02  0.14979157070E+03  0.31517381002E+03  0.26300033680E+03 0.  0.
         25    1    4    4    0    0  0.57078556194E+02  0.60316168422E+02  0.99658822180E+02  0.18020929690E+03  0.12509000000E+03 0.  0.
         25    1    3    3    0    0 -0.56140369497E+02 -0.67646859686E+02  0.25798333453E+03  0.29988455730E+03  0.12509000000E+03 0.  0.
         25    1    4    4    0    0 -0.93818669609E+00  0.73306912634E+01  0.50132748524E+02  0.13496451313E+03  0.12509000000E+03 0.  0.
<mgrwt>
<rscale>  2 0.46045241E+03</rscale>
<asrwt>0</asrwt>
<pdfrwt beam="1">  1       21 0.75208328E-01 0.46045241E+03</pdfrwt>
<pdfrwt beam="2">  1       21 0.15241431E-01 0.46045241E+03</pdfrwt>
<totfact> 0.55338987E+04</totfact>
</mgrwt>
</event>
<event>
 7    0  0.4725730E-002  0.4674135E+03  0.7546771E-02  0.1022653E+00
         21   -1    0    0  502  501  0.00000000000E+00  0.00000000000E+00  0.39469005929E+02  0.39469005929E+02  0.00000000000E+00 0.  1.
         21   -1    0    0  501  502 -0.00000000000E+00 -0.00000000000E+00 -0.13838416439E+04  0.13838416439E+04  0.00000000000E+00 0.  1.
      99926    2    1    2    0    0  0.14210854715E-13  0.00000000000E+00 -0.13443726380E+04  0.14233106498E+04  0.46741353873E+03 0.  0.
      99925    2    3    3    0    0  0.98000913746E+02  0.57278964541E+02 -0.99247503059E+03  0.10329717035E+04  0.26294256964E+03 0.  0.
         25    1    4    4    0    0  0.80658274580E+02  0.49337606559E+02 -0.47326706594E+03  0.49856712735E+03  0.12509000000E+03 0.  0.
         25    1    3    3    0    0 -0.98000913746E+02 -0.57278964541E+02 -0.35189760738E+03  0.39033894637E+03  0.12509000000E+03 0.  0.
         25    1    4    4    0    0  0.17342639166E+02  0.79413579823E+01 -0.51920796466E+03  0.53440457611E+03  0.12509000000E+03 0.  0.
<mgrwt>
<rscale>  2 0.46741354E+03</rscale>
<asrwt>0</asrwt>
<pdfrwt beam="1">  1       21 0.58042661E-02 0.46741354E+03</pdfrwt>
<pdfrwt beam="2">  1       21 0.20350610E+00 0.46741354E+03</pdfrwt>
<totfact> 0.23379640E+04</totfact>
</mgrwt>
</event>
<event>
 7    0  0.4725730E-002  0.4561568E+03  0.7546771E-02  0.1025902E+00
         21   -1    0    0  502  501  0.00000000000E+00  0.00000000000E+00  0.97249951014E+03  0.97249951014E+03  0.00000000000E+00 0.  1.
         21   -1    0    0  501  502 -0.00000000000E+00 -0.00000000000E+00 -0.53490779819E+02  0.53490779819E+02  0.00000000000E+00 0.  1.
      99926    2    1    2    0    0  0.71054273576E-14  0.00000000000E+00  0.91900873032E+03  0.10259902900E+04  0.45615680274E+03 0.  0.
      99925    2    3    3    0    0 -0.35165618042E+02  0.10433183826E+03  0.51041501585E+03  0.58472156823E+03  0.26316168183E+03 0.  0.
         25    1    3    3    0    0  0.35165618042E+02 -0.10433183826E+03  0.40859371448E+03  0.44126872173E+03  0.12509000000E+03 0.  0.
         25    1    4    4    0    0 -0.32430327761E+02  0.61585736250E+02  0.34092011557E+03  0.36975473272E+03  0.12509000000E+03 0.  0.
         25    1    4    4    0    0 -0.27352902810E+01  0.42746102012E+02  0.16949490028E+03  0.21496683551E+03  0.12509000000E+03 0.  0.
<mgrwt>
<rscale>  2 0.45615680E+03</rscale>
<asrwt>0</asrwt>
<pdfrwt beam="1">  1       21 0.14301462E+00 0.45615680E+03</pdfrwt>
<pdfrwt beam="2">  1       21 0.78662917E-02 0.45615680E+03</pdfrwt>
<totfact> 0.37828102E+04</totfact>
</mgrwt>
</event>
<event>
 7    0  0.4725730E-002  0.4491371E+03  0.7546771E-02  0.1027980E+00
         21   -1    0    0  502  501  0.00000000000E+00  0.00000000000E+00  0.31828229077E+03  0.31828229077E+03  0.00000000000E+00 0. -1.
         21   -1    0    0  501  502 -0.00000000000E+00 -0.00000000000E+00 -0.15844750790E+03  0.15844750790E+03  0.00000000000E+00 0. -1.
      99926    2    1    2    0    0  0.00000000000E+00 -0.35527136788E-14  0.15983478286E+03  0.47672979867E+03  0.44913710950E+03 0.  0.
      99925    2    3    3    0    0  0.71834678946E+01 -0.18540363657E+02 -0.11132273008E+02  0.26395623455E+03  0.26297075685E+03 0.  0.
         25    1    3    3    0    0 -0.71834678946E+01  0.18540363657E+02  0.17096705587E+03  0.21277356412E+03  0.12509000000E+03 0.  0.
         25    1    4    4    0    0  0.84675751313E+01 -0.21401420400E+02 -0.43994570128E+02  0.13458362057E+03  0.12509000000E+03 0.  0.
         25    1    4    4    0    0 -0.12841072367E+01  0.28610567433E+01  0.32862297121E+02  0.12937261398E+03  0.12509000000E+03 0.  0.
<mgrwt>
<rscale>  2 0.44913711E+03</rscale>
<asrwt>0</asrwt>
<pdfrwt beam="1">  1       21 0.46806219E-01 0.44913711E+03</pdfrwt>
<pdfrwt beam="2">  1       21 0.23301104E-01 0.44913711E+03</pdfrwt>
<totfact> 0.70146910E+04</totfact>
</mgrwt>
</event>
<event>
 7    0  0.4725730E-002  0.4655585E+03  0.7546771E-02  0.1023181E+00
         21   -1    0    0  502  501  0.00000000000E+00  0.00000000000E+00  0.70170369404E+03  0.70170369404E+03  0.00000000000E+00 0.  1.
         21   -1    0    0  501  502 -0.00000000000E+00 -0.00000000000E+00 -0.77220875362E+02  0.77220875362E+02  0.00000000000E+00 0.  1.
      99926    2    1    2    0    0  0.00000000000E+00  0.00000000000E+00  0.62448281868E+03  0.77892456940E+03  0.46555847538E+03 0.  0.
      99925    2    3    3    0    0 -0.92921197799E+02  0.79384794616E+02  0.40913551742E+03  0.50151104617E+03  0.26303072671E+03 0.  0.
         25    1    3    3    0    0  0.92921197799E+02 -0.79384794616E+02  0.21534730126E+03  0.27741352324E+03  0.12509000000E+03 0.  0.
         25    1    4    4    0    0 -0.17816403730E+02  0.14487148227E+02  0.14515266367E+03  0.19298731973E+03  0.12509000000E+03 0.  0.
         25    1    4    4    0    0 -0.75104794069E+02  0.64897646389E+02  0.26398285376E+03  0.30852372644E+03  0.12509000000E+03 0.  0.
<mgrwt>
<rscale>  2 0.46555848E+03</rscale>
<asrwt>0</asrwt>
<pdfrwt beam="1">  1       21 0.10319172E+00 0.46555848E+03</pdfrwt>
<pdfrwt beam="2">  1       21 0.11356011E-01 0.46555848E+03</pdfrwt>
<totfact> 0.44957823E+04</totfact>
</mgrwt>
</event>
<event>
 7    0  0.4725730E-002  0.4514216E+03  0.7546771E-02  0.1027299E+00
         21   -1    0    0  502  501  0.00000000000E+00  0.00000000000E+00  0.15864240768E+03  0.15864240768E+03  0.00000000000E+00 0. -1.
         21   -1    0    0  501  502 -0.00000000000E+00 -0.00000000000E+00 -0.32113331666E+03  0.32113331666E+03  0.00000000000E+00 0. -1.
      99926    2    1    2    0    0  0.71054273576E-14  0.00000000000E+00 -0.16249090898E+03  0.47977572434E+03  0.45142158806E+03 0.  0.
      99925    2    3    3    0    0  0.50516879699E+02  0.67813553967E+02 -0.27964537409E+02  0.27754940067E+03  0.26287073102E+03 0.  0.
         25    1    3    3    0    0 -0.50516879699E+02 -0.67813553967E+02 -0.13452637157E+03  0.20222632367E+03  0.12509000000E+03 0.  0.
         25    1    4    4    0    0  0.27746520537E+02  0.53091992628E+02 -0.50468087756E+02  0.14759120931E+03  0.12509000000E+03 0.  0.
         25    1    4    4    0    0  0.22770359162E+02  0.14721561339E+02  0.22503550346E+02  0.12995819136E+03  0.12509000000E+03 0.  0.
<mgrwt>
<rscale>  2 0.45142159E+03</rscale>
<asrwt>0</asrwt>
<pdfrwt beam="1">  1       21 0.23329766E-01 0.45142159E+03</pdfrwt>
<pdfrwt beam="2">  1       21 0.47225487E-01 0.45142159E+03</pdfrwt>
<totfact> 0.68645678E+04</totfact>
</mgrwt>
</event>
<event>
 7    0  0.4725730E-002  0.4517941E+03  0.7546771E-02  0.1027188E+00
         21   -1    0    0  502  501  0.00000000000E+00  0.00000000000E+00  0.12639908002E+04  0.12639908002E+04  0.00000000000E+00 0.  1.
         21   -1    0    0  501  502 -0.00000000000E+00 -0.00000000000E+00 -0.40371708682E+02  0.40371708682E+02  0.00000000000E+00 0.  1.
      99926    2    1    2    0    0  0.00000000000E+00  0.00000000000E+00  0.12236190916E+04  0.13043625089E+04  0.45179406089E+03 0.  0.
      99925    2    3    3    0    0 -0.46609320547E+02  0.79874083843E+02  0.94569995075E+03  0.98586783870E+03  0.26274455371E+03 0.  0.
         25    1    3    3    0    0  0.46609320547E+02 -0.79874083843E+02  0.27791914082E+03  0.31849467023E+03  0.12509000000E+03 0.  0.
         25    1    4    4    0    0 -0.39532287869E+02  0.79114705239E+02  0.51049372135E+03  0.53298525871E+03  0.12509000000E+03 0.  0.
         25    1    4    4    0    0 -0.70770326775E+01  0.75937860463E+00  0.43520622940E+03  0.45288257999E+03  0.12509000000E+03 0.  0.
<mgrwt>
<rscale>  2 0.45179406E+03</rscale>
<asrwt>0</asrwt>
<pdfrwt beam="1">  1       21 0.18588097E+00 0.45179406E+03</pdfrwt>
<pdfrwt beam="2">  1       21 0.59370168E-02 0.45179406E+03</pdfrwt>
<totfact> 0.29722413E+04</totfact>
</mgrwt>
</event>
<event>
 7    0  0.4725730E-002  0.4617751E+03  0.7546771E-02  0.1024268E+00
         21   -1    0    0  502  501  0.00000000000E+00  0.00000000000E+00  0.96820037503E+02  0.96820037503E+02  0.00000000000E+00 0.  1.
         21   -1    0    0  501  502 -0.00000000000E+00 -0.00000000000E+00 -0.55059953818E+03  0.55059953818E+03  0.00000000000E+00 0.  1.
      99926    2    1    2    0    0  0.00000000000E+00 -0.35527136788E-14 -0.45377950068E+03  0.64741957568E+03  0.46177513114E+03 0.  0.
      99925    2    3    3    0    0  0.11549333999E+03 -0.24996756497E+02 -0.30803533111E+03  0.42191476314E+03  0.26298812279E+03 0.  0.
         25    1    3    3    0    0 -0.11549333999E+03  0.24996756497E+02 -0.14574416957E+03  0.22550481254E+03  0.12509000000E+03 0.  0.
         25    1    4    4    0    0  0.33286975468E+02 -0.42051012448E+02 -0.12438991053E+03  0.18438185465E+03  0.12509000000E+03 0.  0.
         25    1    4    4    0    0  0.82206364522E+02  0.17054255951E+02 -0.18364542058E+03  0.23753290849E+03  0.12509000000E+03 0.  0.
<mgrwt>
<rscale>  2 0.46177513E+03</rscale>
<asrwt>0</asrwt>
<pdfrwt beam="1">  1       21 0.14238241E-01 0.46177513E+03</pdfrwt>
<pdfrwt beam="2">  1       21 0.80970521E-01 0.46177513E+03</pdfrwt>
<totfact> 0.52961949E+04</totfact>
</mgrwt>
</event>
<event>
 7    0  0.4725730E-002  0.4566698E+03  0.7546771E-02  0.1025752E+00
         21   -1    0    0  502  501  0.00000000000E+00  0.00000000000E+00  0.93726858185E+02  0.93726858185E+02  0.00000000000E+00 0.  1.
         21   -1    0    0  501  502 -0.00000000000E+00 -0.00000000000E+00 -0.55626336023E+03  0.55626336023E+03  0.00000000000E+00 0.  1.
      99926    2    1    2    0    0  0.00000000000E+00  0.00000000000E+00 -0.46253650205E+03  0.64999021842E+03  0.45666975848E+03 0.  0.
      99925    2    3    3    0    0  0.85458527545E+02 -0.42642674179E+02 -0.20011557459E+03  0.34399379874E+03  0.26299036633E+03 0.  0.
         25    1    4    4    0    0  0.58692881226E+00 -0.17931996598E+02 -0.97782183872E+02  0.15978349280E+03  0.12509000000E+03 0.  0.
         25    1    4    4    0    0  0.84871598733E+02 -0.24710677582E+02 -0.10233339072E+03  0.18421030594E+03  0.12509000000E+03 0.  0.
         25    1    3    3    0    0 -0.85458527545E+02  0.42642674179E+02 -0.26242092745E+03  0.30599641968E+03  0.12509000000E+03 0.  0.
<mgrwt>
<rscale>  2 0.45666976E+03</rscale>
<asrwt>0</asrwt>
<pdfrwt beam="1">  1       21 0.13783361E-01 0.45666976E+03</pdfrwt>
<pdfrwt beam="2">  1       21 0.81803436E-01 0.45666976E+03</pdfrwt>
<totfact> 0.54974298E+04</totfact>
</mgrwt>
</event>
<event>
 7    0  0.4725730E-002  0.4374854E+03  0.7546771E-02  0.1031521E+00
         21   -1    0    0  502  501  0.00000000000E+00  0.00000000000E+00  0.36961281071E+02  0.36961281071E+02  0.00000000000E+00 0.  1.
         21   -1    0    0  501  502 -0.00000000000E+00 -0.00000000000E+00 -0.12945539605E+04  0.12945539605E+04  0.00000000000E+00 0.  1.
      99926    2    1    2    0    0  0.00000000000E+00 -0.17763568394E-14 -0.12575926794E+04  0.13315152416E+04  0.43748541825E+03 0.  0.
      99925    2    3    3    0    0  0.86189666918E+02 -0.14526849542E+02 -0.68486175150E+03  0.73880290666E+03  0.26297229548E+03 0.  0.
         25    1    3    3    0    0 -0.86189666918E+02  0.14526849542E+02 -0.57273092793E+03  0.59271233490E+03  0.12509000000E+03 0.  0.
         25    1    4    4    0    0  0.37853766348E+02 -0.28750546138E+02 -0.43168136635E+03  0.45194669120E+03  0.12509000000E+03 0.  0.
         25    1    4    4    0    0  0.48335900571E+02  0.14223696596E+02 -0.25318038514E+03  0.28685621546E+03  0.12509000000E+03 0.  0.
<mgrwt>
<rscale>  2 0.43748542E+03</rscale>
<asrwt>0</asrwt>
<pdfrwt beam="1">  1       21 0.54354834E-02 0.43748542E+03</pdfrwt>
<pdfrwt beam="2">  1       21 0.19037555E+00 0.43748542E+03</pdfrwt>
<totfact> 0.32406719E+04</totfact>
</mgrwt>
</event>
<event>
 7    0  0.4725730E-002  0.4616929E+03  0.7546771E-02  0.1024291E+00
         21   -1    0    0  502  501  0.00000000000E+00  0.00000000000E+00  0.27259122369E+03  0.27259122369E+03  0.00000000000E+00 0.  1.
         21   -1    0    0  501  502 -0.00000000000E+00 -0.00000000000E+00 -0.19549447773E+03  0.19549447773E+03  0.00000000000E+00 0.  1.
      99926    2    1    2    0    0 -0.17763568394E-14  0.71054273576E-14  0.77096745962E+02  0.46808570142E+03  0.46169288021E+03 0.  0.
      99925    2    3    3    0    0 -0.11413038275E+02 -0.40848573798E+02  0.16146341738E+03  0.31135629521E+03  0.26281827180E+03 0.  0.
         25    1    3    3    0    0  0.11413038275E+02  0.40848573798E+02 -0.84366671414E+02  0.15672940621E+03  0.12509000000E+03 0.  0.
         25    1    4    4    0    0  0.30918304128E+02 -0.12497166003E+02  0.61521806769E+02  0.14333374165E+03  0.12509000000E+03 0.  0.
         25    1    4    4    0    0 -0.42331342403E+02 -0.28351407795E+02  0.99941610607E+02  0.16802255356E+03  0.12509000000E+03 0.  0.
<mgrwt>
<rscale>  2 0.46169288E+03</rscale>
<asrwt>0</asrwt>
<pdfrwt beam="1">  1       21 0.40086945E-01 0.46169288E+03</pdfrwt>
<pdfrwt beam="2">  1       21 0.28749188E-01 0.46169288E+03</pdfrwt>
<totfact> 0.64102646E+04</totfact>
</mgrwt>
</event>
<event>
 7    0  0.4725730E-002  0.4529963E+03  0.7546771E-02  0.1026832E+00
         21   -1    0    0  502  501  0.00000000000E+00  0.00000000000E+00  0.44002527652E+03  0.44002527652E+03  0.00000000000E+00 0. -1.
         21   -1    0    0  501  502 -0.00000000000E+00 -0.00000000000E+00 -0.11658740421E+03  0.11658740421E+03  0.00000000000E+00 0. -1.
      99926    2    1    2    0    0  0.00000000000E+00  0.00000000000E+00  0.32343787231E+03  0.55661268074E+03  0.45299626832E+03 0.  0.
      99925    2    3    3    0    0  0.65719324266E+02 -0.89388428076E+02  0.21405704579E+03  0.35681029345E+03  0.26302822283E+03 0.  0.
         25    1    3    3    0    0 -0.65719324266E+02  0.89388428076E+02  0.10938082652E+03  0.19980238729E+03  0.12509000000E+03 0.  0.
         25    1    4    4    0    0  0.48299695504E+01 -0.68861710183E+02  0.86950772222E+02  0.16725193160E+03  0.12509000000E+03 0.  0.
         25    1    4    4    0    0  0.60889354716E+02 -0.20526717893E+02  0.12710627357E+03  0.18955836185E+03  0.12509000000E+03 0.  0.
<mgrwt>
<rscale>  2 0.45299627E+03</rscale>
<asrwt>0</asrwt>
<pdfrwt beam="1">  1       21 0.64709599E-01 0.45299627E+03</pdfrwt>
<pdfrwt beam="2">  1       21 0.17145207E-01 0.45299627E+03</pdfrwt>
<totfact> 0.62415093E+04</totfact>
</mgrwt>
</event>
<event>
 7    0  0.4725730E-002  0.4585388E+03  0.7546771E-02  0.1025206E+00
         21   -1    0    0  502  501  0.00000000000E+00  0.00000000000E+00  0.44921080301E+03  0.44921080301E+03  0.00000000000E+00 0. -1.
         21   -1    0    0  501  502 -0.00000000000E+00 -0.00000000000E+00 -0.11701511798E+03  0.11701511798E+03  0.00000000000E+00 0. -1.
      99926    2    1    2    0    0  0.00000000000E+00  0.00000000000E+00  0.33219568503E+03  0.56622592099E+03  0.45853878838E+03 0.  0.
      99925    2    3    3    0    0  0.93123666106E+02 -0.45561429030E+02  0.14268668892E+03  0.31660815578E+03  0.26293225763E+03 0.  0.
         25    1    4    4    0    0  0.46339876031E+02  0.13205477417E+02  0.90078811018E+02  0.16150377407E+03  0.12509000000E+03 0.  0.
         25    1    4    4    0    0  0.46783790075E+02 -0.58766906446E+02  0.52607877902E+02  0.15510438171E+03  0.12509000000E+03 0.  0.
         25    1    3    3    0    0 -0.93123666106E+02  0.45561429030E+02  0.18950899611E+03  0.24961776522E+03  0.12509000000E+03 0.  0.
<mgrwt>
<rscale>  2 0.45853879E+03</rscale>
<asrwt>0</asrwt>
<pdfrwt beam="1">  1       21 0.66060411E-01 0.45853879E+03</pdfrwt>
<pdfrwt beam="2">  1       21 0.17208106E-01 0.45853879E+03</pdfrwt>
<totfact> 0.59134391E+04</totfact>
</mgrwt>
</event>
<event>
 7    0  0.4725730E-002  0.4516977E+03  0.7546771E-02  0.1027217E+00
         21   -1    0    0  502  501  0.00000000000E+00  0.00000000000E+00  0.13154446635E+03  0.13154446635E+03  0.00000000000E+00 0.  1.
         21   -1    0    0  501  502 -0.00000000000E+00 -0.00000000000E+00 -0.38776009034E+03  0.38776009034E+03  0.00000000000E+00 0.  1.
      99926    2    1    2    0    0 -0.14210854715E-13  0.00000000000E+00 -0.25621562399E+03  0.51930455670E+03  0.45169766064E+03 0.  0.
      99925    2    3    3    0    0  0.80826388486E+02 -0.56334335753E+02 -0.10507714005E+03  0.29976683354E+03  0.26289253826E+03 0.  0.
         25    1    4    4    0    0  0.75762222957E+02 -0.49356583539E+02 -0.70584242895E+02  0.16972221484E+03  0.12509000000E+03 0.  0.
         25    1    3    3    0    0 -0.80826388486E+02  0.56334335753E+02 -0.15113848394E+03  0.21953772315E+03  0.12509000000E+03 0.  0.
         25    1    4    4    0    0  0.50641655293E+01 -0.69777522136E+01 -0.34492897153E+02  0.13004461870E+03  0.12509000000E+03 0.  0.
<mgrwt>
<rscale>  2 0.45169766E+03</rscale>
<asrwt>0</asrwt>
<pdfrwt beam="1">  1       21 0.19344774E-01 0.45169766E+03</pdfrwt>
<pdfrwt beam="2">  1       21 0.57023543E-01 0.45169766E+03</pdfrwt>
<totfact> 0.65637509E+04</totfact>
</mgrwt>
</event>
<event>
 7    0  0.4725730E-002  0.4532588E+03  0.7546771E-02  0.1026755E+00
         21   -1    0    0  502  501  0.00000000000E+00  0.00000000000E+00  0.12268047652E+03  0.12268047652E+03  0.00000000000E+00 0.  1.
         21   -1    0    0  501  502 -0.00000000000E+00 -0.00000000000E+00 -0.41865566778E+03  0.41865566778E+03  0.00000000000E+00 0.  1.
      99926    2    1    2    0    0  0.14210854715E-13  0.71054273576E-14 -0.29597519125E+03  0.54133614430E+03  0.45325876416E+03 0.  0.
      99925    2    3    3    0    0  0.99162755782E+02  0.26037178977E+02 -0.13202016897E+03  0.31103211860E+03  0.26229843111E+03 0.  0.
         25    1    3    3    0    0 -0.99162755782E+02 -0.26037178977E+02 -0.16395502228E+03  0.23030402570E+03  0.12509000000E+03 0.  0.
         25    1    4    4    0    0  0.21776492587E+02 -0.17518192656E+02 -0.57367847684E+02  0.14042678075E+03  0.12509000000E+03 0.  0.
         25    1    4    4    0    0  0.77386263195E+02  0.43555371633E+02 -0.74652321291E+02  0.17060533785E+03  0.12509000000E+03 0.  0.
<mgrwt>
<rscale>  2 0.45325876E+03</rscale>
<asrwt>0</asrwt>
<pdfrwt beam="1">  1       21 0.18041247E-01 0.45325876E+03</pdfrwt>
<pdfrwt beam="2">  1       21 0.61567009E-01 0.45325876E+03</pdfrwt>
<totfact> 0.63310571E+04</totfact>
</mgrwt>
</event>
<event>
 7    0  0.4725730E-002  0.4525916E+03  0.7546771E-02  0.1026952E+00
         21   -1    0    0  502  501  0.00000000000E+00  0.00000000000E+00  0.12418078907E+03  0.12418078907E+03  0.00000000000E+00 0.  1.
         21   -1    0    0  501  502 -0.00000000000E+00 -0.00000000000E+00 -0.41238083926E+03  0.41238083926E+03  0.00000000000E+00 0.  1.
      99926    2    1    2    0    0  0.00000000000E+00  0.71054273576E-14 -0.28820005020E+03  0.53656162833E+03  0.45259155103E+03 0.  0.
      99925    2    3    3    0    0  0.10356936874E+02 -0.63114522351E+02 -0.74293581737E+02  0.28064329288E+03  0.26296466013E+03 0.  0.
         25    1    4    4    0    0  0.23071722284E+02 -0.32030150222E+02 -0.75045772083E+02  0.15112117952E+03  0.12509000000E+03 0.  0.
         25    1    3    3    0    0 -0.10356936874E+02  0.63114522351E+02 -0.21390646846E+03  0.25591833545E+03  0.12509000000E+03 0.  0.
         25    1    4    4    0    0 -0.12714785409E+02 -0.31084372129E+02  0.75219034577E+00  0.12952211336E+03  0.12509000000E+03 0.  0.
<mgrwt>
<rscale>  2 0.45259155E+03</rscale>
<asrwt>0</asrwt>
<pdfrwt beam="1">  1       21 0.18261881E-01 0.45259155E+03</pdfrwt>
<pdfrwt beam="2">  1       21 0.60644241E-01 0.45259155E+03</pdfrwt>
<totfact> 0.63974133E+04</totfact>
</mgrwt>
</event>
<event>
 7    0  0.4725730E-002  0.4615840E+03  0.7546771E-02  0.1024323E+00
         21   -1    0    0  502  501  0.00000000000E+00  0.00000000000E+00  0.29981024771E+03  0.29981024771E+03  0.00000000000E+00 0.  1.
         21   -1    0    0  501  502 -0.00000000000E+00 -0.00000000000E+00 -0.17766217923E+03  0.17766217923E+03  0.00000000000E+00 0.  1.
      99926    2    1    2    0    0  0.00000000000E+00  0.00000000000E+00  0.12214806848E+03  0.47747242694E+03  0.46158397704E+03 0.  0.
      99925    2    3    3    0    0  0.13773407302E+02  0.41321084848E+02  0.19132018760E+03  0.32804207874E+03  0.26288981045E+03 0.  0.
         25    1    3    3    0    0 -0.13773407302E+02 -0.41321084848E+02 -0.69172119117E+02  0.14943034821E+03  0.12509000000E+03 0.  0.
         25    1    4    4    0    0 -0.19719002231E+02  0.28235201588E+02  0.59308646723E+02  0.14265724424E+03  0.12509000000E+03 0.  0.
         25    1    4    4    0    0  0.33492409533E+02  0.13085883259E+02  0.13201154088E+03  0.18538483450E+03  0.12509000000E+03 0.  0.
<mgrwt>
<rscale>  2 0.46158398E+03</rscale>
<asrwt>0</asrwt>
<pdfrwt beam="1">  1       21 0.44089742E-01 0.46158398E+03</pdfrwt>
<pdfrwt beam="2">  1       21 0.26126791E-01 0.46158398E+03</pdfrwt>
<totfact> 0.63501534E+04</totfact>
</mgrwt>
</event>
<event>
 7    0  0.4725730E-002  0.4580537E+03  0.7546771E-02  0.1025347E+00
         21   -1    0    0  502  501  0.00000000000E+00  0.00000000000E+00  0.70303694069E+02  0.70303694069E+02  0.00000000000E+00 0.  1.
         21   -1    0    0  501  502 -0.00000000000E+00 -0.00000000000E+00 -0.74609585351E+03  0.74609585351E+03  0.00000000000E+00 0.  1.
      99926    2    1    2    0    0  0.00000000000E+00  0.00000000000E+00 -0.67579215944E+03  0.81639954758E+03  0.45805368520E+03 0.  0.
      99925    2    3    3    0    0 -0.42270546789E+02 -0.10792227447E+03 -0.43659993881E+03  0.52264038949E+03  0.26286774945E+03 0.  0.
         25    1    3    3    0    0  0.42270546789E+02  0.10792227447E+03 -0.23919222063E+03  0.29375915809E+03  0.12509000000E+03 0.  0.
         25    1    4    4    0    0 -0.25090870627E+02 -0.15813102904E+02 -0.16359214467E+03  0.20806129844E+03  0.12509000000E+03 0.  0.
         25    1    4    4    0    0 -0.17179676161E+02 -0.92109171568E+02 -0.27300779414E+03  0.31457909104E+03  0.12509000000E+03 0.  0.
<mgrwt>
<rscale>  2 0.45805369E+03</rscale>
<asrwt>0</asrwt>
<pdfrwt beam="1">  1       21 0.10338778E-01 0.45805369E+03</pdfrwt>
<pdfrwt beam="2">  1       21 0.10971998E+00 0.45805369E+03</pdfrwt>
<totfact> 0.45872682E+04</totfact>
</mgrwt>
</event>
<event>
 7    0  0.4725730E-002  0.4567837E+03  0.7546771E-02  0.1025718E+00
         21   -1    0    0  502  501  0.00000000000E+00  0.00000000000E+00  0.34687011482E+03  0.34687011482E+03  0.00000000000E+00 0. -1.
         21   -1    0    0  501  502 -0.00000000000E+00 -0.00000000000E+00 -0.15038144151E+03  0.15038144151E+03  0.00000000000E+00 0. -1.
      99926    2    1    2    0    0  0.00000000000E+00  0.00000000000E+00  0.19648867330E+03  0.49725155633E+03  0.45678365945E+03 0.  0.
      99925    2    3    3    0    0 -0.90249979210E+02  0.51722070301E+02  0.17636532146E+03  0.33332264279E+03  0.26301906068E+03 0.  0.
         25    1    4    4    0    0 -0.86318756493E+02  0.16980703477E+02  0.97775510286E+02  0.18151261809E+03  0.12509000000E+03 0.  0.
         25    1    4    4    0    0 -0.39312227171E+01  0.34741366825E+02  0.78589811177E+02  0.15181002471E+03  0.12509000000E+03 0.  0.
         25    1    3    3    0    0  0.90249979210E+02 -0.51722070301E+02  0.20123351842E+02  0.16392891354E+03  0.12509000000E+03 0.  0.
<mgrwt>
<rscale>  2 0.45678366E+03</rscale>
<asrwt>0</asrwt>
<pdfrwt beam="1">  1       21 0.51010311E-01 0.45678366E+03</pdfrwt>
<pdfrwt beam="2">  1       21 0.22114918E-01 0.45678366E+03</pdfrwt>
<totfact> 0.64545397E+04</totfact>
</mgrwt>
</event>
<event>
 7    0  0.4725730E-002  0.4251872E+03  0.7546771E-02  0.1035391E+00
         21   -1    0    0  502  501  0.00000000000E+00  0.00000000000E+00  0.82545483927E+02  0.82545483927E+02  0.00000000000E+00 0.  1.
         21   -1    0    0  501  502 -0.00000000000E+00 -0.00000000000E+00 -0.54752878485E+03  0.54752878485E+03  0.00000000000E+00 0.  1.
      99926    2    1    2    0    0  0.17763568394E-14 -0.35527136788E-14 -0.46498330092E+03  0.63007426878E+03  0.42518715178E+03 0.  0.
      99925    2    3    3    0    0  0.14518288078E+02  0.27615202094E+02 -0.18876392603E+03  0.32524967784E+03  0.26302500468E+03 0.  0.
         25    1    3    3    0    0 -0.14518288078E+02 -0.27615202094E+02 -0.27621937489E+03  0.30482459094E+03  0.12509000000E+03 0.  0.
         25    1    4    4    0    0 -0.14179846738E+02 -0.20390276545E+02 -0.83104472999E+02  0.15221922666E+03  0.12509000000E+03 0.  0.
         25    1    4    4    0    0  0.28698134817E+02  0.48005478639E+02 -0.10565945303E+03  0.17303045118E+03  0.12509000000E+03 0.  0.
<mgrwt>
<rscale>  2 0.42518715E+03</rscale>
<asrwt>0</asrwt>
<pdfrwt beam="1">  1       21 0.12139042E-01 0.42518715E+03</pdfrwt>
<pdfrwt beam="2">  1       21 0.80518937E-01 0.42518715E+03</pdfrwt>
<totfact> 0.72463734E+04</totfact>
</mgrwt>
</event>
<event>
 7    0  0.4725730E-002  0.4672766E+03  0.7546771E-02  0.1022692E+00
         21   -1    0    0  502  501  0.00000000000E+00  0.00000000000E+00  0.40228061056E+03  0.40228061056E+03  0.00000000000E+00 0. -1.
         21   -1    0    0  501  502 -0.00000000000E+00 -0.00000000000E+00 -0.13569349295E+03  0.13569349295E+03  0.00000000000E+00 0. -1.
      99926    2    1    2    0    0 -0.14210854715E-13 -0.14210854715E-13  0.26658711761E+03  0.53797410351E+03  0.46727662554E+03 0.  0.
      99925    2    3    3    0    0  0.96978202576E+02  0.69777816993E+02  0.20582280106E+03  0.35463418482E+03  0.26292330458E+03 0.  0.
         25    1    3    3    0    0 -0.96978202576E+02 -0.69777816993E+02  0.60764316557E+02  0.18333991869E+03  0.12509000000E+03 0.  0.
         25    1    4    4    0    0  0.20199133186E+02  0.34703539948E+02  0.13346463447E+03  0.18727695379E+03  0.12509000000E+03 0.  0.
         25    1    4    4    0    0  0.76779069390E+02  0.35074277046E+02  0.72358166584E+02  0.16735723103E+03  0.12509000000E+03 0.  0.
<mgrwt>
<rscale>  2 0.46727663E+03</rscale>
<asrwt>0</asrwt>
<pdfrwt beam="1">  1       21 0.59158913E-01 0.46727663E+03</pdfrwt>
<pdfrwt beam="2">  1       21 0.19954926E-01 0.46727663E+03</pdfrwt>
<totfact> 0.56925896E+04</totfact>
</mgrwt>
</event>
<event>
 7    0  0.4725730E-002  0.4511443E+03  0.7546771E-02  0.1027381E+00
         21   -1    0    0  502  501  0.00000000000E+00  0.00000000000E+00  0.13749410763E+04  0.13749410763E+04  0.00000000000E+00 0. -1.
         21   -1    0    0  501  502 -0.00000000000E+00 -0.00000000000E+00 -0.37007249027E+02  0.37007249027E+02  0.00000000000E+00 0. -1.
      99926    2    1    2    0    0  0.14210854715E-13  0.71054273576E-14  0.13379338273E+04  0.14119483253E+04  0.45114426432E+03 0.  0.
      99925    2    3    3    0    0  0.95853304551E+02  0.50994457287E+02  0.88934647624E+03  0.93375755767E+03  0.26301659840E+03 0.  0.
         25    1    4    4    0    0  0.44682334483E+02  0.13572236786E+02  0.30728698116E+03  0.33504255479E+03  0.12509000000E+03 0.  0.
         25    1    4    4    0    0  0.51170970068E+02  0.37422220501E+02  0.58205949508E+03  0.59871500288E+03  0.12509000000E+03 0.  0.
         25    1    3    3    0    0 -0.95853304551E+02 -0.50994457287E+02  0.44858735102E+03  0.47819076765E+03  0.12509000000E+03 0.  0.
<mgrwt>
<rscale>  2 0.45114426E+03</rscale>
<asrwt>0</asrwt>
<pdfrwt beam="1">  1       21 0.20219718E+00 0.45114426E+03</pdfrwt>
<pdfrwt beam="2">  1       21 0.54422434E-02 0.45114426E+03</pdfrwt>
<totfact> 0.26809668E+04</totfact>
</mgrwt>
</event>
<event>
 7    0  0.4725730E-002  0.4538996E+03  0.7546771E-02  0.1026565E+00
         21   -1    0    0  502  501  0.00000000000E+00  0.00000000000E+00  0.50270772484E+02  0.50270772484E+02  0.00000000000E+00 0. -1.
         21   -1    0    0  501  502 -0.00000000000E+00 -0.00000000000E+00 -0.10245758106E+04  0.10245758106E+04  0.00000000000E+00 0. -1.
      99926    2    1    2    0    0  0.00000000000E+00  0.00000000000E+00 -0.97430503812E+03  0.10748465831E+04  0.45389962532E+03 0.  0.
      99925    2    3    3    0    0  0.40003843337E+02  0.42779552511E+02 -0.84008769889E+03  0.88225322950E+03  0.26304566438E+03 0.  0.
         25    1    4    4    0    0  0.37644178584E+02  0.30508291192E+02 -0.54952212396E+03  0.56565883078E+03  0.12509000000E+03 0.  0.
         25    1    4    4    0    0  0.23596647525E+01  0.12271261318E+02 -0.29056557493E+03  0.31659439873E+03  0.12509000000E+03 0.  0.
         25    1    3    3    0    0 -0.40003843337E+02 -0.42779552511E+02 -0.13421733924E+03  0.19259335359E+03  0.12509000000E+03 0.  0.
<mgrwt>
<rscale>  2 0.45389963E+03</rscale>
<asrwt>0</asrwt>
<pdfrwt beam="1">  1       21 0.73927609E-02 0.45389963E+03</pdfrwt>
<pdfrwt beam="2">  1       21 0.15067291E+00 0.45389963E+03</pdfrwt>
<totfact> 0.36692749E+04</totfact>
</mgrwt>
</event>
<event>
 7    0  0.4725730E-002  0.4494851E+03  0.7546771E-02  0.1027876E+00
         21   -1    0    0  502  501  0.00000000000E+00  0.00000000000E+00  0.11072621607E+03  0.11072621607E+03  0.00000000000E+00 0.  1.
         21   -1    0    0  501  502 -0.00000000000E+00 -0.00000000000E+00 -0.45616305819E+03  0.45616305819E+03  0.00000000000E+00 0.  1.
      99926    2    1    2    0    0  0.00000000000E+00  0.00000000000E+00 -0.34543684212E+03  0.56688927426E+03  0.44948508026E+03 0.  0.
      99925    2    3    3    0    0  0.88767229915E+02 -0.56149219893E+02 -0.24925382223E+03  0.37733443413E+03  0.26309969837E+03 0.  0.
         25    1    4    4    0    0  0.77594112638E+02 -0.46186420615E+02 -0.16432848008E+03  0.22540050850E+03  0.12509000000E+03 0.  0.
         25    1    4    4    0    0  0.11173117277E+02 -0.99627992779E+01 -0.84925342149E+02  0.15193392563E+03  0.12509000000E+03 0.  0.
         25    1    3    3    0    0 -0.88767229915E+02  0.56149219893E+02 -0.96183019889E+02  0.18955484013E+03  0.12509000000E+03 0.  0.
<mgrwt>
<rscale>  2 0.44948508E+03</rscale>
<asrwt>0</asrwt>
<pdfrwt beam="1">  1       21 0.16283267E-01 0.44948508E+03</pdfrwt>
<pdfrwt beam="2">  1       21 0.67082802E-01 0.44948508E+03</pdfrwt>
<totfact> 0.63488050E+04</totfact>
</mgrwt>
</event>
<event>
 7    0  0.4725730E-002  0.4554235E+03  0.7546771E-02  0.1026117E+00
         21   -1    0    0  502  501  0.00000000000E+00  0.00000000000E+00  0.12421935316E+03  0.12421935316E+03  0.00000000000E+00 0.  1.
         21   -1    0    0  501  502 -0.00000000000E+00 -0.00000000000E+00 -0.41742798161E+03  0.41742798161E+03  0.00000000000E+00 0.  1.
      99926    2    1    2    0    0 -0.71054273576E-14 -0.35527136788E-14 -0.29320862845E+03  0.54164733476E+03  0.45542346828E+03 0.  0.
      99925    2    3    3    0    0  0.56474746956E+02  0.22180226282E+02 -0.69661185598E+02  0.27839398381E+03  0.26261982020E+03 0.  0.
         25    1    4    4    0    0  0.11275229975E+02  0.32514656834E+02 -0.64502865876E+02  0.14488775492E+03  0.12509000000E+03 0.  0.
         25    1    4    4    0    0  0.45199516981E+02 -0.10334430552E+02 -0.51583197215E+01  0.13350622889E+03  0.12509000000E+03 0.  0.
         25    1    3    3    0    0 -0.56474746956E+02 -0.22180226282E+02 -0.22354744285E+03  0.26325335095E+03  0.12509000000E+03 0.  0.
<mgrwt>
<rscale>  2 0.45542347E+03</rscale>
<asrwt>0</asrwt>
<pdfrwt beam="1">  1       21 0.18267552E-01 0.45542347E+03</pdfrwt>
<pdfrwt beam="2">  1       21 0.61386469E-01 0.45542347E+03</pdfrwt>
<totfact> 0.62213112E+04</totfact>
</mgrwt>
</event>
<event>
 7    0  0.4725730E-002  0.4564727E+03  0.7546771E-02  0.1025809E+00
         21   -1    0    0  502  501  0.00000000000E+00  0.00000000000E+00  0.36735034030E+03  0.36735034030E+03  0.00000000000E+00 0.  1.
         21   -1    0    0  501  502 -0.00000000000E+00 -0.00000000000E+00 -0.14180419709E+03  0.14180419709E+03  0.00000000000E+00 0.  1.
      99926    2    1    2    0    0  0.00000000000E+00  0.17763568394E-14  0.22554614321E+03  0.50915453739E+03  0.45647265003E+03 0.  0.
      99925    2    3    3    0    0 -0.83432107718E+02  0.67629263097E+01  0.54032345035E+02  0.28096351032E+03  0.26270581655E+03 0.  0.
         25    1    3    3    0    0  0.83432107718E+02 -0.67629263097E+01  0.17151379818E+03  0.22819102707E+03  0.12509000000E+03 0.  0.
         25    1    4    4    0    0 -0.26385258643E+02 -0.33410938726E+02  0.18864867492E+02  0.13347608035E+03  0.12509000000E+03 0.  0.
         25    1    4    4    0    0 -0.57046849075E+02  0.40173865036E+02  0.35167477543E+02  0.14748742997E+03  0.12509000000E+03 0.  0.
<mgrwt>
<rscale>  2 0.45647265E+03</rscale>
<asrwt>0</asrwt>
<pdfrwt beam="1">  1       21 0.54022108E-01 0.45647265E+03</pdfrwt>
<pdfrwt beam="2">  1       21 0.20853559E-01 0.45647265E+03</pdfrwt>
<totfact> 0.63882272E+04</totfact>
</mgrwt>
</event>
<event>
 7    0  0.4725730E-002  0.4519259E+03  0.7546771E-02  0.1027149E+00
         21   -1    0    0  502  501  0.00000000000E+00  0.00000000000E+00  0.18680910103E+02  0.18680910103E+02  0.00000000000E+00 0. -1.
         21   -1    0    0  501  502 -0.00000000000E+00 -0.00000000000E+00 -0.27332319438E+04  0.27332319438E+04  0.00000000000E+00 0. -1.
      99926    2    1    2    0    0  0.00000000000E+00  0.15543122345E-14 -0.27145510337E+04  0.27519128539E+04  0.45192592417E+03 0.  0.
      99925    2    3    3    0    0 -0.52626307590E+01 -0.14268900129E+01 -0.23833717100E+04  0.23978549718E+04  0.26309319022E+03 0.  0.
         25    1    4    4    0    0 -0.11589303287E+02  0.33050245791E+02 -0.10012162089E+04  0.10096078624E+04  0.12509000000E+03 0.  0.
         25    1    4    4    0    0  0.63266725282E+01 -0.34477135804E+02 -0.13821555011E+04  0.13882471094E+04  0.12509000000E+03 0.  0.
         25    1    3    3    0    0  0.52626307590E+01  0.14268900129E+01 -0.33117932377E+03  0.35405788212E+03  0.12509000000E+03 0.  0.
<mgrwt>
<rscale>  2 0.45192592E+03</rscale>
<asrwt>0</asrwt>
<pdfrwt beam="1">  1       21 0.27471959E-02 0.45192592E+03</pdfrwt>
<pdfrwt beam="2">  1       21 0.40194539E+00 0.45192592E+03</pdfrwt>
<totfact> 0.50011338E+03</totfact>
</mgrwt>
</event>
<event>
 7    0  0.4725730E-002  0.4539230E+03  0.7546771E-02  0.1026559E+00
         21   -1    0    0  502  501  0.00000000000E+00  0.00000000000E+00  0.71483848350E+03  0.71483848350E+03  0.00000000000E+00 0.  1.
         21   -1    0    0  501  502 -0.00000000000E+00 -0.00000000000E+00 -0.72060378980E+02  0.72060378980E+02  0.00000000000E+00 0.  1.
      99926    2    1    2    0    0  0.00000000000E+00  0.00000000000E+00  0.64277810452E+03  0.78689886248E+03  0.45392304207E+03 0.  0.
      99925    2    3    3    0    0  0.56618707654E+02 -0.86445895532E+02  0.32980112631E+03  0.43436422887E+03  0.26310630834E+03 0.  0.
         25    1    3    3    0    0 -0.56618707654E+02  0.86445895532E+02  0.31297697820E+03  0.35253463361E+03  0.12509000000E+03 0.  0.
         25    1    4    4    0    0  0.12850068527E+02 -0.20163051588E+02  0.20143275686E+03  0.23831562380E+03  0.12509000000E+03 0.  0.
         25    1    4    4    0    0  0.43768639127E+02 -0.66282843944E+02  0.12836836945E+03  0.19604860507E+03  0.12509000000E+03 0.  0.
<mgrwt>
<rscale>  2 0.45392304E+03</rscale>
<asrwt>0</asrwt>
<pdfrwt beam="1">  1       21 0.10512330E+00 0.45392304E+03</pdfrwt>
<pdfrwt beam="2">  1       21 0.10597115E-01 0.45392304E+03</pdfrwt>
<totfact> 0.48816378E+04</totfact>
</mgrwt>
</event>
<event>
 7    0  0.4725730E-002  0.4433812E+03  0.7546771E-02  0.1029714E+00
         21   -1    0    0  502  501  0.00000000000E+00  0.00000000000E+00  0.90291170318E+03  0.90291170318E+03  0.00000000000E+00 0. -1.
         21   -1    0    0  501  502 -0.00000000000E+00 -0.00000000000E+00 -0.54431382624E+02  0.54431382624E+02  0.00000000000E+00 0. -1.
      99926    2    1    2    0    0  0.14210854715E-13 -0.26645352591E-14  0.84848032055E+03  0.95734308580E+03  0.44338124630E+03 0.  0.
      99925    2    3    3    0    0  0.91380114494E+02 -0.51074388419E+01  0.44329025583E+03  0.52351949503E+03  0.26303991999E+03 0.  0.
         25    1    4    4    0    0  0.63881101944E+02 -0.37739736888E+02  0.21117588967E+03  0.25641343062E+03  0.12509000000E+03 0.  0.
         25    1    4    4    0    0  0.27499012550E+02  0.32632298046E+02  0.23211436616E+03  0.26710606441E+03  0.12509000000E+03 0.  0.
         25    1    3    3    0    0 -0.91380114494E+02  0.51074388419E+01  0.40519006473E+03  0.43382359077E+03  0.12509000000E+03 0.  0.
<mgrwt>
<rscale>  2 0.44338125E+03</rscale>
<asrwt>0</asrwt>
<pdfrwt beam="1">  1       21 0.13278112E+00 0.44338125E+03</pdfrwt>
<pdfrwt beam="2">  1       21 0.80046156E-02 0.44338125E+03</pdfrwt>
<totfact> 0.44776410E+04</totfact>
</mgrwt>
</event>
<event>
 7    0  0.4725730E-002  0.4637574E+03  0.7546771E-02  0.1023697E+00
         21   -1    0    0  502  501  0.00000000000E+00  0.00000000000E+00  0.15904869050E+03  0.15904869050E+03  0.00000000000E+00 0. -1.
         21   -1    0    0  501  502 -0.00000000000E+00 -0.00000000000E+00 -0.33805831569E+03  0.33805831569E+03  0.00000000000E+00 0. -1.
      99926    2    1    2    0    0 -0.14210854715E-13  0.14210854715E-13 -0.17900962519E+03  0.49710700620E+03  0.46375740393E+03 0.  0.
      99925    2    3    3    0    0  0.94354943100E+02 -0.76107472161E+02 -0.11111293358E+03  0.31015067055E+03  0.26296796730E+03 0.  0.
         25    1    4    4    0    0  0.29718650937E+02 -0.73681286012E+02 -0.47392304739E+02  0.15558171091E+03  0.12509000000E+03 0.  0.
         25    1    4    4    0    0  0.64636292163E+02 -0.24261861491E+01 -0.63720628845E+02  0.15456895964E+03  0.12509000000E+03 0.  0.
         25    1    3    3    0    0 -0.94354943100E+02  0.76107472161E+02 -0.67896691605E+02  0.18695633564E+03  0.12509000000E+03 0.  0.
<mgrwt>
<rscale>  2 0.46375740E+03</rscale>
<asrwt>0</asrwt>
<pdfrwt beam="1">  1       21 0.23389513E-01 0.46375740E+03</pdfrwt>
<pdfrwt beam="2">  1       21 0.49714458E-01 0.46375740E+03</pdfrwt>
<totfact> 0.61113855E+04</totfact>
</mgrwt>
</event>
<event>
 7    0  0.4725730E-002  0.4523889E+03  0.7546771E-02  0.1027012E+00
         21   -1    0    0  502  501  0.00000000000E+00  0.00000000000E+00  0.10203457140E+04  0.10203457140E+04  0.00000000000E+00 0.  1.
         21   -1    0    0  501  502 -0.00000000000E+00 -0.00000000000E+00 -0.50143709205E+02  0.50143709205E+02  0.00000000000E+00 0.  1.
      99926    2    1    2    0    0  0.00000000000E+00  0.14210854715E-13  0.97020200478E+03  0.10704894232E+04  0.45238885384E+03 0.  0.
      99925    2    3    3    0    0 -0.59187406451E+02  0.86280177043E+02  0.69846215386E+03  0.75357070694E+03  0.26281554738E+03 0.  0.
         25    1    3    3    0    0  0.59187406451E+02 -0.86280177043E+02  0.27173985092E+03  0.31691871625E+03  0.12509000000E+03 0.  0.
         25    1    4    4    0    0 -0.51222262143E+02  0.19853408614E+02  0.27669243987E+03  0.30858401183E+03  0.12509000000E+03 0.  0.
         25    1    4    4    0    0 -0.79651443081E+01  0.66426768429E+02  0.42176971399E+03  0.44498669511E+03  0.12509000000E+03 0.  0.
<mgrwt>
<rscale>  2 0.45238885E+03</rscale>
<asrwt>0</asrwt>
<pdfrwt beam="1">  1       21 0.15005083E+00 0.45238885E+03</pdfrwt>
<pdfrwt beam="2">  1       21 0.73740755E-02 0.45238885E+03</pdfrwt>
<totfact> 0.37288468E+04</totfact>
</mgrwt>
</event>
<event>
 7    0  0.4725730E-002  0.4603162E+03  0.7546771E-02  0.1024690E+00
         21   -1    0    0  502  501  0.00000000000E+00  0.00000000000E+00  0.10140952655E+03  0.10140952655E+03  0.00000000000E+00 0.  1.
         21   -1    0    0  501  502 -0.00000000000E+00 -0.00000000000E+00 -0.52236454034E+03  0.52236454034E+03  0.00000000000E+00 0.  1.
      99926    2    1    2    0    0  0.00000000000E+00  0.71054273576E-14 -0.42095501379E+03  0.62377406689E+03  0.46031615536E+03 0.  0.
      99925    2    3    3    0    0 -0.86496263172E+02  0.50462751561E+02 -0.17893081992E+03  0.33351330248E+03  0.26303382249E+03 0.  0.
         25    1    4    4    0    0 -0.69767420377E+02 -0.55100915970E+01 -0.94460416161E+02  0.17166284507E+03  0.12509000000E+03 0.  0.
         25    1    4    4    0    0 -0.16728842795E+02  0.55972843158E+02 -0.84470403764E+02  0.16185045741E+03  0.12509000000E+03 0.  0.
         25    1    3    3    0    0  0.86496263172E+02 -0.50462751561E+02 -0.24202419387E+03  0.29026076441E+03  0.12509000000E+03 0.  0.
<mgrwt>
<rscale>  2 0.46031616E+03</rscale>
<asrwt>0</asrwt>
<pdfrwt beam="1">  1       21 0.14913166E-01 0.46031616E+03</pdfrwt>
<pdfrwt beam="2">  1       21 0.76818315E-01 0.46031616E+03</pdfrwt>
<totfact> 0.54897360E+04</totfact>
</mgrwt>
</event>
<event>
 7    0  0.4725730E-002  0.4568131E+03  0.7546771E-02  0.1025710E+00
         21   -1    0    0  502  501  0.00000000000E+00  0.00000000000E+00  0.52137356510E+02  0.52137356510E+02  0.00000000000E+00 0.  1.
         21   -1    0    0  501  502 -0.00000000000E+00 -0.00000000000E+00 -0.10006173321E+04  0.10006173321E+04  0.00000000000E+00 0.  1.
      99926    2    1    2    0    0  0.00000000000E+00  0.00000000000E+00 -0.94847997559E+03  0.10527546886E+04  0.45681305837E+03 0.  0.
      99925    2    3    3    0    0 -0.33024091517E+02  0.99977445521E+02 -0.70165233266E+03  0.75668464006E+03  0.26300108050E+03 0.  0.
         25    1    4    4    0    0 -0.36946388445E+02  0.16528173406E+02 -0.36492779114E+03  0.38788918131E+03  0.12509000000E+03 0.  0.
         25    1    4    4    0    0  0.39222969272E+01  0.83449272114E+02 -0.33672454153E+03  0.36879545875E+03  0.12509000000E+03 0.  0.
         25    1    3    3    0    0  0.33024091517E+02 -0.99977445521E+02 -0.24682764293E+03  0.29607004855E+03  0.12509000000E+03 0.  0.
<mgrwt>
<rscale>  2 0.45681306E+03</rscale>
<asrwt>0</asrwt>
<pdfrwt beam="1">  1       21 0.76672589E-02 0.45681306E+03</pdfrwt>
<pdfrwt beam="2">  1       21 0.14714960E+00 0.45681306E+03</pdfrwt>
<totfact> 0.36655014E+04</totfact>
</mgrwt>
</event>
<event>
 7    0  0.4725730E-002  0.4591419E+03  0.7546771E-02  0.1025030E+00
         21   -1    0    0  502  501  0.00000000000E+00  0.00000000000E+00  0.33483762337E+03  0.33483762337E+03  0.00000000000E+00 0. -1.
         21   -1    0    0  501  502 -0.00000000000E+00 -0.00000000000E+00 -0.15739816914E+03  0.15739816914E+03  0.00000000000E+00 0. -1.
      99926    2    1    2    0    0  0.00000000000E+00  0.00000000000E+00  0.17743945423E+03  0.49223579250E+03  0.45914193394E+03 0.  0.
      99925    2    3    3    0    0 -0.71729021991E+02 -0.85417780228E+02  0.72625275620E+02  0.29456240048E+03  0.26277619250E+03 0.  0.
         25    1    4    4    0    0 -0.56762246200E+02 -0.39754825476E+02  0.73003192335E+02  0.16055956195E+03  0.12509000000E+03 0.  0.
         25    1    4    4    0    0 -0.14966775791E+02 -0.45662954752E+02 -0.37791671453E+00  0.13400283853E+03  0.12509000000E+03 0.  0.
         25    1    3    3    0    0  0.71729021991E+02  0.85417780228E+02  0.10481417861E+03  0.19767339202E+03  0.12509000000E+03 0.  0.
<mgrwt>
<rscale>  2 0.45914193E+03</rscale>
<asrwt>0</asrwt>
<pdfrwt beam="1">  1       21 0.49240827E-01 0.45914193E+03</pdfrwt>
<pdfrwt beam="2">  1       21 0.23146790E-01 0.45914193E+03</pdfrwt>
<totfact> 0.63699207E+04</totfact>
</mgrwt>
</event>
<event>
 7    0  0.4725730E-002  0.4535807E+03  0.7546771E-02  0.1026660E+00
         21   -1    0    0  502  501  0.00000000000E+00  0.00000000000E+00  0.23311170486E+02  0.23311170486E+02  0.00000000000E+00 0. -1.
         21   -1    0    0  501  502 -0.00000000000E+00 -0.00000000000E+00 -0.22064037145E+04  0.22064037145E+04  0.00000000000E+00 0. -1.
      99926    2    1    2    0    0  0.71054273576E-14  0.00000000000E+00 -0.21830925441E+04  0.22297148850E+04  0.45358065722E+03 0.  0.
      99925    2    3    3    0    0 -0.63079052534E+02 -0.47113421863E+02 -0.17660557371E+04  0.17872605395E+04  0.26296145774E+03 0.  0.
         25    1    4    4    0    0 -0.59461599924E+02 -0.16221764554E+02 -0.11041131454E+04  0.11128846182E+04  0.12509000000E+03 0.  0.
         25    1    3    3    0    0  0.63079052534E+02  0.47113421863E+02 -0.41703680699E+03  0.44245434552E+03  0.12509000000E+03 0.  0.
         25    1    4    4    0    0 -0.36174526104E+01 -0.30891657309E+02 -0.66194259165E+03  0.67437592128E+03  0.12509000000E+03 0.  0.
<mgrwt>
<rscale>  2 0.45358066E+03</rscale>
<asrwt>0</asrwt>
<pdfrwt beam="1">  1       21 0.34281153E-02 0.45358066E+03</pdfrwt>
<pdfrwt beam="2">  1       21 0.32447094E+00 0.45358066E+03</pdfrwt>
<totfact> 0.10423288E+04</totfact>
</mgrwt>
</event>
<event>
 7    0  0.4725730E-002  0.4598145E+03  0.7546771E-02  0.1024835E+00
         21   -1    0    0  502  501  0.00000000000E+00  0.00000000000E+00  0.18802080741E+04  0.18802080741E+04  0.00000000000E+00 0.  1.
         21   -1    0    0  501  502 -0.00000000000E+00 -0.00000000000E+00 -0.28112501601E+02  0.28112501601E+02  0.00000000000E+00 0.  1.
      99926    2    1    2    0    0  0.00000000000E+00  0.00000000000E+00  0.18520955725E+04  0.19083205757E+04  0.45981453867E+03 0.  0.
      99925    2    3    3    0    0 -0.79656076878E+01  0.37346696876E+02  0.16222070728E+04  0.16438315266E+04  0.26299824014E+03 0.  0.
         25    1    4    4    0    0 -0.19895061303E+02  0.34765316984E+01  0.10119320189E+04  0.10198342114E+04  0.12509000000E+03 0.  0.
         25    1    3    3    0    0  0.79656076878E+01 -0.37346696876E+02  0.22988849974E+03  0.26448904909E+03  0.12509000000E+03 0.  0.
         25    1    4    4    0    0  0.11929453615E+02  0.33870165178E+02  0.61027505387E+03  0.62399731524E+03  0.12509000000E+03 0.  0.
<mgrwt>
<rscale>  2 0.45981454E+03</rscale>
<asrwt>0</asrwt>
<pdfrwt beam="1">  1       21 0.27650110E+00 0.45981454E+03</pdfrwt>
<pdfrwt beam="2">  1       21 0.41341927E-02 0.45981454E+03</pdfrwt>
<totfact> 0.14707597E+04</totfact>
</mgrwt>
</event>
<event>
 7    0  0.4725730E-002  0.4567056E+03  0.7546771E-02  0.1025741E+00
         21   -1    0    0  502  501  0.00000000000E+00  0.00000000000E+00  0.50365639603E+03  0.50365639603E+03  0.00000000000E+00 0.  1.
         21   -1    0    0  501  502 -0.00000000000E+00 -0.00000000000E+00 -0.10353288955E+03  0.10353288955E+03  0.00000000000E+00 0.  1.
      99926    2    1    2    0    0  0.00000000000E+00  0.71054273576E-14  0.40012350648E+03  0.60718928558E+03  0.45670560330E+03 0.  0.
      99925    2    3    3    0    0 -0.96492923133E+02 -0.62194236350E+02  0.23541078039E+03  0.37063739384E+03  0.26224956614E+03 0.  0.
         25    1    4    4    0    0 -0.70819822692E+02  0.45050736462E+00  0.10993946265E+03  0.18096917912E+03  0.12509000000E+03 0.  0.
         25    1    4    4    0    0 -0.25673100441E+02 -0.62644743715E+02  0.12547131774E+03  0.18966821472E+03  0.12509000000E+03 0.  0.
         25    1    3    3    0    0  0.96492923133E+02  0.62194236350E+02  0.16471272609E+03  0.23655189174E+03  0.12509000000E+03 0.  0.
<mgrwt>
<rscale>  2 0.45670560E+03</rscale>
<asrwt>0</asrwt>
<pdfrwt beam="1">  1       21 0.74067116E-01 0.45670560E+03</pdfrwt>
<pdfrwt beam="2">  1       21 0.15225425E-01 0.45670560E+03</pdfrwt>
<totfact> 0.57459800E+04</totfact>
</mgrwt>
</event>
<event>
 7    0  0.4725730E-002  0.4635740E+03  0.7546771E-02  0.1023750E+00
         21   -1    0    0  502  501  0.00000000000E+00  0.00000000000E+00  0.11894501010E+03  0.11894501010E+03  0.00000000000E+00 0. -1.
         21   -1    0    0  501  502 -0.00000000000E+00 -0.00000000000E+00 -0.45168116428E+03  0.45168116428E+03  0.00000000000E+00 0. -1.
      99926    2    1    2    0    0  0.14210854715E-13  0.00000000000E+00 -0.33273615418E+03  0.57062617438E+03  0.46357403139E+03 0.  0.
      99925    2    3    3    0    0  0.10184998123E+03  0.53309470800E+02 -0.16145027792E+03  0.32937593528E+03  0.26307222611E+03 0.  0.
         25    1    4    4    0    0  0.86973639716E+02  0.13038312224E+02 -0.67483404952E+02  0.16714044883E+03  0.12509000000E+03 0.  0.
         25    1    3    3    0    0 -0.10184998123E+03 -0.53309470800E+02 -0.17128587627E+03  0.24125023909E+03  0.12509000000E+03 0.  0.
         25    1    4    4    0    0  0.14876341514E+02  0.40271158576E+02 -0.93966872963E+02  0.16223548645E+03  0.12509000000E+03 0.  0.
<mgrwt>
<rscale>  2 0.46357403E+03</rscale>
<asrwt>0</asrwt>
<pdfrwt beam="1">  1       21 0.17491914E-01 0.46357403E+03</pdfrwt>
<pdfrwt beam="2">  1       21 0.66423700E-01 0.46357403E+03</pdfrwt>
<totfact> 0.56588201E+04</totfact>
</mgrwt>
</event>
<event>
 7    0  0.4725730E-002  0.4576198E+03  0.7546771E-02  0.1025474E+00
         21   -1    0    0  502  501  0.00000000000E+00  0.00000000000E+00  0.19056228241E+03  0.19056228241E+03  0.00000000000E+00 0. -1.
         21   -1    0    0  501  502 -0.00000000000E+00 -0.00000000000E+00 -0.27473413164E+03  0.27473413164E+03  0.00000000000E+00 0. -1.
      99926    2    1    2    0    0  0.00000000000E+00  0.35527136788E-14 -0.84171849231E+02  0.46529641404E+03  0.45761976871E+03 0.  0.
      99925    2    3    3    0    0 -0.13571458083E+02 -0.21328032097E+02  0.61990884044E+02  0.27126002022E+03  0.26286890162E+03 0.  0.
         25    1    3    3    0    0  0.13571458083E+02  0.21328032097E+02 -0.14616273328E+03  0.19403639382E+03  0.12509000000E+03 0.  0.
         25    1    4    4    0    0  0.12253947855E+02  0.55744945847E+01  0.63046494286E+02  0.14072527410E+03  0.12509000000E+03 0.  0.
         25    1    4    4    0    0 -0.25825405937E+02 -0.26902526681E+02 -0.10556102420E+01  0.13053474613E+03  0.12509000000E+03 0.  0.
<mgrwt>
<rscale>  2 0.45761977E+03</rscale>
<asrwt>0</asrwt>
<pdfrwt beam="1">  1       21 0.28023865E-01 0.45761977E+03</pdfrwt>
<pdfrwt beam="2">  1       21 0.40402078E-01 0.45761977E+03</pdfrwt>
<totfact> 0.66394647E+04</totfact>
</mgrwt>
</event>
<event>
 7    0  0.4725730E-002  0.4520247E+03  0.7546771E-02  0.1027120E+00
         21   -1    0    0  502  501  0.00000000000E+00  0.00000000000E+00  0.70138224629E+02  0.70138224629E+02  0.00000000000E+00 0.  1.
         21   -1    0    0  501  502 -0.00000000000E+00 -0.00000000000E+00 -0.72829872963E+03  0.72829872963E+03  0.00000000000E+00 0.  1.
      99926    2    1    2    0    0  0.00000000000E+00  0.00000000000E+00 -0.65816050500E+03  0.79843695426E+03  0.45202468913E+03 0.  0.
      99925    2    3    3    0    0  0.70406048774E+02 -0.97860429671E+01 -0.56418472235E+03  0.62658895699E+03  0.26316637655E+03 0.  0.
         25    1    3    3    0    0 -0.70406048774E+02  0.97860429671E+01 -0.93975782657E+02  0.17184799727E+03  0.12509000000E+03 0.  0.
         25    1    4    4    0    0  0.58131497521E+02 -0.24254619689E+02 -0.36119923609E+03  0.38740154082E+03  0.12509000000E+03 0.  0.
         25    1    4    4    0    0  0.12274551253E+02  0.14468576722E+02 -0.20298548626E+03  0.23918741617E+03  0.12509000000E+03 0.  0.
<mgrwt>
<rscale>  2 0.45202469E+03</rscale>
<asrwt>0</asrwt>
<pdfrwt beam="1">  1       21 0.10314446E-01 0.45202469E+03</pdfrwt>
<pdfrwt beam="2">  1       21 0.10710275E+00 0.45202469E+03</pdfrwt>
<totfact> 0.48974077E+04</totfact>
</mgrwt>
</event>
<event>
 7    0  0.4725730E-002  0.4689131E+03  0.7546771E-02  0.1022227E+00
         21   -1    0    0  502  501  0.00000000000E+00  0.00000000000E+00  0.12697442806E+03  0.12697442806E+03  0.00000000000E+00 0. -1.
         21   -1    0    0  501  502 -0.00000000000E+00 -0.00000000000E+00 -0.43292088847E+03  0.43292088847E+03  0.00000000000E+00 0. -1.
      99926    2    1    2    0    0  0.71054273576E-14 -0.71054273576E-14 -0.30594646042E+03  0.55989531653E+03  0.46891313570E+03 0.  0.
      99925    2    3    3    0    0  0.39271455054E+02  0.46365898978E+02 -0.32171870996E+03  0.41993705230E+03  0.26296797483E+03 0.  0.
         25    1    3    3    0    0 -0.39271455054E+02 -0.46365898978E+02  0.15772249543E+02  0.13995826423E+03  0.12509000000E+03 0.  0.
         25    1    4    4    0    0  0.40622358831E+01 -0.13603634831E+02 -0.16755954994E+03  0.20958356691E+03  0.12509000000E+03 0.  0.
         25    1    4    4    0    0  0.35209219171E+02  0.59969533809E+02 -0.15415916002E+03  0.21035348540E+03  0.12509000000E+03 0.  0.
<mgrwt>
<rscale>  2 0.46891314E+03</rscale>
<asrwt>0</asrwt>
<pdfrwt beam="1">  1       21 0.18672710E-01 0.46891314E+03</pdfrwt>
<pdfrwt beam="2">  1       21 0.63664836E-01 0.46891314E+03</pdfrwt>
<totfact> 0.54918928E+04</totfact>
</mgrwt>
</event>
<event>
 7    0  0.4725730E-002  0.4704255E+03  0.7546771E-02  0.1021800E+00
         21   -1    0    0  502  501  0.00000000000E+00  0.00000000000E+00  0.23782837414E+03  0.23782837414E+03  0.00000000000E+00 0.  1.
         21   -1    0    0  501  502 -0.00000000000E+00 -0.00000000000E+00 -0.23262591302E+03  0.23262591302E+03  0.00000000000E+00 0.  1.
      99926    2    1    2    0    0 -0.14210854715E-13  0.00000000000E+00  0.52024611267E+01  0.47045428716E+03  0.47042552089E+03 0.  0.
      99925    2    3    3    0    0  0.12616894041E+03 -0.13364249227E+02  0.11150471045E+02  0.29218457127E+03  0.26296441966E+03 0.  0.
         25    1    4    4    0    0  0.33800649209E+02  0.13668436403E+02 -0.18475656494E+02  0.13159851072E+03  0.12509000000E+03 0.  0.
         25    1    3    3    0    0 -0.12616894041E+03  0.13364249227E+02 -0.59480099181E+01  0.17826971589E+03  0.12509000000E+03 0.  0.
         25    1    4    4    0    0  0.92368291200E+02 -0.27032685630E+02  0.29626127539E+02  0.16058606055E+03  0.12509000000E+03 0.  0.
<mgrwt>
<rscale>  2 0.47042552E+03</rscale>
<asrwt>0</asrwt>
<pdfrwt beam="1">  1       21 0.34974761E-01 0.47042552E+03</pdfrwt>
<pdfrwt beam="2">  1       21 0.34209693E-01 0.47042552E+03</pdfrwt>
<totfact> 0.59730948E+04</totfact>
</mgrwt>
</event>
<event>
 7    0  0.4725730E-002  0.4455470E+03  0.7546771E-02  0.1029058E+00
         21   -1    0    0  502  501  0.00000000000E+00  0.00000000000E+00  0.27048358113E+02  0.27048358113E+02  0.00000000000E+00 0. -1.
         21   -1    0    0  501  502 -0.00000000000E+00 -0.00000000000E+00 -0.18347890653E+04  0.18347890653E+04  0.00000000000E+00 0. -1.
      99926    2    1    2    0    0  0.17763568394E-14  0.00000000000E+00 -0.18077407072E+04  0.18618374234E+04  0.44554699730E+03 0.  0.
      99925    2    3    3    0    0  0.14428564588E+02  0.99563775153E+02 -0.10383976389E+04  0.10759256004E+04  0.26310665562E+03 0.  0.
         25    1    4    4    0    0 -0.18171854513E+02  0.56447999999E+02 -0.40406921178E+03  0.42712530833E+03  0.12509000000E+03 0.  0.
         25    1    4    4    0    0  0.32600419101E+02  0.43115775154E+02 -0.63432842713E+03  0.64880029205E+03  0.12509000000E+03 0.  0.
         25    1    3    3    0    0 -0.14428564588E+02 -0.99563775153E+02 -0.76934306828E+03  0.78591182305E+03  0.12509000000E+03 0.  0.
<mgrwt>
<rscale>  2 0.44554700E+03</rscale>
<asrwt>0</asrwt>
<pdfrwt beam="1">  1       21 0.39776998E-02 0.44554700E+03</pdfrwt>
<pdfrwt beam="2">  1       21 0.26982192E+00 0.44554700E+03</pdfrwt>
<totfact> 0.17336953E+04</totfact>
</mgrwt>
</event>
<event>
 7    0  0.4725730E-002  0.4721615E+03  0.7546771E-02  0.1021312E+00
         21   -1    0    0  502  501  0.00000000000E+00  0.00000000000E+00  0.40524647474E+03  0.40524647474E+03  0.00000000000E+00 0. -1.
         21   -1    0    0  501  502 -0.00000000000E+00 -0.00000000000E+00 -0.13753140674E+03  0.13753140674E+03  0.00000000000E+00 0. -1.
      99926    2    1    2    0    0  0.00000000000E+00  0.00000000000E+00  0.26771506799E+03  0.54277788148E+03  0.47216148826E+03 0.  0.
      99925    2    3    3    0    0 -0.87639654453E+02 -0.89830589045E+02  0.19860173253E+03  0.35258217964E+03  0.26290930275E+03 0.  0.
         25    1    4    4    0    0 -0.40888858113E+02 -0.32897376858E+02  0.14305991963E+03  0.19714914361E+03  0.12509000000E+03 0.  0.
         25    1    3    3    0    0  0.87639654453E+02  0.89830589045E+02  0.69113335464E+02  0.19019570184E+03  0.12509000000E+03 0.  0.
         25    1    4    4    0    0 -0.46750796339E+02 -0.56933212187E+02  0.55541812903E+02  0.15543303603E+03  0.12509000000E+03 0.  0.
<mgrwt>
<rscale>  2 0.47216149E+03</rscale>
<asrwt>0</asrwt>
<pdfrwt beam="1">  1       21 0.59595070E-01 0.47216149E+03</pdfrwt>
<pdfrwt beam="2">  1       21 0.20225207E-01 0.47216149E+03</pdfrwt>
<totfact> 0.54544712E+04</totfact>
</mgrwt>
</event>
<event>
 7    0  0.4725730E-002  0.4539370E+03  0.7546771E-02  0.1026554E+00
         21   -1    0    0  502  501  0.00000000000E+00  0.00000000000E+00  0.70746636489E+03  0.70746636489E+03  0.00000000000E+00 0. -1.
         21   -1    0    0  501  502 -0.00000000000E+00 -0.00000000000E+00 -0.72815753119E+02  0.72815753119E+02  0.00000000000E+00 0. -1.
      99926    2    1    2    0    0  0.14210854715E-13  0.35527136788E-14  0.63465061177E+03  0.78028211801E+03  0.45393698314E+03 0.  0.
      99925    2    3    3    0    0  0.10197314540E+03  0.27966635247E+02  0.46449305780E+03  0.54410050072E+03  0.26288951876E+03 0.  0.
         25    1    3    3    0    0 -0.10197314540E+03 -0.27966635247E+02  0.17015755397E+03  0.23618161728E+03  0.12509000000E+03 0.  0.
         25    1    4    4    0    0  0.83412056057E+02  0.40810440264E+02  0.27108685177E+03  0.31266380096E+03  0.12509000000E+03 0.  0.
         25    1    4    4    0    0  0.18561089344E+02 -0.12843805017E+02  0.19340620603E+03  0.23143669976E+03  0.12509000000E+03 0.  0.
<mgrwt>
<rscale>  2 0.45393698E+03</rscale>
<asrwt>0</asrwt>
<pdfrwt beam="1">  1       21 0.10403917E+00 0.45393698E+03</pdfrwt>
<pdfrwt beam="2">  1       21 0.10708199E-01 0.45393698E+03</pdfrwt>
<totfact> 0.49142119E+04</totfact>
</mgrwt>
</event>
<event>
 7    0  0.4725730E-002  0.4491988E+03  0.7546771E-02  0.1027961E+00
         21   -1    0    0  502  501  0.00000000000E+00  0.00000000000E+00  0.10498948055E+03  0.10498948055E+03  0.00000000000E+00 0.  1.
         21   -1    0    0  501  502 -0.00000000000E+00 -0.00000000000E+00 -0.48047559861E+03  0.48047559861E+03  0.00000000000E+00 0.  1.
      99926    2    1    2    0    0  0.00000000000E+00  0.00000000000E+00 -0.37548611806E+03  0.58546507917E+03  0.44919876900E+03 0.  0.
      99925    2    3    3    0    0 -0.53858616814E+02 -0.93355449945E+02 -0.24523080606E+03  0.37515591379E+03  0.26265532694E+03 0.  0.
         25    1    3    3    0    0  0.53858616814E+02  0.93355449945E+02 -0.13025531199E+03  0.21030916538E+03  0.12509000000E+03 0.  0.
         25    1    4    4    0    0 -0.44597665939E+02 -0.15626901032E+02 -0.14211443593E+03  0.19513373067E+03  0.12509000000E+03 0.  0.
         25    1    4    4    0    0 -0.92609508749E+01 -0.77728548913E+02 -0.10311637013E+03  0.18002218312E+03  0.12509000000E+03 0.  0.
<mgrwt>
<rscale>  2 0.44919877E+03</rscale>
<asrwt>0</asrwt>
<pdfrwt beam="1">  1       21 0.15439629E-01 0.44919877E+03</pdfrwt>
<pdfrwt beam="2">  1       21 0.70658178E-01 0.44919877E+03</pdfrwt>
<totfact> 0.62394207E+04</totfact>
</mgrwt>
</event>
<event>
 7    0  0.4725730E-002  0.4566190E+03  0.7546771E-02  0.1025766E+00
         21   -1    0    0  502  501  0.00000000000E+00  0.00000000000E+00  0.13461048006E+04  0.13461048006E+04  0.00000000000E+00 0.  1.
         21   -1    0    0  501  502 -0.00000000000E+00 -0.00000000000E+00 -0.38723014664E+02  0.38723014664E+02  0.00000000000E+00 0.  1.
      99926    2    1    2    0    0  0.35527136788E-14  0.00000000000E+00  0.13073817859E+04  0.13848278153E+04  0.45661903566E+03 0.  0.
      99925    2    3    3    0    0 -0.18953998299E+02  0.76724196995E+02  0.57452600300E+03  0.63718420823E+03  0.26396539667E+03 0.  0.
         25    1    4    4    0    0 -0.31740070313E+02  0.69420347518E+02  0.26136306442E+03  0.29964107906E+03  0.12509000000E+03 0.  0.
         25    1    3    3    0    0  0.18953998299E+02 -0.76724196995E+02  0.73285578292E+03  0.74764360702E+03  0.12509000000E+03 0.  0.
         25    1    4    4    0    0  0.12786072013E+02  0.73038494772E+01  0.31316293858E+03  0.33754312918E+03  0.12509000000E+03 0.  0.
<mgrwt>
<rscale>  2 0.45661904E+03</rscale>
<asrwt>0</asrwt>
<pdfrwt beam="1">  1       21 0.19795656E+00 0.45661904E+03</pdfrwt>
<pdfrwt beam="2">  1       21 0.56945619E-02 0.45661904E+03</pdfrwt>
<totfact> 0.26405322E+04</totfact>
</mgrwt>
</event>
<event>
 7    0  0.4725730E-002  0.4523297E+03  0.7546771E-02  0.1027030E+00
         21   -1    0    0  502  501  0.00000000000E+00  0.00000000000E+00  0.14060608136E+03  0.14060608136E+03  0.00000000000E+00 0. -1.
         21   -1    0    0  501  502 -0.00000000000E+00 -0.00000000000E+00 -0.36378615558E+03  0.36378615558E+03  0.00000000000E+00 0. -1.
      99926    2    1    2    0    0 -0.35527136788E-14 -0.14210854715E-13 -0.22318007422E+03  0.50439223693E+03  0.45232972835E+03 0.  0.
      99925    2    3    3    0    0 -0.25890429063E+02 -0.96493103490E+02 -0.87854324332E+02  0.29476924196E+03  0.26303857201E+03 0.  0.
         25    1    4    4    0    0  0.13070905220E+02 -0.28237423856E+02 -0.67915731665E+02  0.14569919484E+03  0.12509000000E+03 0.  0.
         25    1    4    4    0    0 -0.38961334282E+02 -0.68255679633E+02 -0.19938592668E+02  0.14907004712E+03  0.12509000000E+03 0.  0.
         25    1    3    3    0    0  0.25890429063E+02  0.96493103490E+02 -0.13532574989E+03  0.20962299497E+03  0.12509000000E+03 0.  0.
<mgrwt>
<rscale>  2 0.45232973E+03</rscale>
<asrwt>0</asrwt>
<pdfrwt beam="1">  1       21 0.20677365E-01 0.45232973E+03</pdfrwt>
<pdfrwt beam="2">  1       21 0.53497963E-01 0.45232973E+03</pdfrwt>
<totfact> 0.66358489E+04</totfact>
</mgrwt>
</event>
<event>
 7    0  0.4725730E-002  0.4560143E+03  0.7546771E-02  0.1025944E+00
         21   -1    0    0  502  501  0.00000000000E+00  0.00000000000E+00  0.52598517023E+02  0.52598517023E+02  0.00000000000E+00 0. -1.
         21   -1    0    0  501  502 -0.00000000000E+00 -0.00000000000E+00 -0.98837879305E+03  0.98837879305E+03  0.00000000000E+00 0. -1.
      99926    2    1    2    0    0  0.00000000000E+00  0.00000000000E+00 -0.93578027603E+03  0.10409773101E+04  0.45601429263E+03 0.  0.
      99925    2    3    3    0    0  0.10398085861E+03 -0.48119889222E+02 -0.58564244046E+03  0.65191233518E+03  0.26245967688E+03 0.  0.
         25    1    3    3    0    0 -0.10398085861E+03  0.48119889222E+02 -0.35013783556E+03  0.38906497489E+03  0.12509000000E+03 0.  0.
         25    1    4    4    0    0  0.89175940632E+02 -0.80097539749E+01 -0.29879870783E+03  0.33607243334E+03  0.12509000000E+03 0.  0.
         25    1    4    4    0    0  0.14804917982E+02 -0.40110135247E+02 -0.28684373263E+03  0.31583990184E+03  0.12509000000E+03 0.  0.
<mgrwt>
<rscale>  2 0.45601429E+03</rscale>
<asrwt>0</asrwt>
<pdfrwt beam="1">  1       21 0.77350764E-02 0.45601429E+03</pdfrwt>
<pdfrwt beam="2">  1       21 0.14534982E+00 0.45601429E+03</pdfrwt>
<totfact> 0.37313902E+04</totfact>
</mgrwt>
</event>
<event>
 7    0  0.4725730E-002  0.4530484E+03  0.7546771E-02  0.1026817E+00
         21   -1    0    0  502  501  0.00000000000E+00  0.00000000000E+00  0.30294057030E+03  0.30294057030E+03  0.00000000000E+00 0. -1.
         21   -1    0    0  501  502 -0.00000000000E+00 -0.00000000000E+00 -0.16938378840E+03  0.16938378840E+03  0.00000000000E+00 0. -1.
      99926    2    1    2    0    0 -0.14210854715E-13  0.00000000000E+00  0.13355678190E+03  0.47232435870E+03  0.45304843651E+03 0.  0.
      99925    2    3    3    0    0  0.65561139773E+02 -0.74509525773E+02  0.13682967574E+03  0.31261164031E+03  0.26297099653E+03 0.  0.
         25    1    4    4    0    0  0.70926912546E+02 -0.34518254485E+02  0.54981608559E+02  0.15777395918E+03  0.12509000000E+03 0.  0.
         25    1    3    3    0    0 -0.65561139773E+02  0.74509525773E+02 -0.32728938392E+01  0.15971271838E+03  0.12509000000E+03 0.  0.
         25    1    4    4    0    0 -0.53657727732E+01 -0.39991271288E+02  0.81848067183E+02  0.15483768113E+03  0.12509000000E+03 0.  0.
<mgrwt>
<rscale>  2 0.45304844E+03</rscale>
<asrwt>0</asrwt>
<pdfrwt beam="1">  1       21 0.44550084E-01 0.45304844E+03</pdfrwt>
<pdfrwt beam="2">  1       21 0.24909381E-01 0.45304844E+03</pdfrwt>
<totfact> 0.68315060E+04</totfact>
</mgrwt>
</event>
<event>
 7    0  0.4725730E-002  0.4544021E+03  0.7546771E-02  0.1026417E+00
         21   -1    0    0  502  501  0.00000000000E+00  0.00000000000E+00  0.13174603700E+03  0.13174603700E+03  0.00000000000E+00 0.  1.
         21   -1    0    0  501  502 -0.00000000000E+00 -0.00000000000E+00 -0.39181688899E+03  0.39181688899E+03  0.00000000000E+00 0.  1.
      99926    2    1    2    0    0  0.00000000000E+00  0.00000000000E+00 -0.26007085199E+03  0.52356292598E+03  0.45440212302E+03 0.  0.
      99925    2    3    3    0    0 -0.82449658222E+02  0.27962675473E+02 -0.81283252452E+02  0.28863235920E+03  0.26291027802E+03 0.  0.
         25    1    4    4    0    0 -0.40623021162E+01 -0.64342954775E+01 -0.39615709505E+02  0.13143369049E+03  0.12509000000E+03 0.  0.
         25    1    4    4    0    0 -0.78387356105E+02  0.34396970950E+02 -0.41667542947E+02  0.15719866871E+03  0.12509000000E+03 0.  0.
         25    1    3    3    0    0  0.82449658222E+02 -0.27962675473E+02 -0.17878759954E+03  0.23493056679E+03  0.12509000000E+03 0.  0.
<mgrwt>
<rscale>  2 0.45440212E+03</rscale>
<asrwt>0</asrwt>
<pdfrwt beam="1">  1       21 0.19374417E-01 0.45440212E+03</pdfrwt>
<pdfrwt beam="2">  1       21 0.57620131E-01 0.45440212E+03</pdfrwt>
<totfact> 0.63946903E+04</totfact>
</mgrwt>
</event>
<event>
 7    0  0.4725730E-002  0.4129210E+03  0.7546771E-02  0.1039395E+00
         21   -1    0    0  502  501  0.00000000000E+00  0.00000000000E+00  0.78092261566E+02  0.78092261566E+02  0.00000000000E+00 0. -1.
         21   -1    0    0  501  502 -0.00000000000E+00 -0.00000000000E+00 -0.54584083353E+03  0.54584083353E+03  0.00000000000E+00 0. -1.
      99926    2    1    2    0    0  0.35527136788E-14  0.00000000000E+00 -0.46774857196E+03  0.62393309509E+03  0.41292103432E+03 0.  0.
      99925    2    3    3    0    0 -0.28370386160E+02 -0.57611028443E+02 -0.33300458356E+03  0.42918361520E+03  0.26302587985E+03 0.  0.
         25    1    4    4    0    0 -0.51177884544E+02 -0.45986096286E+02 -0.16558593948E+03  0.21863235893E+03  0.12509000000E+03 0.  0.
         25    1    4    4    0    0  0.22807498384E+02 -0.11624932157E+02 -0.16741864408E+03  0.21055125627E+03  0.12509000000E+03 0.  0.
         25    1    3    3    0    0  0.28370386160E+02  0.57611028443E+02 -0.13474398840E+03  0.19474947990E+03  0.12509000000E+03 0.  0.
<mgrwt>
<rscale>  2 0.41292103E+03</rscale>
<asrwt>0</asrwt>
<pdfrwt beam="1">  1       21 0.11484156E-01 0.41292103E+03</pdfrwt>
<pdfrwt beam="2">  1       21 0.80270710E-01 0.41292103E+03</pdfrwt>
<totfact> 0.80936982E+04</totfact>
</mgrwt>
</event>
<event>
 7    0  0.4725730E-002  0.4487956E+03  0.7546771E-02  0.1028082E+00
         21   -1    0    0  502  501  0.00000000000E+00  0.00000000000E+00  0.11760240537E+03  0.11760240537E+03  0.00000000000E+00 0. -1.
         21   -1    0    0  501  502 -0.00000000000E+00 -0.00000000000E+00 -0.42817472905E+03  0.42817472905E+03  0.00000000000E+00 0. -1.
      99926    2    1    2    0    0  0.00000000000E+00  0.00000000000E+00 -0.31057232369E+03  0.54577713442E+03  0.44879562411E+03 0.  0.
      99925    2    3    3    0    0 -0.28438065327E+02  0.87577427481E+01 -0.71215433028E+02  0.27407021360E+03  0.26297798855E+03 0.  0.
         25    1    4    4    0    0  0.16906376149E+02  0.13532297465E+02 -0.94542951461E+01  0.12730216191E+03  0.12509000000E+03 0.  0.
         25    1    3    3    0    0  0.28438065327E+02 -0.87577427481E+01 -0.23935689066E+03  0.27170692082E+03  0.12509000000E+03 0.  0.
         25    1    4    4    0    0 -0.45344441476E+02 -0.47745547172E+01 -0.61761137882E+02  0.14676805169E+03  0.12509000000E+03 0.  0.
<mgrwt>
<rscale>  2 0.44879562E+03</rscale>
<asrwt>0</asrwt>
<pdfrwt beam="1">  1       21 0.17294471E-01 0.44879562E+03</pdfrwt>
<pdfrwt beam="2">  1       21 0.62966873E-01 0.44879562E+03</pdfrwt>
<totfact> 0.65293329E+04</totfact>
</mgrwt>
</event>
<event>
 7    0  0.4725730E-002  0.4551276E+03  0.7546771E-02  0.1026204E+00
         21   -1    0    0  502  501  0.00000000000E+00  0.00000000000E+00  0.19215505124E+03  0.19215505124E+03  0.00000000000E+00 0. -1.
         21   -1    0    0  501  502 -0.00000000000E+00 -0.00000000000E+00 -0.26949736604E+03  0.26949736604E+03  0.00000000000E+00 0. -1.
      99926    2    1    2    0    0  0.00000000000E+00  0.00000000000E+00 -0.77342314799E+02  0.46165241728E+03  0.45512758730E+03 0.  0.
      99925    2    3    3    0    0 -0.11065800256E+03  0.13983650042E+02 -0.68715792883E+02  0.29383507319E+03  0.26301417081E+03 0.  0.
         25    1    3    3    0    0  0.11065800256E+03 -0.13983650042E+02 -0.86265219163E+01  0.16781734409E+03  0.12509000000E+03 0.  0.
         25    1    4    4    0    0 -0.26520540419E+02 -0.22404002031E+02 -0.20478996262E+02  0.13142364992E+03  0.12509000000E+03 0.  0.
         25    1    4    4    0    0 -0.84137462139E+02  0.36387652073E+02 -0.48236796621E+02  0.16241142326E+03  0.12509000000E+03 0.  0.
<mgrwt>
<rscale>  2 0.45512759E+03</rscale>
<asrwt>0</asrwt>
<pdfrwt beam="1">  1       21 0.28258096E-01 0.45512759E+03</pdfrwt>
<pdfrwt beam="2">  1       21 0.39631966E-01 0.45512759E+03</pdfrwt>
<totfact> 0.67990321E+04</totfact>
</mgrwt>
</event>
<event>
 7    0  0.4725730E-002  0.4548964E+03  0.7546771E-02  0.1026272E+00
         21   -1    0    0  502  501  0.00000000000E+00  0.00000000000E+00  0.21368475783E+03  0.21368475783E+03  0.00000000000E+00 0. -1.
         21   -1    0    0  501  502 -0.00000000000E+00 -0.00000000000E+00 -0.24209812561E+03  0.24209812561E+03  0.00000000000E+00 0. -1.
      99926    2    1    2    0    0  0.71054273576E-14  0.00000000000E+00 -0.28413367782E+02  0.45578288345E+03  0.45489638092E+03 0.  0.
      99925    2    3    3    0    0  0.56331545167E+02  0.12062017755E+02  0.79046126567E+02  0.28110092594E+03  0.26353501700E+03 0.  0.
         25    1    4    4    0    0 -0.10391749899E+02 -0.50002617299E+01  0.23045916377E+02  0.12771692701E+03  0.12509000000E+03 0.  0.
         25    1    4    4    0    0  0.66723295066E+02  0.17062279485E+02  0.56000210189E+02  0.15338399893E+03  0.12509000000E+03 0.  0.
         25    1    3    3    0    0 -0.56331545167E+02 -0.12062017755E+02 -0.10745949435E+03  0.17468195751E+03  0.12509000000E+03 0.  0.
<mgrwt>
<rscale>  2 0.45489638E+03</rscale>
<asrwt>0</asrwt>
<pdfrwt beam="1">  1       21 0.31424229E-01 0.45489638E+03</pdfrwt>
<pdfrwt beam="2">  1       21 0.35602666E-01 0.45489638E+03</pdfrwt>
<totfact> 0.68545165E+04</totfact>
</mgrwt>
</event>
<event>
 7    0  0.4725730E-002  0.4522820E+03  0.7546771E-02  0.1027044E+00
         21   -1    0    0  502  501  0.00000000000E+00  0.00000000000E+00  0.26080517719E+03  0.26080517719E+03  0.00000000000E+00 0. -1.
         21   -1    0    0  501  502 -0.00000000000E+00 -0.00000000000E+00 -0.19608409372E+03  0.19608409372E+03  0.00000000000E+00 0. -1.
      99926    2    1    2    0    0  0.14210854715E-13 -0.35527136788E-14  0.64721083479E+02  0.45688927091E+03  0.45228197756E+03 0.  0.
      99925    2    3    3    0    0 -0.10092510684E+03  0.17683790945E+02  0.83406536082E+02  0.29411566159E+03  0.26277134257E+03 0.  0.
         25    1    4    4    0    0 -0.16197860128E+02 -0.16271748899E+02  0.36399206070E+02  0.13228586768E+03  0.12509000000E+03 0.  0.
         25    1    3    3    0    0  0.10092510684E+03 -0.17683790945E+02 -0.18685452603E+02  0.16277360932E+03  0.12509000000E+03 0.  0.
         25    1    4    4    0    0 -0.84727246713E+02  0.33955539844E+02  0.47007330013E+02  0.16182979391E+03  0.12509000000E+03 0.  0.
<mgrwt>
<rscale>  2 0.45228198E+03</rscale>
<asrwt>0</asrwt>
<pdfrwt beam="1">  1       21 0.38353703E-01 0.45228198E+03</pdfrwt>
<pdfrwt beam="2">  1       21 0.28835896E-01 0.45228198E+03</pdfrwt>
<totfact> 0.69910981E+04</totfact>
</mgrwt>
</event>
<event>
 7    0  0.4725730E-002  0.4357399E+03  0.7546771E-02  0.1032062E+00
         21   -1    0    0  502  501  0.00000000000E+00  0.00000000000E+00  0.41569561487E+03  0.41569561487E+03  0.00000000000E+00 0.  1.
         21   -1    0    0  501  502 -0.00000000000E+00 -0.00000000000E+00 -0.11418764911E+03  0.11418764911E+03  0.00000000000E+00 0.  1.
      99926    2    1    2    0    0  0.00000000000E+00  0.00000000000E+00  0.30150796576E+03  0.52988326399E+03  0.43573985363E+03 0.  0.
      99925    2    3    3    0    0  0.35903463889E+02  0.81647059760E+02  0.15721380875E+03  0.31911416537E+03  0.26298739093E+03 0.  0.
         25    1    3    3    0    0 -0.35903463889E+02 -0.81647059760E+02  0.14429415701E+03  0.21076909862E+03  0.12509000000E+03 0.  0.
         25    1    4    4    0    0 -0.17902426287E+02  0.47244548470E+02  0.56370754684E+02  0.14621119762E+03  0.12509000000E+03 0.  0.
         25    1    4    4    0    0  0.53805890176E+02  0.34402511290E+02  0.10084305406E+03  0.17290296774E+03  0.12509000000E+03 0.  0.
<mgrwt>
<rscale>  2 0.43573985E+03</rscale>
<asrwt>0</asrwt>
<pdfrwt beam="1">  1       21 0.61131708E-01 0.43573985E+03</pdfrwt>
<pdfrwt beam="2">  1       21 0.16792301E-01 0.43573985E+03</pdfrwt>
<totfact> 0.73846724E+04</totfact>
</mgrwt>
</event>
<event>
 7    0  0.4725730E-002  0.4726851E+03  0.7546771E-02  0.1021165E+00
         21   -1    0    0  502  501  0.00000000000E+00  0.00000000000E+00  0.10563934664E+04  0.10563934664E+04  0.00000000000E+00 0.  1.
         21   -1    0    0  501  502 -0.00000000000E+00 -0.00000000000E+00 -0.52875950462E+02  0.52875950462E+02  0.00000000000E+00 0.  1.
      99926    2    1    2    0    0  0.14210854715E-13  0.14210854715E-13  0.10035175159E+04  0.11092694168E+04  0.47268513239E+03 0.  0.
      99925    2    3    3    0    0  0.66268549750E+02  0.58357684351E+02  0.84279237551E+03  0.88728469018E+03  0.26301709680E+03 0.  0.
         25    1    4    4    0    0  0.34706996381E+02  0.70277471377E+02  0.46819416803E+03  0.49091423453E+03  0.12509000000E+03 0.  0.
         25    1    4    4    0    0  0.31561553369E+02 -0.11919787025E+02  0.37459820747E+03  0.39637045566E+03  0.12509000000E+03 0.  0.
         25    1    3    3    0    0 -0.66268549750E+02 -0.58357684351E+02  0.16072514040E+03  0.22198472665E+03  0.12509000000E+03 0.  0.
<mgrwt>
<rscale>  2 0.47268513E+03</rscale>
<asrwt>0</asrwt>
<pdfrwt beam="1">  1       21 0.15535197E+00 0.47268513E+03</pdfrwt>
<pdfrwt beam="2">  1       21 0.77758757E-02 0.47268513E+03</pdfrwt>
<totfact> 0.30712799E+04</totfact>
</mgrwt>
</event>
<event>
 7    0  0.4725730E-002  0.4480475E+03  0.7546771E-02  0.1028306E+00
         21   -1    0    0  502  501  0.00000000000E+00  0.00000000000E+00  0.35385672029E+03  0.35385672029E+03  0.00000000000E+00 0. -1.
         21   -1    0    0  501  502 -0.00000000000E+00 -0.00000000000E+00 -0.14182760040E+03  0.14182760040E+03  0.00000000000E+00 0. -1.
      99926    2    1    2    0    0  0.00000000000E+00  0.00000000000E+00  0.21202911989E+03  0.49568432068E+03  0.44804753999E+03 0.  0.
      99925    2    3    3    0    0  0.11380726081E+02 -0.10149857110E+03  0.10074846687E+03  0.29956605866E+03  0.26297925596E+03 0.  0.
         25    1    3    3    0    0 -0.11380726081E+02  0.10149857110E+03  0.11128065302E+03  0.19611826202E+03  0.12509000000E+03 0.  0.
         25    1    4    4    0    0  0.32827026838E+02 -0.21036288629E+02  0.58325947477E+02  0.14342093076E+03  0.12509000000E+03 0.  0.
         25    1    4    4    0    0 -0.21446300757E+02 -0.80462282473E+02  0.42422519395E+02  0.15614512791E+03  0.12509000000E+03 0.  0.
<mgrwt>
<rscale>  2 0.44804754E+03</rscale>
<asrwt>0</asrwt>
<pdfrwt beam="1">  1       21 0.52037753E-01 0.44804754E+03</pdfrwt>
<pdfrwt beam="2">  1       21 0.20857000E-01 0.44804754E+03</pdfrwt>
<totfact> 0.69322501E+04</totfact>
</mgrwt>
</event>
<event>
 7    0  0.4725730E-002  0.4644100E+03  0.7546771E-02  0.1023510E+00
         21   -1    0    0  502  501  0.00000000000E+00  0.00000000000E+00  0.56117100667E+02  0.56117100667E+02  0.00000000000E+00 0.  1.
         21   -1    0    0  501  502 -0.00000000000E+00 -0.00000000000E+00 -0.96083318802E+03  0.96083318802E+03  0.00000000000E+00 0.  1.
      99926    2    1    2    0    0  0.00000000000E+00  0.00000000000E+00 -0.90471608735E+03  0.10169502887E+04  0.46441004613E+03 0.  0.
      99925    2    3    3    0    0 -0.13016464479E+02 -0.78213530639E+02 -0.36258183666E+03  0.45495043228E+03  0.26311123662E+03 0.  0.
         25    1    4    4    0    0 -0.45555007649E+02 -0.29704871911E+02 -0.16884928345E+03  0.21706042191E+03  0.12509000000E+03 0.  0.
         25    1    3    3    0    0  0.13016464479E+02  0.78213530639E+02 -0.54213425069E+03  0.56199985640E+03  0.12509000000E+03 0.  0.
         25    1    4    4    0    0  0.32538543170E+02 -0.48508658728E+02 -0.19373255321E+03  0.23789001037E+03  0.12509000000E+03 0.  0.
<mgrwt>
<rscale>  2 0.46441005E+03</rscale>
<asrwt>0</asrwt>
<pdfrwt beam="1">  1       21 0.82525149E-02 0.46441005E+03</pdfrwt>
<pdfrwt beam="2">  1       21 0.14129900E+00 0.46441005E+03</pdfrwt>
<totfact> 0.35809513E+04</totfact>
</mgrwt>
</event>
<event>
 7    0  0.4725730E-002  0.4570124E+03  0.7546771E-02  0.1025651E+00
         21   -1    0    0  502  501  0.00000000000E+00  0.00000000000E+00  0.62850541776E+03  0.62850541776E+03  0.00000000000E+00 0.  1.
         21   -1    0    0  501  502 -0.00000000000E+00 -0.00000000000E+00 -0.83078186831E+02  0.83078186831E+02  0.00000000000E+00 0.  1.
      99926    2    1    2    0    0  0.00000000000E+00  0.00000000000E+00  0.54542723093E+03  0.71158360459E+03  0.45701243100E+03 0.  0.
      99925    2    3    3    0    0 -0.10144498914E+03  0.33209325687E+02  0.27470494932E+03  0.39483132442E+03  0.26274516252E+03 0.  0.
         25    1    4    4    0    0 -0.11197916388E+02  0.13197873822E+02  0.14523015355E+03  0.19245488512E+03  0.12509000000E+03 0.  0.
         25    1    3    3    0    0  0.10144498914E+03 -0.33209325687E+02  0.27072228161E+03  0.31675228017E+03  0.12509000000E+03 0.  0.
         25    1    4    4    0    0 -0.90247072751E+02  0.20011451865E+02  0.12947479577E+03  0.20237643930E+03  0.12509000000E+03 0.  0.
<mgrwt>
<rscale>  2 0.45701243E+03</rscale>
<asrwt>0</asrwt>
<pdfrwt beam="1">  1       21 0.92427265E-01 0.45701243E+03</pdfrwt>
<pdfrwt beam="2">  1       21 0.12217381E-01 0.45701243E+03</pdfrwt>
<totfact> 0.51458989E+04</totfact>
</mgrwt>
</event>
<event>
 7    0  0.4725730E-002  0.4155238E+03  0.7546771E-02  0.1038533E+00
         21   -1    0    0  502  501  0.00000000000E+00  0.00000000000E+00  0.94373290903E+02  0.94373290903E+02  0.00000000000E+00 0.  1.
         21   -1    0    0  501  502 -0.00000000000E+00 -0.00000000000E+00 -0.45738587066E+03  0.45738587066E+03  0.00000000000E+00 0.  1.
      99926    2    1    2    0    0  0.71054273576E-14  0.00000000000E+00 -0.36301257976E+03  0.55175916157E+03  0.41552381317E+03 0.  0.
      99925    2    3    3    0    0  0.62341649924E+02  0.31815866703E+02 -0.22475545835E+03  0.35260778595E+03  0.26252333985E+03 0.  0.
         25    1    4    4    0    0  0.13912108677E+02  0.23215959316E+02 -0.64099976113E+02  0.14313924190E+03  0.12509000000E+03 0.  0.
         25    1    3    3    0    0 -0.62341649924E+02 -0.31815866703E+02 -0.13825712141E+03  0.19915137561E+03  0.12509000000E+03 0.  0.
         25    1    4    4    0    0  0.48429541247E+02  0.85999073873E+01 -0.16065548224E+03  0.20946854405E+03  0.12509000000E+03 0.  0.
<mgrwt>
<rscale>  2 0.41552381E+03</rscale>
<asrwt>0</asrwt>
<pdfrwt beam="1">  1       21 0.13878425E-01 0.41552381E+03</pdfrwt>
<pdfrwt beam="2">  1       21 0.67262629E-01 0.41552381E+03</pdfrwt>
<totfact> 0.85478602E+04</totfact>
</mgrwt>
</event>
<event>
 7    0  0.4725730E-002  0.4970795E+03  0.7546771E-02  0.1014544E+00
         21   -1    0    0  502  501  0.00000000000E+00  0.00000000000E+00  0.17569729950E+03  0.17569729950E+03  0.00000000000E+00 0.  1.
         21   -1    0    0  501  502 -0.00000000000E+00 -0.00000000000E+00 -0.35158202668E+03  0.35158202668E+03  0.00000000000E+00 0.  1.
      99926    2    1    2    0    0  0.14210854715E-13  0.14210854715E-13 -0.17588472718E+03  0.52727932618E+03  0.49707952136E+03 0.  0.
      99925    2    3    3    0    0  0.75314430977E+02  0.10648123606E+03 -0.30216093440E+02  0.29516431998E+03  0.26305597568E+03 0.  0.
         25    1    4    4    0    0 -0.49523342805E+00  0.63696723737E+02 -0.25644673481E+02  0.14269784599E+03  0.12509000000E+03 0.  0.
         25    1    4    4    0    0  0.75809664405E+02  0.42784512319E+02 -0.45714199587E+01  0.15246647399E+03  0.12509000000E+03 0.  0.
         25    1    3    3    0    0 -0.75314430977E+02 -0.10648123606E+03 -0.14566863374E+03  0.23211500620E+03  0.12509000000E+03 0.  0.
<mgrwt>
<rscale>  2 0.49707952E+03</rscale>
<asrwt>0</asrwt>
<pdfrwt beam="1">  1       21 0.25837838E-01 0.49707952E+03</pdfrwt>
<pdfrwt beam="2">  1       21 0.51703239E-01 0.49707952E+03</pdfrwt>
<totfact> 0.46001413E+04</totfact>
</mgrwt>
</event>
<event>
 6    0  0.4725730E-002  0.4558529E+03  0.7546771E-02  0.1025991E+00
         21   -1    0    0  502  501  0.00000000000E+00  0.00000000000E+00  0.21097884491E+03  0.21097884491E+03  0.00000000000E+00 0.  1.
         21   -1    0    0  501  502 -0.00000000000E+00 -0.00000000000E+00 -0.24623545616E+03  0.24623545616E+03  0.00000000000E+00 0.  1.
      99926    2    1    2    0    0  0.14210854715E-13 -0.71054273576E-14 -0.35256611246E+02  0.45721430107E+03  0.45585292417E+03 0.  0.
         25    1    3    3    0    0  0.85087226246E+02  0.38116632171E+01 -0.18711821769E+02  0.15248608206E+03  0.12509000000E+03 0.  0.
         25    1    3    3    0    0  0.17961768399E+02 -0.38010504098E+02  0.24165701689E+02  0.13416002677E+03  0.12509000000E+03 0.  0.
         25    1    3    3    0    0 -0.10304899465E+03  0.34198840881E+02 -0.40710491165E+02  0.17056819225E+03  0.12509000000E+03 0.  0.
<mgrwt>
<rscale>  2 0.45585292E+03</rscale>
<asrwt>0</asrwt>
<pdfrwt beam="1">  1       21 0.31026301E-01 0.45585292E+03</pdfrwt>
<pdfrwt beam="2">  1       21 0.36211096E-01 0.45585292E+03</pdfrwt>
<totfact> 0.67920519E+04</totfact>
</mgrwt>
</event>
<event>
 7    0  0.4725730E-002  0.4593522E+03  0.7546771E-02  0.1024969E+00
         21   -1    0    0  502  501  0.00000000000E+00  0.00000000000E+00  0.33419210636E+03  0.33419210636E+03  0.00000000000E+00 0.  1.
         21   -1    0    0  501  502 -0.00000000000E+00 -0.00000000000E+00 -0.15784669725E+03  0.15784669725E+03  0.00000000000E+00 0.  1.
      99926    2    1    2    0    0  0.00000000000E+00 -0.19984014443E-14  0.17634540911E+03  0.49203880361E+03  0.45935224060E+03 0.  0.
      99925    2    3    3    0    0 -0.11296406064E+03 -0.16849665907E+01  0.14365170280E+03  0.32034109063E+03  0.26309482040E+03 0.  0.
         25    1    4    4    0    0 -0.65252398580E+02 -0.30928014296E+02  0.44296677725E+02  0.15107654135E+03  0.12509000000E+03 0.  0.
         25    1    4    4    0    0 -0.47711662062E+02  0.29243047705E+02  0.99355025070E+02  0.16926454928E+03  0.12509000000E+03 0.  0.
         25    1    3    3    0    0  0.11296406064E+03  0.16849665907E+01  0.32693706317E+02  0.17169771298E+03  0.12509000000E+03 0.  0.
<mgrwt>
<rscale>  2 0.45935224E+03</rscale>
<asrwt>0</asrwt>
<pdfrwt beam="1">  1       21 0.49145898E-01 0.45935224E+03</pdfrwt>
<pdfrwt beam="2">  1       21 0.23212750E-01 0.45935224E+03</pdfrwt>
<totfact> 0.63607390E+04</totfact>
</mgrwt>
</event>
<event>
 7    0  0.4725730E-002  0.4461613E+03  0.7546771E-02  0.1028873E+00
         21   -1    0    0  502  501  0.00000000000E+00  0.00000000000E+00  0.24272738618E+03  0.24272738618E+03  0.00000000000E+00 0.  1.
         21   -1    0    0  501  502 -0.00000000000E+00 -0.00000000000E+00 -0.20502413237E+03  0.20502413237E+03  0.00000000000E+00 0.  1.
      99926    2    1    2    0    0  0.35527136788E-14  0.00000000000E+00  0.37703253810E+02  0.44775151855E+03  0.44616127915E+03 0.  0.
      99925    2    3    3    0    0  0.21249950659E+02  0.10237611595E+03  0.19024135218E+02  0.28365140553E+03  0.26299006183E+03 0.  0.
         25    1    3    3    0    0 -0.21249950659E+02 -0.10237611595E+03  0.18679118592E+02  0.16410011301E+03  0.12509000000E+03 0.  0.
         25    1    4    4    0    0  0.43415458235E+02  0.77565324192E+02  0.14396034200E+02  0.15412993036E+03  0.12509000000E+03 0.  0.
         25    1    4    4    0    0 -0.22165507576E+02  0.24810791753E+02  0.46281010184E+01  0.12952147518E+03  0.12509000000E+03 0.  0.
<mgrwt>
<rscale>  2 0.44616128E+03</rscale>
<asrwt>0</asrwt>
<pdfrwt beam="1">  1       21 0.35695204E-01 0.44616128E+03</pdfrwt>
<pdfrwt beam="2">  1       21 0.30150608E-01 0.44616128E+03</pdfrwt>
<totfact> 0.74174617E+04</totfact>
</mgrwt>
</event>
<event>
 7    0  0.4725730E-002  0.4528811E+03  0.7546771E-02  0.1026866E+00
         21   -1    0    0  502  501  0.00000000000E+00  0.00000000000E+00  0.80224890418E+02  0.80224890418E+02  0.00000000000E+00 0.  1.
         21   -1    0    0  501  502 -0.00000000000E+00 -0.00000000000E+00 -0.63914487666E+03  0.63914487666E+03  0.00000000000E+00 0.  1.
      99926    2    1    2    0    0  0.00000000000E+00 -0.26645352591E-14 -0.55891998624E+03  0.71936976708E+03  0.45288112211E+03 0.  0.
      99925    2    3    3    0    0 -0.53796103421E+02  0.22167011942E+01 -0.19784345382E+03  0.33346472063E+03  0.26297861734E+03 0.  0.
         25    1    3    3    0    0  0.53796103421E+02 -0.22167011942E+01 -0.36107653242E+03  0.38590504645E+03  0.12509000000E+03 0.  0.
         25    1    4    4    0    0 -0.44222865064E+02  0.28691774029E+02 -0.13194101540E+03  0.18930086988E+03  0.12509000000E+03 0.  0.
         25    1    4    4    0    0 -0.95732383574E+01 -0.26475072834E+02 -0.65902438416E+02  0.14416385075E+03  0.12509000000E+03 0.  0.
<mgrwt>
<rscale>  2 0.45288112E+03</rscale>
<asrwt>0</asrwt>
<pdfrwt beam="1">  1       21 0.11797778E-01 0.45288112E+03</pdfrwt>
<pdfrwt beam="2">  1       21 0.93991890E-01 0.45288112E+03</pdfrwt>
<totfact> 0.52737393E+04</totfact>
</mgrwt>
</event>
<event>
 7    0  0.4725730E-002  0.4529191E+03  0.7546771E-02  0.1026855E+00
         21   -1    0    0  502  501  0.00000000000E+00  0.00000000000E+00  0.21494182095E+03  0.21494182095E+03  0.00000000000E+00 0.  1.
         21   -1    0    0  501  502 -0.00000000000E+00 -0.00000000000E+00 -0.23859451138E+03  0.23859451138E+03  0.00000000000E+00 0.  1.
      99926    2    1    2    0    0  0.00000000000E+00  0.00000000000E+00 -0.23652690431E+02  0.45353633233E+03  0.45291914839E+03 0.  0.
      99925    2    3    3    0    0 -0.53996243277E+02 -0.73085034213E+02 -0.78990310515E+02  0.28932069114E+03  0.26307789085E+03 0.  0.
         25    1    4    4    0    0 -0.51991994018E+02 -0.45322371219E+02 -0.74469271048E+02  0.16109148086E+03  0.12509000000E+03 0.  0.
         25    1    3    3    0    0  0.53996243277E+02  0.73085034213E+02  0.55337620083E+02  0.16421564119E+03  0.12509000000E+03 0.  0.
         25    1    4    4    0    0 -0.20042492588E+01 -0.27762662994E+02 -0.45210394661E+01  0.12822921028E+03  0.12509000000E+03 0.  0.
<mgrwt>
<rscale>  2 0.45291915E+03</rscale>
<asrwt>0</asrwt>
<pdfrwt beam="1">  1       21 0.31609091E-01 0.45291915E+03</pdfrwt>
<pdfrwt beam="2">  1       21 0.35087428E-01 0.45291915E+03</pdfrwt>
<totfact> 0.69804961E+04</totfact>
</mgrwt>
</event>
<event>
 7    0  0.4725730E-002  0.4571058E+03  0.7546771E-02  0.1025624E+00
         21   -1    0    0  502  501  0.00000000000E+00  0.00000000000E+00  0.18639142111E+03  0.18639142111E+03  0.00000000000E+00 0. -1.
         21   -1    0    0  501  502 -0.00000000000E+00 -0.00000000000E+00 -0.28025128425E+03  0.28025128425E+03  0.00000000000E+00 0. -1.
      99926    2    1    2    0    0  0.71054273576E-14 -0.71054273576E-14 -0.93859863135E+02  0.46664270537E+03  0.45710583081E+03 0.  0.
      99925    2    3    3    0    0  0.41963524170E+02 -0.59016893459E+02  0.32384638979E+02  0.27473357716E+03  0.26303201802E+03 0.  0.
         25    1    4    4    0    0  0.44587424671E+01 -0.51779466535E+02 -0.13497409275E+02  0.13612744652E+03  0.12509000000E+03 0.  0.
         25    1    3    3    0    0 -0.41963524170E+02  0.59016893459E+02 -0.12624450211E+03  0.19190912820E+03  0.12509000000E+03 0.  0.
         25    1    4    4    0    0  0.37504781703E+02 -0.72374269231E+01  0.45882048254E+02  0.13860613064E+03  0.12509000000E+03 0.  0.
<mgrwt>
<rscale>  2 0.45710583E+03</rscale>
<asrwt>0</asrwt>
<pdfrwt beam="1">  1       21 0.27410503E-01 0.45710583E+03</pdfrwt>
<pdfrwt beam="2">  1       21 0.41213424E-01 0.45710583E+03</pdfrwt>
<totfact> 0.66567203E+04</totfact>
</mgrwt>
</event>
<event>
 7    0  0.4725730E-002  0.4366631E+03  0.7546771E-02  0.1031776E+00
         21   -1    0    0  502  501  0.00000000000E+00  0.00000000000E+00  0.29142192322E+03  0.29142192322E+03  0.00000000000E+00 0.  1.
         21   -1    0    0  501  502 -0.00000000000E+00 -0.00000000000E+00 -0.16357269973E+03  0.16357269973E+03  0.00000000000E+00 0.  1.
      99926    2    1    2    0    0  0.35527136788E-14  0.00000000000E+00  0.12784922349E+03  0.45499462295E+03  0.43666312298E+03 0.  0.
      99925    2    3    3    0    0  0.25103901396E+02 -0.80923424202E+02  0.12669852690E+03  0.30390644124E+03  0.26292166488E+03 0.  0.
         25    1    4    4    0    0 -0.10059033991E+02 -0.60859102818E+02  0.35575606344E+02  0.14393799508E+03  0.12509000000E+03 0.  0.
         25    1    4    4    0    0  0.35162935387E+02 -0.20064321384E+02  0.91122920554E+02  0.15996844616E+03  0.12509000000E+03 0.  0.
         25    1    3    3    0    0 -0.25103901396E+02  0.80923424202E+02  0.11506965948E+01  0.15108818171E+03  0.12509000000E+03 0.  0.
<mgrwt>
<rscale>  2 0.43666312E+03</rscale>
<asrwt>0</asrwt>
<pdfrwt beam="1">  1       21 0.42856165E-01 0.43666312E+03</pdfrwt>
<pdfrwt beam="2">  1       21 0.24054809E-01 0.43666312E+03</pdfrwt>
<totfact> 0.79521316E+04</totfact>
</mgrwt>
</event>
<event>
 7    0  0.4725730E-002  0.4626147E+03  0.7546771E-02  0.1024026E+00
         21   -1    0    0  502  501  0.00000000000E+00  0.00000000000E+00  0.50401572859E+02  0.50401572859E+02  0.00000000000E+00 0.  1.
         21   -1    0    0  501  502 -0.00000000000E+00 -0.00000000000E+00 -0.10615359823E+04  0.10615359823E+04  0.00000000000E+00 0.  1.
      99926    2    1    2    0    0  0.00000000000E+00  0.00000000000E+00 -0.10111344094E+04  0.11119375551E+04  0.46261466969E+03 0.  0.
      99925    2    3    3    0    0 -0.22139860396E+02 -0.11498092261E+03 -0.56678383792E+03  0.63569630905E+03  0.26297355842E+03 0.  0.
         25    1    4    4    0    0 -0.28889789069E+02 -0.96476398573E+02 -0.29570016565E+03  0.33649429633E+03  0.12509000000E+03 0.  0.
         25    1    3    3    0    0  0.22139860396E+02  0.11498092261E+03 -0.44435057150E+03  0.47624124609E+03  0.12509000000E+03 0.  0.
         25    1    4    4    0    0  0.67499286733E+01 -0.18504524041E+02 -0.27108367227E+03  0.29920201272E+03  0.12509000000E+03 0.  0.
<mgrwt>
<rscale>  2 0.46261467E+03</rscale>
<asrwt>0</asrwt>
<pdfrwt beam="1">  1       21 0.74119963E-02 0.46261467E+03</pdfrwt>
<pdfrwt beam="2">  1       21 0.15610823E+00 0.46261467E+03</pdfrwt>
<totfact> 0.33071283E+04</totfact>
</mgrwt>
</event>
<event>
 7    0  0.4725730E-002  0.4545055E+03  0.7546771E-02  0.1026387E+00
         21   -1    0    0  502  501  0.00000000000E+00  0.00000000000E+00  0.23340322635E+03  0.23340322635E+03  0.00000000000E+00 0. -1.
         21   -1    0    0  501  502 -0.00000000000E+00 -0.00000000000E+00 -0.22126434140E+03  0.22126434140E+03  0.00000000000E+00 0. -1.
      99926    2    1    2    0    0  0.14210854715E-13  0.00000000000E+00  0.12138884942E+02  0.45466756775E+03  0.45450549462E+03 0.  0.
      99925    2    3    3    0    0  0.69991779365E+02 -0.75920863860E+02  0.52906688001E+02  0.28741820717E+03  0.26295870670E+03 0.  0.
         25    1    3    3    0    0 -0.69991779365E+02  0.75920863860E+02 -0.40767803059E+02  0.16724936058E+03  0.12509000000E+03 0.  0.
         25    1    4    4    0    0  0.73931763385E+02 -0.51636245956E+02  0.18097405685E+02  0.15526503704E+03  0.12509000000E+03 0.  0.
         25    1    4    4    0    0 -0.39399840203E+01 -0.24284617904E+02  0.34809282315E+02  0.13215317013E+03  0.12509000000E+03 0.  0.
<mgrwt>
<rscale>  2 0.45450549E+03</rscale>
<asrwt>0</asrwt>
<pdfrwt beam="1">  1       21 0.34324004E-01 0.45450549E+03</pdfrwt>
<pdfrwt beam="2">  1       21 0.32538874E-01 0.45450549E+03</pdfrwt>
<totfact> 0.68841382E+04</totfact>
</mgrwt>
</event>
<event>
 6    0  0.4725730E-002  0.4571360E+03  0.7546771E-02  0.1025615E+00
         21   -1    0    0  502  501  0.00000000000E+00  0.00000000000E+00  0.15112189839E+03  0.15112189839E+03  0.00000000000E+00 0. -1.
         21   -1    0    0  501  502 -0.00000000000E+00 -0.00000000000E+00 -0.34570325038E+03  0.34570325038E+03  0.00000000000E+00 0. -1.
      99926    2    1    2    0    0  0.00000000000E+00  0.00000000000E+00 -0.19458135199E+03  0.49682514877E+03  0.45713600373E+03 0.  0.
         25    1    3    3    0    0  0.96651721424E+02 -0.48998220061E+02 -0.36000486272E+02  0.16936919417E+03  0.12509000000E+03 0.  0.
         25    1    3    3    0    0 -0.89272079247E+02  0.19890448554E+02 -0.63396307210E+02  0.16742680175E+03  0.12509000000E+03 0.  0.
         25    1    3    3    0    0 -0.73796421766E+01  0.29107771507E+02 -0.95184558508E+02  0.16002915284E+03  0.12509000000E+03 0.  0.
<mgrwt>
<rscale>  2 0.45713600E+03</rscale>
<asrwt>0</asrwt>
<pdfrwt beam="1">  1       21 0.22223809E-01 0.45713600E+03</pdfrwt>
<pdfrwt beam="2">  1       21 0.50838713E-01 0.45713600E+03</pdfrwt>
<totfact> 0.64395404E+04</totfact>
</mgrwt>
</event>
<event>
 7    0  0.4725730E-002  0.4544211E+03  0.7546771E-02  0.1026412E+00
         21   -1    0    0  502  501  0.00000000000E+00  0.00000000000E+00  0.33883190514E+02  0.33883190514E+02  0.00000000000E+00 0. -1.
         21   -1    0    0  501  502 -0.00000000000E+00 -0.00000000000E+00 -0.15236059915E+04  0.15236059915E+04  0.00000000000E+00 0. -1.
      99926    2    1    2    0    0 -0.71054273576E-14  0.00000000000E+00 -0.14897228009E+04  0.15574891820E+04  0.45442109140E+03 0.  0.
      99925    2    3    3    0    0 -0.42838256033E+02  0.83597430839E+02 -0.11510756782E+04  0.11844569736E+04  0.26294383203E+03 0.  0.
         25    1    4    4    0    0 -0.37047715427E+02  0.65347789858E+02 -0.74370114362E+03  0.75787978333E+03  0.12509000000E+03 0.  0.
         25    1    4    4    0    0 -0.57905406057E+01  0.18249640981E+02 -0.40737453455E+03  0.42657719027E+03  0.12509000000E+03 0.  0.
         25    1    3    3    0    0  0.42838256033E+02 -0.83597430839E+02 -0.33864712278E+03  0.37303220838E+03  0.12509000000E+03 0.  0.
<mgrwt>
<rscale>  2 0.45442109E+03</rscale>
<asrwt>0</asrwt>
<pdfrwt beam="1">  1       21 0.49828220E-02 0.45442109E+03</pdfrwt>
<pdfrwt beam="2">  1       21 0.22405971E+00 0.45442109E+03</pdfrwt>
<totfact> 0.22505715E+04</totfact>
</mgrwt>
</event>
<event>
 7    0  0.4725730E-002  0.4521634E+03  0.7546771E-02  0.1027079E+00
         21   -1    0    0  502  501  0.00000000000E+00  0.00000000000E+00  0.21767877571E+03  0.21767877571E+03  0.00000000000E+00 0.  1.
         21   -1    0    0  501  502 -0.00000000000E+00 -0.00000000000E+00 -0.23480895077E+03  0.23480895077E+03  0.00000000000E+00 0.  1.
      99926    2    1    2    0    0  0.88817841970E-15  0.00000000000E+00 -0.17130175060E+02  0.45248772648E+03  0.45216335513E+03 0.  0.
      99925    2    3    3    0    0 -0.27451834038E+01 -0.10939825636E+03 -0.25976964292E+02  0.28605068641E+03  0.26301079445E+03 0.  0.
         25    1    3    3    0    0  0.27451834038E+01  0.10939825636E+03  0.88467892320E+01  0.16643704007E+03  0.12509000000E+03 0.  0.
         25    1    4    4    0    0  0.37458074613E+02 -0.58421861189E+02 -0.18312671947E+01  0.14306321280E+03  0.12509000000E+03 0.  0.
         25    1    4    4    0    0 -0.40203258017E+02 -0.50976395175E+02 -0.24145697097E+02  0.14298747361E+03  0.12509000000E+03 0.  0.
<mgrwt>
<rscale>  2 0.45216336E+03</rscale>
<asrwt>0</asrwt>
<pdfrwt beam="1">  1       21 0.32011585E-01 0.45216336E+03</pdfrwt>
<pdfrwt beam="2">  1       21 0.34530728E-01 0.45216336E+03</pdfrwt>
<totfact> 0.70308131E+04</totfact>
</mgrwt>
</event>
<event>
 7    0  0.4725730E-002  0.4493153E+03  0.7546771E-02  0.1027926E+00
         21   -1    0    0  502  501  0.00000000000E+00  0.00000000000E+00  0.48006674326E+02  0.48006674326E+02  0.00000000000E+00 0. -1.
         21   -1    0    0  501  502 -0.00000000000E+00 -0.00000000000E+00 -0.10513343826E+04  0.10513343826E+04  0.00000000000E+00 0. -1.
      99926    2    1    2    0    0  0.00000000000E+00  0.00000000000E+00 -0.10033277083E+04  0.10993410570E+04  0.44931533388E+03 0.  0.
      99925    2    3    3    0    0  0.80780638790E+02 -0.64847498694E+02 -0.56211384915E+03  0.62918375637E+03  0.26300096992E+03 0.  0.
         25    1    4    4    0    0  0.69150248435E+02 -0.51820342840E+02 -0.25163631775E+03  0.29399906344E+03  0.12509000000E+03 0.  0.
         25    1    4    4    0    0  0.11630390355E+02 -0.13027155854E+02 -0.31047753140E+03  0.33518469293E+03  0.12509000000E+03 0.  0.
         25    1    3    3    0    0 -0.80780638790E+02  0.64847498694E+02 -0.44121385916E+03  0.47015730060E+03  0.12509000000E+03 0.  0.
<mgrwt>
<rscale>  2 0.44931533E+03</rscale>
<asrwt>0</asrwt>
<pdfrwt beam="1">  1       21 0.70598051E-02 0.44931533E+03</pdfrwt>
<pdfrwt beam="2">  1       21 0.15460800E+00 0.44931533E+03</pdfrwt>
<totfact> 0.37136835E+04</totfact>
</mgrwt>
</event>
<event>
 7    0  0.4725730E-002  0.4561043E+03  0.7546771E-02  0.1025917E+00
         21   -1    0    0  502  501  0.00000000000E+00  0.00000000000E+00  0.10409778940E+04  0.10409778940E+04  0.00000000000E+00 0. -1.
         21   -1    0    0  501  502 -0.00000000000E+00 -0.00000000000E+00 -0.49960506771E+02  0.49960506771E+02  0.00000000000E+00 0. -1.
      99926    2    1    2    0    0  0.00000000000E+00 -0.71054273576E-14  0.99101738719E+03  0.10909384007E+04  0.45610430000E+03 0.  0.
      99925    2    3    3    0    0 -0.67301999920E+02  0.34960447998E+02  0.82728295496E+03  0.87137459562E+03  0.26295400017E+03 0.  0.
         25    1    3    3    0    0  0.67301999920E+02 -0.34960447998E+02  0.16373443223E+03  0.21956380511E+03  0.12509000000E+03 0.  0.
         25    1    4    4    0    0 -0.53152515629E+02  0.24706426904E+02  0.54299874257E+03  0.56029522574E+03  0.12509000000E+03 0.  0.
         25    1    4    4    0    0 -0.14149484291E+02  0.10254021094E+02  0.28428421238E+03  0.31107936988E+03  0.12509000000E+03 0.  0.
<mgrwt>
<rscale>  2 0.45610430E+03</rscale>
<asrwt>0</asrwt>
<pdfrwt beam="1">  1       21 0.15308497E+00 0.45610430E+03</pdfrwt>
<pdfrwt beam="2">  1       21 0.73471340E-02 0.45610430E+03</pdfrwt>
<totfact> 0.35503198E+04</totfact>
</mgrwt>
</event>
<event>
 6    0  0.4725730E-002  0.4544969E+03  0.7546771E-02  0.1026389E+00
         21   -1    0    0  502  501  0.00000000000E+00  0.00000000000E+00  0.69835469064E+02  0.69835469064E+02  0.00000000000E+00 0.  1.
         21   -1    0    0  501  502 -0.00000000000E+00 -0.00000000000E+00 -0.73947908043E+03  0.73947908043E+03  0.00000000000E+00 0.  1.
      99926    2    1    2    0    0  0.00000000000E+00  0.00000000000E+00 -0.66964361137E+03  0.80931454950E+03  0.45449694584E+03 0.  0.
         25    1    3    3    0    0  0.16071561672E+02  0.85609030107E+02 -0.32516111391E+03  0.35911621967E+03  0.12509000000E+03 0.  0.
         25    1    3    3    0    0  0.79976821695E+00  0.18106268611E+02 -0.15557160197E+03  0.20044577329E+03  0.12509000000E+03 0.  0.
         25    1    3    3    0    0 -0.16871329889E+02 -0.10371529872E+03 -0.18891089549E+03  0.24975255653E+03  0.12509000000E+03 0.  0.
<mgrwt>
<rscale>  2 0.45449695E+03</rscale>
<asrwt>0</asrwt>
<pdfrwt beam="1">  1       21 0.10269921E-01 0.45449695E+03</pdfrwt>
<pdfrwt beam="2">  1       21 0.10874694E+00 0.45449695E+03</pdfrwt>
<totfact> 0.47504821E+04</totfact>
</mgrwt>
</event>
<event>
 7    0  0.4725730E-002  0.4538549E+03  0.7546771E-02  0.1026579E+00
         21   -1    0    0  502  501  0.00000000000E+00  0.00000000000E+00  0.13713974874E+03  0.13713974874E+03  0.00000000000E+00 0. -1.
         21   -1    0    0  501  502 -0.00000000000E+00 -0.00000000000E+00 -0.37550068073E+03  0.37550068073E+03  0.00000000000E+00 0. -1.
      99926    2    1    2    0    0 -0.14210854715E-13  0.88817841970E-15 -0.23836093199E+03  0.51264042947E+03  0.45385490636E+03 0.  0.
      99925    2    3    3    0    0 -0.11096409555E+03 -0.60399878249E+01 -0.16666760994E+03  0.33060484921E+03  0.26300563144E+03 0.  0.
         25    1    3    3    0    0  0.11096409555E+03  0.60399878249E+01 -0.71693322055E+02  0.18203558026E+03  0.12509000000E+03 0.  0.
         25    1    4    4    0    0 -0.81567871632E+02 -0.35184283877E+02 -0.81667867839E+02  0.17380563930E+03  0.12509000000E+03 0.  0.
         25    1    4    4    0    0 -0.29396223916E+02  0.29144296052E+02 -0.84999742100E+02  0.15679920991E+03  0.12509000000E+03 0.  0.
<mgrwt>
<rscale>  2 0.45385491E+03</rscale>
<asrwt>0</asrwt>
<pdfrwt beam="1">  1       21 0.20167610E-01 0.45385491E+03</pdfrwt>
<pdfrwt beam="2">  1       21 0.55220687E-01 0.45385491E+03</pdfrwt>
<totfact> 0.64979909E+04</totfact>
</mgrwt>
</event>
<event>
 7    0  0.4725730E-002  0.4515395E+03  0.7546771E-02  0.1027264E+00
         21   -1    0    0  502  501  0.00000000000E+00  0.00000000000E+00  0.75245681019E+02  0.75245681019E+02  0.00000000000E+00 0.  1.
         21   -1    0    0  501  502 -0.00000000000E+00 -0.00000000000E+00 -0.67740731391E+03  0.67740731391E+03  0.00000000000E+00 0.  1.
      99926    2    1    2    0    0  0.00000000000E+00  0.00000000000E+00 -0.60216163289E+03  0.75265299493E+03  0.45153947629E+03 0.  0.
      99925    2    3    3    0    0 -0.90167766070E+02 -0.36794454220E+02 -0.29528327546E+03  0.40724614459E+03  0.26300789270E+03 0.  0.
         25    1    4    4    0    0 -0.56953716286E+02  0.14877331613E+02 -0.11809491725E+03  0.18182128141E+03  0.12509000000E+03 0.  0.
         25    1    4    4    0    0 -0.33214049784E+02 -0.51671785833E+02 -0.17718835821E+03  0.22542486318E+03  0.12509000000E+03 0.  0.
         25    1    3    3    0    0  0.90167766070E+02  0.36794454220E+02 -0.30687835743E+03  0.34540685034E+03  0.12509000000E+03 0.  0.
<mgrwt>
<rscale>  2 0.45153948E+03</rscale>
<asrwt>0</asrwt>
<pdfrwt beam="1">  1       21 0.11065541E-01 0.45153948E+03</pdfrwt>
<pdfrwt beam="2">  1       21 0.99618725E-01 0.45153948E+03</pdfrwt>
<totfact> 0.51522712E+04</totfact>
</mgrwt>
</event>
<event>
 7    0  0.4725730E-002  0.4524808E+03  0.7546771E-02  0.1026985E+00
         21   -1    0    0  502  501  0.00000000000E+00  0.00000000000E+00  0.47407588880E+02  0.47407588880E+02  0.00000000000E+00 0. -1.
         21   -1    0    0  501  502 -0.00000000000E+00 -0.00000000000E+00 -0.10796732995E+04  0.10796732995E+04  0.00000000000E+00 0. -1.
      99926    2    1    2    0    0  0.14210854715E-13 -0.71054273576E-14 -0.10322657106E+04  0.11270808884E+04  0.45248075277E+03 0.  0.
      99925    2    3    3    0    0 -0.78991796259E+02  0.50817692828E+02 -0.79736232562E+03  0.84485890100E+03  0.26301662017E+03 0.  0.
         25    1    4    4    0    0 -0.59039034414E+02 -0.91223534771E+01 -0.42239843172E+03  0.44456357041E+03  0.12509000000E+03 0.  0.
         25    1    3    3    0    0  0.78991796259E+02 -0.50817692828E+02 -0.23490338500E+03  0.28222198739E+03  0.12509000000E+03 0.  0.
         25    1    4    4    0    0 -0.19952761846E+02  0.59940046305E+02 -0.37496389390E+03  0.40029533058E+03  0.12509000000E+03 0.  0.
<mgrwt>
<rscale>  2 0.45248075E+03</rscale>
<asrwt>0</asrwt>
<pdfrwt beam="1">  1       21 0.69717037E-02 0.45248075E+03</pdfrwt>
<pdfrwt beam="2">  1       21 0.15877550E+00 0.45248075E+03</pdfrwt>
<totfact> 0.35243944E+04</totfact>
</mgrwt>
</event>
<event>
 7    0  0.4725730E-002  0.4555799E+03  0.7546771E-02  0.1026071E+00
         21   -1    0    0  502  501  0.00000000000E+00  0.00000000000E+00  0.56068446882E+03  0.56068446882E+03  0.00000000000E+00 0. -1.
         21   -1    0    0  501  502 -0.00000000000E+00 -0.00000000000E+00 -0.92544480258E+02  0.92544480258E+02  0.00000000000E+00 0. -1.
      99926    2    1    2    0    0  0.00000000000E+00  0.00000000000E+00  0.46813998856E+03  0.65322894907E+03  0.45557986240E+03 0.  0.
      99925    2    3    3    0    0  0.23424202744E+02  0.10712925346E+03  0.33756430583E+03  0.44175108442E+03  0.26299998059E+03 0.  0.
         25    1    3    3    0    0 -0.23424202744E+02 -0.10712925346E+03  0.13057568273E+03  0.21147786466E+03  0.12509000000E+03 0.  0.
         25    1    4    4    0    0  0.11165473969E+02  0.60033388792E+02  0.10943766461E+03  0.17706717966E+03  0.12509000000E+03 0.  0.
         25    1    4    4    0    0  0.12258728775E+02  0.47095864665E+02  0.22812664122E+03  0.26468390475E+03  0.12509000000E+03 0.  0.
<mgrwt>
<rscale>  2 0.45557986E+03</rscale>
<asrwt>0</asrwt>
<pdfrwt beam="1">  1       21 0.82453597E-01 0.45557986E+03</pdfrwt>
<pdfrwt beam="2">  1       21 0.13609483E-01 0.45557986E+03</pdfrwt>
<totfact> 0.55262649E+04</totfact>
</mgrwt>
</event>
<event>
 7    0  0.4725730E-002  0.4569979E+03  0.7546771E-02  0.1025656E+00
         21   -1    0    0  502  501  0.00000000000E+00  0.00000000000E+00  0.22499292661E+03  0.22499292661E+03  0.00000000000E+00 0. -1.
         21   -1    0    0  501  502 -0.00000000000E+00 -0.00000000000E+00 -0.23205959350E+03  0.23205959350E+03  0.00000000000E+00 0. -1.
      99926    2    1    2    0    0  0.00000000000E+00  0.00000000000E+00 -0.70666668948E+01  0.45705252011E+03  0.45699788660E+03 0.  0.
      99925    2    3    3    0    0 -0.99079128873E+02  0.25526434933E+02 -0.56842795034E+02  0.28795656010E+03  0.26309618868E+03 0.  0.
         25    1    4    4    0    0 -0.79600609935E+02  0.25318466768E+02 -0.58385576761E+02  0.16134951359E+03  0.12509000000E+03 0.  0.
         25    1    4    4    0    0 -0.19478518939E+02  0.20796816489E+00  0.15427817275E+01  0.12660704651E+03  0.12509000000E+03 0.  0.
         25    1    3    3    0    0  0.99079128873E+02 -0.25526434933E+02  0.49776128139E+02  0.16909596001E+03  0.12509000000E+03 0.  0.
<mgrwt>
<rscale>  2 0.45699789E+03</rscale>
<asrwt>0</asrwt>
<pdfrwt beam="1">  1       21 0.33087195E-01 0.45699789E+03</pdfrwt>
<pdfrwt beam="2">  1       21 0.34126411E-01 0.45699789E+03</pdfrwt>
<totfact> 0.67316181E+04</totfact>
</mgrwt>
</event>
<event>
 7    0  0.4725730E-002  0.4548094E+03  0.7546771E-02  0.1026297E+00
         21   -1    0    0  502  501  0.00000000000E+00  0.00000000000E+00  0.10648624214E+03  0.10648624214E+03  0.00000000000E+00 0.  1.
         21   -1    0    0  501  502 -0.00000000000E+00 -0.00000000000E+00 -0.48562992919E+03  0.48562992919E+03  0.00000000000E+00 0.  1.
      99926    2    1    2    0    0 -0.44408920985E-15  0.00000000000E+00 -0.37914368705E+03  0.59211617134E+03  0.45480943804E+03 0.  0.
      99925    2    3    3    0    0  0.27956113400E+01 -0.10957149302E+03 -0.27449473584E+03  0.39561518250E+03  0.26296441793E+03 0.  0.
         25    1    3    3    0    0 -0.27956113400E+01  0.10957149302E+03 -0.10464895121E+03  0.19650098884E+03  0.12509000000E+03 0.  0.
         25    1    4    4    0    0  0.30989428073E+02 -0.55384840156E+02 -0.17613988124E+03  0.22516791742E+03  0.12509000000E+03 0.  0.
         25    1    4    4    0    0 -0.28193816733E+02 -0.54186652862E+02 -0.98354854600E+02  0.17044726508E+03  0.12509000000E+03 0.  0.
<mgrwt>
<rscale>  2 0.45480944E+03</rscale>
<asrwt>0</asrwt>
<pdfrwt beam="1">  1       21 0.15659742E-01 0.45480944E+03</pdfrwt>
<pdfrwt beam="2">  1       21 0.71416164E-01 0.45480944E+03</pdfrwt>
<totfact> 0.59255369E+04</totfact>
</mgrwt>
</event>
<event>
 7    0  0.4725730E-002  0.4336457E+03  0.7546771E-02  0.1032714E+00
         21   -1    0    0  502  501  0.00000000000E+00  0.00000000000E+00  0.52068131541E+03  0.52068131541E+03  0.00000000000E+00 0.  1.
         21   -1    0    0  501  502 -0.00000000000E+00 -0.00000000000E+00 -0.90289691850E+02  0.90289691850E+02  0.00000000000E+00 0.  1.
      99926    2    1    2    0    0  0.00000000000E+00  0.00000000000E+00  0.43039162356E+03  0.61097100726E+03  0.43364573338E+03 0.  0.
      99925    2    3    3    0    0 -0.54420235159E+02 -0.33595457482E+02  0.36908799915E+03  0.45768741641E+03  0.26298593738E+03 0.  0.
         25    1    4    4    0    0 -0.44756373666E+02 -0.49731819105E+02  0.22462611638E+03  0.26567044825E+03  0.12509000000E+03 0.  0.
         25    1    3    3    0    0  0.54420235159E+02  0.33595457482E+02  0.61303624403E+02  0.15328359085E+03  0.12509000000E+03 0.  0.
         25    1    4    4    0    0 -0.96638614933E+01  0.16136361623E+02  0.14446188278E+03  0.19201696816E+03  0.12509000000E+03 0.  0.
<mgrwt>
<rscale>  2 0.43364573E+03</rscale>
<asrwt>0</asrwt>
<pdfrwt beam="1">  1       21 0.76570781E-01 0.43364573E+03</pdfrwt>
<pdfrwt beam="2">  1       21 0.13277896E-01 0.43364573E+03</pdfrwt>
<totfact> 0.68915796E+04</totfact>
</mgrwt>
</event>
<event>
 7    0  0.4725730E-002  0.4589604E+03  0.7546771E-02  0.1025083E+00
         21   -1    0    0  502  501  0.00000000000E+00  0.00000000000E+00  0.35361500490E+03  0.35361500490E+03  0.00000000000E+00 0. -1.
         21   -1    0    0  501  502 -0.00000000000E+00 -0.00000000000E+00 -0.14892230493E+03  0.14892230493E+03  0.00000000000E+00 0. -1.
      99926    2    1    2    0    0 -0.71054273576E-14 -0.17763568394E-14  0.20469269996E+03  0.50253730983E+03  0.45896039737E+03 0.  0.
      99925    2    3    3    0    0  0.47731551544E+02 -0.13895043457E+02  0.24410861554E+03  0.36227863543E+03  0.26303121537E+03 0.  0.
         25    1    4    4    0    0  0.46901684030E+02  0.15369189455E+02  0.15868192712E+03  0.20799865875E+03  0.12509000000E+03 0.  0.
         25    1    3    3    0    0 -0.47731551544E+02  0.13895043457E+02 -0.39415915574E+02  0.14025867441E+03  0.12509000000E+03 0.  0.
         25    1    4    4    0    0  0.82986751426E+00 -0.29264232913E+02  0.85426688422E+02  0.15427997667E+03  0.12509000000E+03 0.  0.
<mgrwt>
<rscale>  2 0.45896040E+03</rscale>
<asrwt>0</asrwt>
<pdfrwt beam="1">  1       21 0.52002207E-01 0.45896040E+03</pdfrwt>
<pdfrwt beam="2">  1       21 0.21900339E-01 0.45896040E+03</pdfrwt>
<totfact> 0.63086046E+04</totfact>
</mgrwt>
</event>
<event>
 7    0  0.4725730E-002  0.4561271E+03  0.7546771E-02  0.1025910E+00
         21   -1    0    0  502  501  0.00000000000E+00  0.00000000000E+00  0.63312504042E+03  0.63312504042E+03  0.00000000000E+00 0.  1.
         21   -1    0    0  501  502 -0.00000000000E+00 -0.00000000000E+00 -0.82152774381E+02  0.82152774381E+02  0.00000000000E+00 0.  1.
      99926    2    1    2    0    0  0.00000000000E+00  0.88817841970E-15  0.55097226604E+03  0.71527781481E+03  0.45612708142E+03 0.  0.
      99925    2    3    3    0    0  0.85442055797E+02 -0.65536010457E+01  0.46484916549E+03  0.54089894242E+03  0.26295175350E+03 0.  0.
         25    1    3    3    0    0 -0.85442055797E+02  0.65536010457E+01  0.86123100558E+02  0.17437887239E+03  0.12509000000E+03 0.  0.
         25    1    4    4    0    0  0.28452178631E+02 -0.19500996469E+02  0.29306565822E+03  0.32050710360E+03  0.12509000000E+03 0.  0.
         25    1    4    4    0    0  0.56989877166E+02  0.12947395423E+02  0.17178350727E+03  0.22039183882E+03  0.12509000000E+03 0.  0.
<mgrwt>
<rscale>  2 0.45612708E+03</rscale>
<asrwt>0</asrwt>
<pdfrwt beam="1">  1       21 0.93106621E-01 0.45612708E+03</pdfrwt>
<pdfrwt beam="2">  1       21 0.12081291E-01 0.45612708E+03</pdfrwt>
<totfact> 0.51622117E+04</totfact>
</mgrwt>
</event>
<event>
 7    0  0.4725730E-002  0.4529797E+03  0.7546771E-02  0.1026837E+00
         21   -1    0    0  502  501  0.00000000000E+00  0.00000000000E+00  0.61351205175E+03  0.61351205175E+03  0.00000000000E+00 0. -1.
         21   -1    0    0  501  502 -0.00000000000E+00 -0.00000000000E+00 -0.83613102624E+02  0.83613102624E+02  0.00000000000E+00 0. -1.
      99926    2    1    2    0    0  0.00000000000E+00  0.71054273576E-14  0.52989894912E+03  0.69712515437E+03  0.45297967347E+03 0.  0.
      99925    2    3    3    0    0 -0.49638968334E+02 -0.47480554923E+02  0.46883710654E+03  0.54190116463E+03  0.26292624342E+03 0.  0.
         25    1    4    4    0    0 -0.94022518003E+01 -0.61230845427E+02  0.24564473671E+03  0.28253577392E+03  0.12509000000E+03 0.  0.
         25    1    3    3    0    0  0.49638968334E+02  0.47480554923E+02  0.61061842585E+02  0.15522398975E+03  0.12509000000E+03 0.  0.
         25    1    4    4    0    0 -0.40236716533E+02  0.13750290503E+02  0.22319236983E+03  0.25936539071E+03  0.12509000000E+03 0.  0.
<mgrwt>
<rscale>  2 0.45297967E+03</rscale>
<asrwt>0</asrwt>
<pdfrwt beam="1">  1       21 0.90222358E-01 0.45297967E+03</pdfrwt>
<pdfrwt beam="2">  1       21 0.12296045E-01 0.45297967E+03</pdfrwt>
<totfact> 0.53911464E+04</totfact>
</mgrwt>
</event>
<event>
 7    0  0.4725730E-002  0.4574775E+03  0.7546771E-02  0.1025515E+00
         21   -1    0    0  502  501  0.00000000000E+00  0.00000000000E+00  0.10737773595E+04  0.10737773595E+04  0.00000000000E+00 0. -1.
         21   -1    0    0  501  502 -0.00000000000E+00 -0.00000000000E+00 -0.48726498611E+02  0.48726498611E+02  0.00000000000E+00 0. -1.
      99926    2    1    2    0    0 -0.71054273576E-14  0.00000000000E+00  0.10250508609E+04  0.11225038581E+04  0.45747747929E+03 0.  0.
      99925    2    3    3    0    0 -0.62496768614E+02  0.76493714889E+02  0.49669436996E+03  0.57062957522E+03  0.26297467647E+03 0.  0.
         25    1    4    4    0    0 -0.23065585832E+01  0.57096819765E+02  0.20293901964E+03  0.24514714119E+03  0.12509000000E+03 0.  0.
         25    1    4    4    0    0 -0.60190210031E+02  0.19396895124E+02  0.29375535031E+03  0.32548243403E+03  0.12509000000E+03 0.  0.
         25    1    3    3    0    0  0.62496768614E+02 -0.76493714889E+02  0.52835649090E+03  0.55187428286E+03  0.12509000000E+03 0.  0.
<mgrwt>
<rscale>  2 0.45747748E+03</rscale>
<asrwt>0</asrwt>
<pdfrwt beam="1">  1       21 0.15790842E+00 0.45747748E+03</pdfrwt>
<pdfrwt beam="2">  1       21 0.71656623E-02 0.45747748E+03</pdfrwt>
<totfact> 0.34051323E+04</totfact>
</mgrwt>
</event>
<event>
 7    0  0.4725730E-002  0.4555815E+03  0.7546771E-02  0.1026071E+00
         21   -1    0    0  502  501  0.00000000000E+00  0.00000000000E+00  0.81356748675E+02  0.81356748675E+02  0.00000000000E+00 0. -1.
         21   -1    0    0  501  502 -0.00000000000E+00 -0.00000000000E+00 -0.63779141097E+03  0.63779141097E+03  0.00000000000E+00 0. -1.
      99926    2    1    2    0    0  0.14210854715E-13  0.00000000000E+00 -0.55643466230E+03  0.71914815965E+03  0.45558154278E+03 0.  0.
      99925    2    3    3    0    0  0.81847032027E+02  0.73866445921E+02 -0.29978953001E+03  0.41309355584E+03  0.26194910782E+03 0.  0.
         25    1    3    3    0    0 -0.81847032027E+02 -0.73866445921E+02 -0.25664513229E+03  0.30605460381E+03  0.12509000000E+03 0.  0.
         25    1    4    4    0    0  0.81060525946E+02  0.41297743528E+02 -0.17223412211E+03  0.23149171347E+03  0.12509000000E+03 0.  0.
         25    1    4    4    0    0  0.78650608064E+00  0.32568702393E+02 -0.12755540790E+03  0.18160184237E+03  0.12509000000E+03 0.  0.
<mgrwt>
<rscale>  2 0.45558154E+03</rscale>
<asrwt>0</asrwt>
<pdfrwt beam="1">  1       21 0.11964228E-01 0.45558154E+03</pdfrwt>
<pdfrwt beam="2">  1       21 0.93792855E-01 0.45558154E+03</pdfrwt>
<totfact> 0.51639058E+04</totfact>
</mgrwt>
</event>
<event>
 7    0  0.4725730E-002  0.4524710E+03  0.7546771E-02  0.1026988E+00
         21   -1    0    0  502  501  0.00000000000E+00  0.00000000000E+00  0.27235921392E+03  0.27235921392E+03  0.00000000000E+00 0. -1.
         21   -1    0    0  501  502 -0.00000000000E+00 -0.00000000000E+00 -0.18792280863E+03  0.18792280863E+03  0.00000000000E+00 0. -1.
      99926    2    1    2    0    0  0.00000000000E+00 -0.99920072216E-15  0.84436405290E+02  0.46028202254E+03  0.45247103083E+03 0.  0.
      99925    2    3    3    0    0 -0.86117214088E+02  0.85603561837E+00  0.12392288877E+03  0.30336294201E+03  0.26316398854E+03 0.  0.
         25    1    3    3    0    0  0.86117214088E+02 -0.85603561837E+00 -0.39486483479E+02  0.15691908054E+03  0.12509000000E+03 0.  0.
         25    1    4    4    0    0 -0.33143018827E+02  0.39098002063E+02  0.70520153062E+02  0.15247200907E+03  0.12509000000E+03 0.  0.
         25    1    4    4    0    0 -0.52974195261E+02 -0.38241966445E+02  0.53402735707E+02  0.15089093294E+03  0.12509000000E+03 0.  0.
<mgrwt>
<rscale>  2 0.45247103E+03</rscale>
<asrwt>0</asrwt>
<pdfrwt beam="1">  1       21 0.40052826E-01 0.45247103E+03</pdfrwt>
<pdfrwt beam="2">  1       21 0.27635707E-01 0.45247103E+03</pdfrwt>
<totfact> 0.69549528E+04</totfact>
</mgrwt>
</event>
<event>
 7    0  0.4725730E-002  0.4451569E+03  0.7546771E-02  0.1029176E+00
         21   -1    0    0  502  501  0.00000000000E+00  0.00000000000E+00  0.13165864699E+04  0.13165864699E+04  0.00000000000E+00 0. -1.
         21   -1    0    0  501  502 -0.00000000000E+00 -0.00000000000E+00 -0.37628494906E+02  0.37628494906E+02  0.00000000000E+00 0. -1.
      99926    2    1    2    0    0 -0.14210854715E-13  0.17763568394E-14  0.12789579750E+04  0.13542149648E+04  0.44515690391E+03 0.  0.
      99925    2    3    3    0    0  0.10328748546E+03 -0.85290849793E+01  0.80621963743E+03  0.85434488784E+03  0.26300956952E+03 0.  0.
         25    1    4    4    0    0  0.24619991431E+02  0.26191450905E+02  0.40324344972E+03  0.42372741701E+03  0.12509000000E+03 0.  0.
         25    1    3    3    0    0 -0.10328748546E+03  0.85290849793E+01  0.47273833756E+03  0.49987007697E+03  0.12509000000E+03 0.  0.
         25    1    4    4    0    0  0.78667494026E+02 -0.34720535884E+02  0.40297618771E+03  0.43061747083E+03  0.12509000000E+03 0.  0.
<mgrwt>
<rscale>  2 0.44515690E+03</rscale>
<asrwt>0</asrwt>
<pdfrwt beam="1">  1       21 0.19361563E+00 0.44515690E+03</pdfrwt>
<pdfrwt beam="2">  1       21 0.55336031E-02 0.44515690E+03</pdfrwt>
<totfact> 0.29793221E+04</totfact>
</mgrwt>
</event>
<event>
 7    0  0.4725730E-002  0.4430323E+03  0.7546771E-02  0.1029820E+00
         21   -1    0    0  502  501  0.00000000000E+00  0.00000000000E+00  0.57292729114E+03  0.57292729114E+03  0.00000000000E+00 0. -1.
         21   -1    0    0  501  502 -0.00000000000E+00 -0.00000000000E+00 -0.85646831437E+02  0.85646831437E+02  0.00000000000E+00 0. -1.
      99926    2    1    2    0    0  0.00000000000E+00  0.00000000000E+00  0.48728045971E+03  0.65857412258E+03  0.44303231092E+03 0.  0.
      99925    2    3    3    0    0  0.21697914511E+02  0.97854315130E+02  0.28662499658E+03  0.40175436192E+03  0.26307111619E+03 0.  0.
         25    1    4    4    0    0  0.33952473050E+02  0.72725770527E+02  0.11702385810E+03  0.18916632784E+03  0.12509000000E+03 0.  0.
         25    1    4    4    0    0 -0.12254558538E+02  0.25128544603E+02  0.16960113848E+03  0.21258803408E+03  0.12509000000E+03 0.  0.
         25    1    3    3    0    0 -0.21697914511E+02 -0.97854315130E+02  0.20065546312E+03  0.25681976066E+03  0.12509000000E+03 0.  0.
<mgrwt>
<rscale>  2 0.44303231E+03</rscale>
<asrwt>0</asrwt>
<pdfrwt beam="1">  1       21 0.84254011E-01 0.44303231E+03</pdfrwt>
<pdfrwt beam="2">  1       21 0.12595123E-01 0.44303231E+03</pdfrwt>
<totfact> 0.60740400E+04</totfact>
</mgrwt>
</event>
<event>
 7    0  0.4725730E-002  0.4531636E+03  0.7546771E-02  0.1026783E+00
         21   -1    0    0  502  501  0.00000000000E+00  0.00000000000E+00  0.43481861079E+03  0.43481861079E+03  0.00000000000E+00 0. -1.
         21   -1    0    0  501  502 -0.00000000000E+00 -0.00000000000E+00 -0.11807064802E+03  0.11807064802E+03  0.00000000000E+00 0. -1.
      99926    2    1    2    0    0 -0.35527136788E-14  0.00000000000E+00  0.31674796277E+03  0.55288925881E+03  0.45316361349E+03 0.  0.
      99925    2    3    3    0    0 -0.25621872273E+02  0.29249423257E+02  0.71785896574E+02  0.27510169416E+03  0.26270842789E+03 0.  0.
         25    1    3    3    0    0  0.25621872273E+02 -0.29249423257E+02  0.24496206619E+03  0.27778756465E+03  0.12509000000E+03 0.  0.
         25    1    4    4    0    0 -0.50400862970E+02  0.18685952874E+02  0.51404642431E+02  0.14553129281E+03  0.12509000000E+03 0.  0.
         25    1    4    4    0    0  0.24778990697E+02  0.10563470383E+02  0.20381254143E+02  0.12957040135E+03  0.12509000000E+03 0.  0.
<mgrwt>
<rscale>  2 0.45316361E+03</rscale>
<asrwt>0</asrwt>
<pdfrwt beam="1">  1       21 0.63943913E-01 0.45316361E+03</pdfrwt>
<pdfrwt beam="2">  1       21 0.17363331E-01 0.45316361E+03</pdfrwt>
<totfact> 0.62580224E+04</totfact>
</mgrwt>
</event>
<event>
 7    0  0.4725730E-002  0.4346444E+03  0.7546771E-02  0.1032403E+00
         21   -1    0    0  502  501  0.00000000000E+00  0.00000000000E+00  0.88353781241E+02  0.88353781241E+02  0.00000000000E+00 0. -1.
         21   -1    0    0  501  502 -0.00000000000E+00 -0.00000000000E+00 -0.53454360642E+03  0.53454360642E+03  0.00000000000E+00 0. -1.
      99926    2    1    2    0    0  0.00000000000E+00  0.00000000000E+00 -0.44618982518E+03  0.62289738766E+03  0.43464444718E+03 0.  0.
      99925    2    3    3    0    0 -0.37430455331E+02 -0.38153258309E+02 -0.17750944328E+03  0.32174399515E+03  0.26296936296E+03 0.  0.
         25    1    4    4    0    0 -0.20197307766E+02 -0.20822411952E+01 -0.43164639185E+02  0.13387666393E+03  0.12509000000E+03 0.  0.
         25    1    3    3    0    0  0.37430455331E+02  0.38153258309E+02 -0.26868038189E+03  0.30115339251E+03  0.12509000000E+03 0.  0.
         25    1    4    4    0    0 -0.17233147565E+02 -0.36071017114E+02 -0.13434480410E+03  0.18786733122E+03  0.12509000000E+03 0.  0.
<mgrwt>
<rscale>  2 0.43464445E+03</rscale>
<asrwt>0</asrwt>
<pdfrwt beam="1">  1       21 0.12993203E-01 0.43464445E+03</pdfrwt>
<pdfrwt beam="2">  1       21 0.78609355E-01 0.43464445E+03</pdfrwt>
<totfact> 0.67501559E+04</totfact>
</mgrwt>
</event>
<event>
 7    0  0.4725730E-002  0.4559630E+03  0.7546771E-02  0.1025959E+00
         21   -1    0    0  502  501  0.00000000000E+00  0.00000000000E+00  0.66335948615E+03  0.66335948615E+03  0.00000000000E+00 0.  1.
         21   -1    0    0  501  502 -0.00000000000E+00 -0.00000000000E+00 -0.78352046683E+02  0.78352046683E+02  0.00000000000E+00 0.  1.
      99926    2    1    2    0    0  0.71054273576E-14 -0.35527136788E-14  0.58500743946E+03  0.74171153283E+03  0.45596303985E+03 0.  0.
      99925    2    3    3    0    0  0.46933675534E+02 -0.23774570640E+02  0.20391053686E+03  0.33717431899E+03  0.26332302261E+03 0.  0.
         25    1    3    3    0    0 -0.46933675534E+02  0.23774570640E+02  0.38109690261E+03  0.40453721384E+03  0.12509000000E+03 0.  0.
         25    1    4    4    0    0  0.19363649009E+02 -0.47845828507E+02  0.12841689832E+03  0.18655450164E+03  0.12509000000E+03 0.  0.
         25    1    4    4    0    0  0.27570026525E+02  0.24071257866E+02  0.75493638541E+02  0.15061981735E+03  0.12509000000E+03 0.  0.
<mgrwt>
<rscale>  2 0.45596304E+03</rscale>
<asrwt>0</asrwt>
<pdfrwt beam="1">  1       21 0.97552862E-01 0.45596304E+03</pdfrwt>
<pdfrwt beam="2">  1       21 0.11522360E-01 0.45596304E+03</pdfrwt>
<totfact> 0.50314118E+04</totfact>
</mgrwt>
</event>
<event>
 7    0  0.4725730E-002  0.4568748E+03  0.7546771E-02  0.1025692E+00
         21   -1    0    0  502  501  0.00000000000E+00  0.00000000000E+00  0.13446820701E+03  0.13446820701E+03  0.00000000000E+00 0. -1.
         21   -1    0    0  501  502 -0.00000000000E+00 -0.00000000000E+00 -0.38807427949E+03  0.38807427949E+03  0.00000000000E+00 0. -1.
      99926    2    1    2    0    0 -0.14210854715E-13 -0.53290705182E-14 -0.25360607248E+03  0.52254248650E+03  0.45687482991E+03 0.  0.
      99925    2    3    3    0    0 -0.11243399998E+03 -0.15142561811E+02 -0.13874394877E+03  0.31830851016E+03  0.26305840187E+03 0.  0.
         25    1    4    4    0    0 -0.83992034728E+02  0.23484127798E+02 -0.75529026955E+02  0.17017140820E+03  0.12509000000E+03 0.  0.
         25    1    4    4    0    0 -0.28441965250E+02 -0.38626689610E+02 -0.63214921815E+02  0.14813710196E+03  0.12509000000E+03 0.  0.
         25    1    3    3    0    0  0.11243399998E+03  0.15142561811E+02 -0.11486212371E+03  0.20423397634E+03  0.12509000000E+03 0.  0.
<mgrwt>
<rscale>  2 0.45687483E+03</rscale>
<asrwt>0</asrwt>
<pdfrwt beam="1">  1       21 0.19774737E-01 0.45687483E+03</pdfrwt>
<pdfrwt beam="2">  1       21 0.57069746E-01 0.45687483E+03</pdfrwt>
<totfact> 0.62775437E+04</totfact>
</mgrwt>
</event>
<event>
 7    0  0.4725730E-002  0.4547727E+03  0.7546771E-02  0.1026308E+00
         21   -1    0    0  502  501  0.00000000000E+00  0.00000000000E+00  0.62666970487E+03  0.62666970487E+03  0.00000000000E+00 0. -1.
         21   -1    0    0  501  502 -0.00000000000E+00 -0.00000000000E+00 -0.82506849455E+02  0.82506849455E+02  0.00000000000E+00 0. -1.
      99926    2    1    2    0    0  0.00000000000E+00  0.00000000000E+00  0.54416285542E+03  0.70917655433E+03  0.45477265968E+03 0.  0.
      99925    2    3    3    0    0 -0.11206621233E+03  0.12178573108E+02  0.35513565343E+03  0.45602453522E+03  0.26292563738E+03 0.  0.
         25    1    4    4    0    0 -0.20862014709E+02 -0.11984748131E+02  0.18632111691E+03  0.22570317798E+03  0.12509000000E+03 0.  0.
         25    1    3    3    0    0  0.11206621233E+03 -0.12178573108E+02  0.18902720199E+03  0.25315201911E+03  0.12509000000E+03 0.  0.
         25    1    4    4    0    0 -0.91204197620E+02  0.24163321239E+02  0.16881453653E+03  0.23032135724E+03  0.12509000000E+03 0.  0.
<mgrwt>
<rscale>  2 0.45477266E+03</rscale>
<asrwt>0</asrwt>
<pdfrwt beam="1">  1       21 0.92157307E-01 0.45477266E+03</pdfrwt>
<pdfrwt beam="2">  1       21 0.12133361E-01 0.45477266E+03</pdfrwt>
<totfact> 0.52501414E+04</totfact>
</mgrwt>
</event>
<event>
 7    0  0.4725730E-002  0.4627296E+03  0.7546771E-02  0.1023993E+00
         21   -1    0    0  502  501  0.00000000000E+00  0.00000000000E+00  0.27498496511E+03  0.27498496511E+03  0.00000000000E+00 0. -1.
         21   -1    0    0  501  502 -0.00000000000E+00 -0.00000000000E+00 -0.19466396694E+03  0.19466396694E+03  0.00000000000E+00 0. -1.
      99926    2    1    2    0    0  0.00000000000E+00 -0.71054273576E-14  0.80320998167E+02  0.46964893205E+03  0.46272957181E+03 0.  0.
      99925    2    3    3    0    0 -0.60773903900E+02 -0.43648332981E+02  0.14576679948E+03  0.30987000548E+03  0.26300725484E+03 0.  0.
         25    1    4    4    0    0 -0.18434185637E+02  0.13086826048E+02  0.89750600173E+02  0.15560772008E+03  0.12509000000E+03 0.  0.
         25    1    3    3    0    0  0.60773903900E+02  0.43648332981E+02 -0.65445801314E+02  0.15977892657E+03  0.12509000000E+03 0.  0.
         25    1    4    4    0    0 -0.42339718263E+02 -0.56735159029E+02  0.56016199307E+02  0.15426228540E+03  0.12509000000E+03 0.  0.
<mgrwt>
<rscale>  2 0.46272957E+03</rscale>
<asrwt>0</asrwt>
<pdfrwt beam="1">  1       21 0.40438966E-01 0.46272957E+03</pdfrwt>
<pdfrwt beam="2">  1       21 0.28627054E-01 0.46272957E+03</pdfrwt>
<totfact> 0.63475577E+04</totfact>
</mgrwt>
</event>
<event>
 7    0  0.4725730E-002  0.4792093E+03  0.7546771E-02  0.1019353E+00
         21   -1    0    0  502  501  0.00000000000E+00  0.00000000000E+00  0.22808156254E+02  0.22808156254E+02  0.00000000000E+00 0.  1.
         21   -1    0    0  501  502 -0.00000000000E+00 -0.00000000000E+00 -0.25170994707E+04  0.25170994707E+04  0.00000000000E+00 0.  1.
      99926    2    1    2    0    0 -0.14210854715E-13  0.00000000000E+00 -0.24942913144E+04  0.25399076269E+04  0.47920934062E+03 0.  0.
      99925    2    3    3    0    0 -0.85212685596E+02  0.40020756927E+02 -0.20479226396E+04  0.20668797581E+04  0.26294853810E+03 0.  0.
         25    1    4    4    0    0 -0.46434197690E+01  0.14865326066E+02 -0.80081115243E+03  0.81067166549E+03  0.12509000000E+03 0.  0.
         25    1    3    3    0    0  0.85212685596E+02 -0.40020756927E+02 -0.44636867479E+03  0.47302786885E+03  0.12509000000E+03 0.  0.
         25    1    4    4    0    0 -0.80569265827E+02  0.25155430861E+02 -0.12471114872E+04  0.12562080926E+04  0.12509000000E+03 0.  0.
<mgrwt>
<rscale>  2 0.47920934E+03</rscale>
<asrwt>0</asrwt>
<pdfrwt beam="1">  1       21 0.33541427E-02 0.47920934E+03</pdfrwt>
<pdfrwt beam="2">  1       21 0.37016146E+00 0.47920934E+03</pdfrwt>
<totfact> 0.56012340E+03</totfact>
</mgrwt>
</event>
<event>
 7    0  0.4725730E-002  0.4342324E+03  0.7546771E-02  0.1032531E+00
         21   -1    0    0  502  501  0.00000000000E+00  0.00000000000E+00  0.10912376630E+03  0.10912376630E+03  0.00000000000E+00 0.  1.
         21   -1    0    0  501  502 -0.00000000000E+00 -0.00000000000E+00 -0.43198137219E+03  0.43198137219E+03  0.00000000000E+00 0.  1.
      99926    2    1    2    0    0  0.00000000000E+00  0.00000000000E+00 -0.32285760590E+03  0.54110513849E+03  0.43423235394E+03 0.  0.
      99925    2    3    3    0    0 -0.50966657756E+01  0.39593539697E+02 -0.10350057852E+03  0.28545178344E+03  0.26301468880E+03 0.  0.
         25    1    4    4    0    0 -0.29549990037E+02  0.33749328015E+02 -0.23775300046E+02  0.13499997054E+03  0.12509000000E+03 0.  0.
         25    1    3    3    0    0  0.50966657756E+01 -0.39593539697E+02 -0.21935702738E+03  0.25565335505E+03  0.12509000000E+03 0.  0.
         25    1    4    4    0    0  0.24453324261E+02  0.58442116827E+01 -0.79725278473E+02  0.15045181290E+03  0.12509000000E+03 0.  0.
<mgrwt>
<rscale>  2 0.43423235E+03</rscale>
<asrwt>0</asrwt>
<pdfrwt beam="1">  1       21 0.16047613E-01 0.43423235E+03</pdfrwt>
<pdfrwt beam="2">  1       21 0.63526671E-01 0.43423235E+03</pdfrwt>
<totfact> 0.73870298E+04</totfact>
</mgrwt>
</event>
<event>
 7    0  0.4725730E-002  0.4572036E+03  0.7546771E-02  0.1025595E+00
         21   -1    0    0  502  501  0.00000000000E+00  0.00000000000E+00  0.11030894748E+03  0.11030894748E+03  0.00000000000E+00 0. -1.
         21   -1    0    0  501  502 -0.00000000000E+00 -0.00000000000E+00 -0.47374924045E+03  0.47374924045E+03  0.00000000000E+00 0. -1.
      99926    2    1    2    0    0  0.00000000000E+00  0.00000000000E+00 -0.36344029297E+03  0.58405818793E+03  0.45720358740E+03 0.  0.
      99925    2    3    3    0    0 -0.10307730800E+03 -0.50934295226E+02 -0.23623270894E+03  0.37181184193E+03  0.26309488625E+03 0.  0.
         25    1    3    3    0    0  0.10307730800E+03  0.50934295226E+02 -0.12720758403E+03  0.21224634600E+03  0.12509000000E+03 0.  0.
         25    1    4    4    0    0 -0.35719600177E+02 -0.29325248701E+02 -0.65259630074E+02  0.14846611555E+03  0.12509000000E+03 0.  0.
         25    1    4    4    0    0 -0.67357707826E+02 -0.21609046525E+02 -0.17097307887E+03  0.22334572638E+03  0.12509000000E+03 0.  0.
<mgrwt>
<rscale>  2 0.45720359E+03</rscale>
<asrwt>0</asrwt>
<pdfrwt beam="1">  1       21 0.16221904E-01 0.45720359E+03</pdfrwt>
<pdfrwt beam="2">  1       21 0.69669005E-01 0.45720359E+03</pdfrwt>
<totfact> 0.58642223E+04</totfact>
</mgrwt>
</event>
<event>
 7    0  0.4725730E-002  0.4531527E+03  0.7546771E-02  0.1026786E+00
         21   -1    0    0  502  501  0.00000000000E+00  0.00000000000E+00  0.24268408720E+02  0.24268408720E+02  0.00000000000E+00 0. -1.
         21   -1    0    0  501  502 -0.00000000000E+00 -0.00000000000E+00 -0.21153769150E+04  0.21153769150E+04  0.00000000000E+00 0. -1.
      99926    2    1    2    0    0 -0.71054273576E-14  0.00000000000E+00 -0.20911085062E+04  0.21396453237E+04  0.45315265229E+03 0.  0.
      99925    2    3    3    0    0  0.32345634751E+02 -0.39909517235E+02 -0.85118883908E+03  0.89237338109E+03  0.26299962330E+03 0.  0.
         25    1    4    4    0    0 -0.97305710799E+01 -0.49942466962E+02 -0.45892596553E+03  0.47838215263E+03  0.12509000000E+03 0.  0.
         25    1    3    3    0    0 -0.32345634751E+02  0.39909517235E+02 -0.12399196672E+04  0.12472719426E+04  0.12509000000E+03 0.  0.
         25    1    4    4    0    0  0.42076205831E+02  0.10032949727E+02 -0.39226287354E+03  0.41399122846E+03  0.12509000000E+03 0.  0.
<mgrwt>
<rscale>  2 0.45315265E+03</rscale>
<asrwt>0</asrwt>
<pdfrwt beam="1">  1       21 0.35688826E-02 0.45315265E+03</pdfrwt>
<pdfrwt beam="2">  1       21 0.31108493E+00 0.45315265E+03</pdfrwt>
<totfact> 0.11728240E+04</totfact>
</mgrwt>
</event>
<event>
 7    0  0.4725730E-002  0.4551304E+03  0.7546771E-02  0.1026203E+00
         21   -1    0    0  502  501  0.00000000000E+00  0.00000000000E+00  0.21928723734E+03  0.21928723734E+03  0.00000000000E+00 0. -1.
         21   -1    0    0  501  502 -0.00000000000E+00 -0.00000000000E+00 -0.23615560955E+03  0.23615560955E+03  0.00000000000E+00 0. -1.
      99926    2    1    2    0    0 -0.35527136788E-14  0.00000000000E+00 -0.16868372209E+02  0.45544284690E+03  0.45513036024E+03 0.  0.
      99925    2    3    3    0    0 -0.10353277034E+02 -0.15475594501E+02  0.10117284550E+03  0.28244596384E+03  0.26304580105E+03 0.  0.
         25    1    4    4    0    0  0.19940446239E+02  0.12079249204E+02  0.76683987589E+02  0.14856470547E+03  0.12509000000E+03 0.  0.
         25    1    4    4    0    0 -0.30293723273E+02 -0.27554843705E+02  0.24488857912E+02  0.13388125837E+03  0.12509000000E+03 0.  0.
         25    1    3    3    0    0  0.10353277034E+02  0.15475594501E+02 -0.11804121771E+03  0.17299688306E+03  0.12509000000E+03 0.  0.
<mgrwt>
<rscale>  2 0.45513036E+03</rscale>
<asrwt>0</asrwt>
<pdfrwt beam="1">  1       21 0.32248123E-01 0.45513036E+03</pdfrwt>
<pdfrwt beam="2">  1       21 0.34728766E-01 0.45513036E+03</pdfrwt>
<totfact> 0.68442162E+04</totfact>
</mgrwt>
</event>
<event>
 7    0  0.4725730E-002  0.4472698E+03  0.7546771E-02  0.1028539E+00
         21   -1    0    0  502  501  0.00000000000E+00  0.00000000000E+00  0.14454373795E+03  0.14454373795E+03  0.00000000000E+00 0. -1.
         21   -1    0    0  501  502 -0.00000000000E+00 -0.00000000000E+00 -0.34600308407E+03  0.34600308407E+03  0.00000000000E+00 0. -1.
      99926    2    1    2    0    0  0.00000000000E+00 -0.35527136788E-14 -0.20145934612E+03  0.49054682202E+03  0.44726984747E+03 0.  0.
      99925    2    3    3    0    0 -0.48974873711E+02 -0.24814230658E+02 -0.27785859165E+02  0.26958467035E+03  0.26246820040E+03 0.  0.
         25    1    4    4    0    0 -0.37983272199E+02  0.23139435471E+02 -0.25264382029E+02  0.13514421756E+03  0.12509000000E+03 0.  0.
         25    1    4    4    0    0 -0.10991601513E+02 -0.47953666129E+02 -0.25214771360E+01  0.13444045279E+03  0.12509000000E+03 0.  0.
         25    1    3    3    0    0  0.48974873711E+02  0.24814230658E+02 -0.17367348696E+03  0.22096215167E+03  0.12509000000E+03 0.  0.
<mgrwt>
<rscale>  2 0.44726985E+03</rscale>
<asrwt>0</asrwt>
<pdfrwt beam="1">  1       21 0.21256433E-01 0.44726985E+03</pdfrwt>
<pdfrwt beam="2">  1       21 0.50882805E-01 0.44726985E+03</pdfrwt>
<totfact> 0.70146817E+04</totfact>
</mgrwt>
</event>
<event>
 7    0  0.4725730E-002  0.4548897E+03  0.7546771E-02  0.1026274E+00
         21   -1    0    0  502  501  0.00000000000E+00  0.00000000000E+00  0.21990814100E+03  0.21990814100E+03  0.00000000000E+00 0. -1.
         21   -1    0    0  501  502 -0.00000000000E+00 -0.00000000000E+00 -0.23523990395E+03  0.23523990395E+03  0.00000000000E+00 0. -1.
      99926    2    1    2    0    0  0.14210854715E-13  0.17763568394E-14 -0.15331762954E+02  0.45514804495E+03  0.45488974474E+03 0.  0.
      99925    2    3    3    0    0 -0.96701475768E+02  0.14344952903E+02  0.47046960732E+02  0.28457381959E+03  0.26308152575E+03 0.  0.
         25    1    4    4    0    0 -0.50000538027E+02 -0.30653382750E+02  0.81256719074E+01  0.13839515281E+03  0.12509000000E+03 0.  0.
         25    1    3    3    0    0  0.96701475768E+02 -0.14344952903E+02 -0.62378723686E+02  0.17057422536E+03  0.12509000000E+03 0.  0.
         25    1    4    4    0    0 -0.46700937741E+02  0.44998335653E+02  0.38921288825E+02  0.14617866678E+03  0.12509000000E+03 0.  0.
<mgrwt>
<rscale>  2 0.45488974E+03</rscale>
<asrwt>0</asrwt>
<pdfrwt beam="1">  1       21 0.32339433E-01 0.45488974E+03</pdfrwt>
<pdfrwt beam="2">  1       21 0.34594103E-01 0.45488974E+03</pdfrwt>
<totfact> 0.68595286E+04</totfact>
</mgrwt>
</event>
<event>
 7    0  0.4725730E-002  0.4503514E+03  0.7546771E-02  0.1027617E+00
         21   -1    0    0  502  501  0.00000000000E+00  0.00000000000E+00  0.23727586083E+03  0.23727586083E+03  0.00000000000E+00 0. -1.
         21   -1    0    0  501  502 -0.00000000000E+00 -0.00000000000E+00 -0.21369263066E+03  0.21369263066E+03  0.00000000000E+00 0. -1.
      99926    2    1    2    0    0  0.00000000000E+00  0.35527136788E-14  0.23583230173E+02  0.45096849149E+03  0.45035143119E+03 0.  0.
      99925    2    3    3    0    0 -0.81705449911E+02 -0.21714020431E+02  0.83417514133E+02  0.28856489281E+03  0.26299037334E+03 0.  0.
         25    1    3    3    0    0  0.81705449911E+02  0.21714020431E+02 -0.59834283960E+02  0.16240359868E+03  0.12509000000E+03 0.  0.
         25    1    4    4    0    0 -0.74173130991E+02 -0.18827632950E+02  0.70021710433E+02  0.16250132663E+03  0.12509000000E+03 0.  0.
         25    1    4    4    0    0 -0.75323189209E+01 -0.28863874813E+01  0.13395803700E+02  0.12606356618E+03  0.12509000000E+03 0.  0.
<mgrwt>
<rscale>  2 0.45035143E+03</rscale>
<asrwt>0</asrwt>
<pdfrwt beam="1">  1       21 0.34893509E-01 0.45035143E+03</pdfrwt>
<pdfrwt beam="2">  1       21 0.31425387E-01 0.45035143E+03</pdfrwt>
<totfact> 0.71455948E+04</totfact>
</mgrwt>
</event>
<event>
 7    0  0.4725730E-002  0.4543202E+03  0.7546771E-02  0.1026442E+00
         21   -1    0    0  502  501  0.00000000000E+00  0.00000000000E+00  0.23900929566E+04  0.23900929566E+04  0.00000000000E+00 0. -1.
         21   -1    0    0  501  502 -0.00000000000E+00 -0.00000000000E+00 -0.21589831254E+02  0.21589831254E+02  0.00000000000E+00 0. -1.
      99926    2    1    2    0    0  0.00000000000E+00  0.54123372450E-15  0.23685031253E+04  0.24116827879E+04  0.45432016735E+03 0.  0.
      99925    2    3    3    0    0 -0.73184001328E+02  0.10208333642E+00  0.10384074310E+04  0.10737149360E+04  0.26309287807E+03 0.  0.
         25    1    3    3    0    0  0.73184001328E+02 -0.10208333642E+00  0.13300956943E+04  0.13379678519E+04  0.12509000000E+03 0.  0.
         25    1    4    4    0    0 -0.65438508551E+02 -0.29250363125E+02  0.52856455036E+03  0.54787386700E+03  0.12509000000E+03 0.  0.
         25    1    4    4    0    0 -0.77454927770E+01  0.29352446462E+02  0.50984288068E+03  0.52584106900E+03  0.12509000000E+03 0.  0.
<mgrwt>
<rscale>  2 0.45432017E+03</rscale>
<asrwt>0</asrwt>
<pdfrwt beam="1">  1       21 0.35148408E+00 0.45432017E+03</pdfrwt>
<pdfrwt beam="2">  1       21 0.31749768E-02 0.45432017E+03</pdfrwt>
<totfact> 0.81209132E+03</totfact>
</mgrwt>
</event>
<event>
 7    0  0.4725730E-002  0.4570796E+03  0.7546771E-02  0.1025632E+00
         21   -1    0    0  502  501  0.00000000000E+00  0.00000000000E+00  0.55958936846E+03  0.55958936846E+03  0.00000000000E+00 0. -1.
         21   -1    0    0  501  502 -0.00000000000E+00 -0.00000000000E+00 -0.93337090615E+02  0.93337090615E+02  0.00000000000E+00 0. -1.
      99926    2    1    2    0    0  0.00000000000E+00 -0.17763568394E-14  0.46625227784E+03  0.65292645907E+03  0.45707961491E+03 0.  0.
      99925    2    3    3    0    0 -0.75108557895E+01 -0.98036504210E+01  0.12933540778E+03  0.29332527728E+03  0.26298202613E+03 0.  0.
         25    1    4    4    0    0  0.42084425498E+01 -0.31566396008E+02  0.97879140858E+02  0.16199377352E+03  0.12509000000E+03 0.  0.
         25    1    4    4    0    0 -0.11719298339E+02  0.21762745587E+02  0.31456266920E+02  0.13133150375E+03  0.12509000000E+03 0.  0.
         25    1    3    3    0    0  0.75108557895E+01  0.98036504210E+01  0.33691687006E+03  0.35960118180E+03  0.12509000000E+03 0.  0.
<mgrwt>
<rscale>  2 0.45707961E+03</rscale>
<asrwt>0</asrwt>
<pdfrwt beam="1">  1       21 0.82292553E-01 0.45707961E+03</pdfrwt>
<pdfrwt beam="2">  1       21 0.13726043E-01 0.45707961E+03</pdfrwt>
<totfact> 0.54631470E+04</totfact>
</mgrwt>
</event>
<event>
 7    0  0.4725730E-002  0.4502617E+03  0.7546771E-02  0.1027644E+00
         21   -1    0    0  502  501  0.00000000000E+00  0.00000000000E+00  0.13378216534E+03  0.13378216534E+03  0.00000000000E+00 0. -1.
         21   -1    0    0  501  502 -0.00000000000E+00 -0.00000000000E+00 -0.37885389165E+03  0.37885389165E+03  0.00000000000E+00 0. -1.
      99926    2    1    2    0    0 -0.18873791419E-14  0.00000000000E+00 -0.24507172630E+03  0.51263605699E+03  0.45026167491E+03 0.  0.
      99925    2    3    3    0    0 -0.76236908815E+00 -0.10210953122E+03 -0.19719462110E+03  0.34421200029E+03  0.26300046574E+03 0.  0.
         25    1    3    3    0    0  0.76236908815E+00  0.10210953122E+03 -0.47877105202E+02  0.16842405670E+03  0.12509000000E+03 0.  0.
         25    1    4    4    0    0 -0.32991972380E+02 -0.34886399224E+02 -0.71641367776E+02  0.15193921406E+03  0.12509000000E+03 0.  0.
         25    1    4    4    0    0  0.32229603292E+02 -0.67223132000E+02 -0.12555325332E+03  0.19227278623E+03  0.12509000000E+03 0.  0.
<mgrwt>
<rscale>  2 0.45026167E+03</rscale>
<asrwt>0</asrwt>
<pdfrwt beam="1">  1       21 0.19673848E-01 0.45026167E+03</pdfrwt>
<pdfrwt beam="2">  1       21 0.55713807E-01 0.45026167E+03</pdfrwt>
<totfact> 0.66870845E+04</totfact>
</mgrwt>
</event>
<event>
 7    0  0.4725730E-002  0.4527724E+03  0.7546771E-02  0.1026898E+00
         21   -1    0    0  502  501  0.00000000000E+00  0.00000000000E+00  0.12176704661E+03  0.12176704661E+03  0.00000000000E+00 0.  1.
         21   -1    0    0  501  502 -0.00000000000E+00 -0.00000000000E+00 -0.42089152850E+03  0.42089152850E+03  0.00000000000E+00 0.  1.
      99926    2    1    2    0    0  0.00000000000E+00  0.66613381478E-15 -0.29912448190E+03  0.54265857511E+03  0.45277243011E+03 0.  0.
      99925    2    3    3    0    0 -0.34145716108E+02  0.15446589576E+01 -0.31523889941E+03  0.41198532440E+03  0.26303617225E+03 0.  0.
         25    1    4    4    0    0 -0.29287099856E+01 -0.15273171305E+02 -0.10163732319E+03  0.16192436713E+03  0.12509000000E+03 0.  0.
         25    1    4    4    0    0 -0.31217006122E+02  0.16817830263E+02 -0.21360157622E+03  0.25006095727E+03  0.12509000000E+03 0.  0.
         25    1    3    3    0    0  0.34145716108E+02 -0.15446589576E+01  0.16114417516E+02  0.13067325071E+03  0.12509000000E+03 0.  0.
<mgrwt>
<rscale>  2 0.45277243E+03</rscale>
<asrwt>0</asrwt>
<pdfrwt beam="1">  1       21 0.17906919E-01 0.45277243E+03</pdfrwt>
<pdfrwt beam="2">  1       21 0.61895812E-01 0.45277243E+03</pdfrwt>
<totfact> 0.63465628E+04</totfact>
</mgrwt>
</event>
<event>
 7    0  0.4725730E-002  0.4559012E+03  0.7546771E-02  0.1025977E+00
         21   -1    0    0  502  501  0.00000000000E+00  0.00000000000E+00  0.83400183870E+02  0.83400183870E+02  0.00000000000E+00 0.  1.
         21   -1    0    0  501  502 -0.00000000000E+00 -0.00000000000E+00 -0.62303790117E+03  0.62303790117E+03  0.00000000000E+00 0.  1.
      99926    2    1    2    0    0  0.00000000000E+00  0.00000000000E+00 -0.53963771730E+03  0.70643808504E+03  0.45590119770E+03 0.  0.
      99925    2    3    3    0    0  0.36892519110E+02  0.10779384270E+03 -0.32431167202E+03  0.43258888499E+03  0.26262999128E+03 0.  0.
         25    1    3    3    0    0 -0.36892519110E+02 -0.10779384270E+03 -0.21532604528E+03  0.27384920005E+03  0.12509000000E+03 0.  0.
         25    1    4    4    0    0 -0.19910575302E+02  0.49494783558E+02 -0.13622939139E+03  0.19248927187E+03  0.12509000000E+03 0.  0.
         25    1    4    4    0    0  0.56803094412E+02  0.58299059145E+02 -0.18808228063E+03  0.24009961312E+03  0.12509000000E+03 0.  0.
<mgrwt>
<rscale>  2 0.45590120E+03</rscale>
<asrwt>0</asrwt>
<pdfrwt beam="1">  1       21 0.12264733E-01 0.45590120E+03</pdfrwt>
<pdfrwt beam="2">  1       21 0.91623223E-01 0.45590120E+03</pdfrwt>
<totfact> 0.52183782E+04</totfact>
</mgrwt>
</event>
<event>
 7    0  0.4725730E-002  0.4545898E+03  0.7546771E-02  0.1026362E+00
         21   -1    0    0  502  501  0.00000000000E+00  0.00000000000E+00  0.65091229264E+02  0.65091229264E+02  0.00000000000E+00 0.  1.
         21   -1    0    0  501  502 -0.00000000000E+00 -0.00000000000E+00 -0.79370094061E+03  0.79370094061E+03  0.00000000000E+00 0.  1.
      99926    2    1    2    0    0  0.00000000000E+00  0.71054273576E-14 -0.72860971134E+03  0.85879216987E+03  0.45458979264E+03 0.  0.
      99925    2    3    3    0    0 -0.93388496243E+02  0.60069151346E+02 -0.42146081104E+03  0.50905273939E+03  0.26301285533E+03 0.  0.
         25    1    4    4    0    0 -0.69052205692E+02  0.22628705870E+02 -0.27902850142E+03  0.31430029931E+03  0.12509000000E+03 0.  0.
         25    1    3    3    0    0  0.93388496243E+02 -0.60069151346E+02 -0.30714890030E+03  0.34973943048E+03  0.12509000000E+03 0.  0.
         25    1    4    4    0    0 -0.24336290551E+02  0.37440445476E+02 -0.14243230962E+03  0.19475244008E+03  0.12509000000E+03 0.  0.
<mgrwt>
<rscale>  2 0.45458979E+03</rscale>
<asrwt>0</asrwt>
<pdfrwt beam="1">  1       21 0.95722390E-02 0.45458979E+03</pdfrwt>
<pdfrwt beam="2">  1       21 0.11672073E+00 0.45458979E+03</pdfrwt>
<totfact> 0.45193810E+04</totfact>
</mgrwt>
</event>
<event>
 7    0  0.4725730E-002  0.4555917E+03  0.7546771E-02  0.1026068E+00
         21   -1    0    0  502  501  0.00000000000E+00  0.00000000000E+00  0.16039613165E+04  0.16039613165E+04  0.00000000000E+00 0.  1.
         21   -1    0    0  501  502 -0.00000000000E+00 -0.00000000000E+00 -0.32351750205E+02  0.32351750205E+02  0.00000000000E+00 0.  1.
      99926    2    1    2    0    0  0.00000000000E+00  0.00000000000E+00  0.15716095663E+04  0.16363130667E+04  0.45559172885E+03 0.  0.
      99925    2    3    3    0    0 -0.79781426961E+02  0.72463091735E+02  0.11189619754E+04  0.11544901475E+04  0.26297456667E+03 0.  0.
         25    1    4    4    0    0 -0.20616398051E+02  0.16719872210E+02  0.39032267689E+03  0.41073579122E+03  0.12509000000E+03 0.  0.
         25    1    3    3    0    0  0.79781426961E+02 -0.72463091735E+02  0.45264759090E+03  0.48182291913E+03  0.12509000000E+03 0.  0.
         25    1    4    4    0    0 -0.59165028911E+02  0.55743219525E+02  0.72863929847E+03  0.74375435632E+03  0.12509000000E+03 0.  0.
<mgrwt>
<rscale>  2 0.45559173E+03</rscale>
<asrwt>0</asrwt>
<pdfrwt beam="1">  1       21 0.23587661E+00 0.45559173E+03</pdfrwt>
<pdfrwt beam="2">  1       21 0.47576114E-02 0.45559173E+03</pdfrwt>
<totfact> 0.20527019E+04</totfact>
</mgrwt>
</event>
<event>
 7    0  0.4725730E-002  0.4658730E+03  0.7546771E-02  0.1023092E+00
         21   -1    0    0  502  501  0.00000000000E+00  0.00000000000E+00  0.11358337021E+04  0.11358337021E+04  0.00000000000E+00 0.  1.
         21   -1    0    0  501  502 -0.00000000000E+00 -0.00000000000E+00 -0.47770557581E+02  0.47770557581E+02  0.00000000000E+00 0.  1.
      99926    2    1    2    0    0  0.00000000000E+00 -0.88817841970E-15  0.10880631446E+04  0.11836042597E+04  0.46587298385E+03 0.  0.
      99925    2    3    3    0    0 -0.11345899931E+03  0.64281371212E+01  0.55799311768E+03  0.62724465751E+03  0.26299291917E+03 0.  0.
         25    1    3    3    0    0  0.11345899931E+03 -0.64281371212E+01  0.53007002688E+03  0.55635960221E+03  0.12509000000E+03 0.  0.
         25    1    4    4    0    0 -0.18555410946E+02 -0.19315059299E+01  0.29268171611E+03  0.31883871947E+03  0.12509000000E+03 0.  0.
         25    1    4    4    0    0 -0.94903588364E+02  0.83596430511E+01  0.26531140157E+03  0.30840593804E+03  0.12509000000E+03 0.  0.
<mgrwt>
<rscale>  2 0.46587298E+03</rscale>
<asrwt>0</asrwt>
<pdfrwt beam="1">  1       21 0.16703435E+00 0.46587298E+03</pdfrwt>
<pdfrwt beam="2">  1       21 0.70250827E-02 0.46587298E+03</pdfrwt>
<totfact> 0.30052265E+04</totfact>
</mgrwt>
</event>
<event>
 7    0  0.4725730E-002  0.4579188E+03  0.7546771E-02  0.1025387E+00
         21   -1    0    0  502  501  0.00000000000E+00  0.00000000000E+00  0.22291991976E+04  0.22291991976E+04  0.00000000000E+00 0.  1.
         21   -1    0    0  501  502 -0.00000000000E+00 -0.00000000000E+00 -0.23516254391E+02  0.23516254391E+02  0.00000000000E+00 0.  1.
      99926    2    1    2    0    0  0.00000000000E+00  0.00000000000E+00  0.22056829432E+04  0.22527154520E+04  0.45791883743E+03 0.  0.
      99925    2    3    3    0    0  0.12513529121E+02 -0.73987166993E+02  0.18187459453E+04  0.18391958784E+04  0.26300946045E+03 0.  0.
         25    1    4    4    0    0 -0.12436348062E+02 -0.42603962254E+02  0.67455804630E+03  0.68749241907E+03  0.12509000000E+03 0.  0.
         25    1    3    3    0    0 -0.12513529121E+02  0.73987166993E+02  0.38693699790E+03  0.41351957358E+03  0.12509000000E+03 0.  0.
         25    1    4    4    0    0  0.24949877183E+02 -0.31383204739E+02  0.11441878990E+04  0.11517034593E+04  0.12509000000E+03 0.  0.
<mgrwt>
<rscale>  2 0.45791884E+03</rscale>
<asrwt>0</asrwt>
<pdfrwt beam="1">  1       21 0.32782327E+00 0.45791884E+03</pdfrwt>
<pdfrwt beam="2">  1       21 0.34582742E-02 0.45791884E+03</pdfrwt>
<totfact> 0.97814330E+03</totfact>
</mgrwt>
</event>
<event>
 7    0  0.4725730E-002  0.4585940E+03  0.7546771E-02  0.1025190E+00
         21   -1    0    0  502  501  0.00000000000E+00  0.00000000000E+00  0.34066452523E+03  0.34066452523E+03  0.00000000000E+00 0.  1.
         21   -1    0    0  501  502 -0.00000000000E+00 -0.00000000000E+00 -0.15433691243E+03  0.15433691243E+03  0.00000000000E+00 0.  1.
      99926    2    1    2    0    0  0.00000000000E+00 -0.31086244690E-14  0.18632761281E+03  0.49500143766E+03  0.45859398600E+03 0.  0.
      99925    2    3    3    0    0 -0.34428898492E+02 -0.33282209339E+01 -0.32315686407E+01  0.26526981712E+03  0.26298518348E+03 0.  0.
         25    1    4    4    0    0 -0.42017397136E+02  0.30269101237E+02 -0.56281518674E+01  0.13550226694E+03  0.12509000000E+03 0.  0.
         25    1    4    4    0    0  0.75884986435E+01 -0.33597322171E+02  0.23965832266E+01  0.12976755018E+03  0.12509000000E+03 0.  0.
         25    1    3    3    0    0  0.34428898492E+02  0.33282209339E+01  0.18955918145E+03  0.22973162054E+03  0.12509000000E+03 0.  0.
<mgrwt>
<rscale>  2 0.45859399E+03</rscale>
<asrwt>0</asrwt>
<pdfrwt beam="1">  1       21 0.50097724E-01 0.45859399E+03</pdfrwt>
<pdfrwt beam="2">  1       21 0.22696605E-01 0.45859399E+03</pdfrwt>
<totfact> 0.63783909E+04</totfact>
</mgrwt>
</event>
<event>
 7    0  0.4725730E-002  0.4533372E+03  0.7546771E-02  0.1026731E+00
         21   -1    0    0  502  501  0.00000000000E+00  0.00000000000E+00  0.96286624795E+02  0.96286624795E+02  0.00000000000E+00 0. -1.
         21   -1    0    0  501  502 -0.00000000000E+00 -0.00000000000E+00 -0.53360127231E+03  0.53360127231E+03  0.00000000000E+00 0. -1.
      99926    2    1    2    0    0 -0.14210854715E-13 -0.22204460493E-15 -0.43731464751E+03  0.62988789710E+03  0.45333724972E+03 0.  0.
      99925    2    3    3    0    0  0.10319503341E+03  0.51525080534E+00 -0.21633077996E+03  0.35578780914E+03  0.26293816454E+03 0.  0.
         25    1    3    3    0    0 -0.10319503341E+03 -0.51525080534E+00 -0.22098386755E+03  0.27410008797E+03  0.12509000000E+03 0.  0.
         25    1    4    4    0    0  0.26095225922E+02  0.11776864600E+02 -0.13966338416E+03  0.18966555916E+03  0.12509000000E+03 0.  0.
         25    1    4    4    0    0  0.77099807486E+02 -0.11261613795E+02 -0.76667395799E+02  0.16612224998E+03  0.12509000000E+03 0.  0.
<mgrwt>
<rscale>  2 0.45333725E+03</rscale>
<asrwt>0</asrwt>
<pdfrwt beam="1">  1       21 0.14159798E-01 0.45333725E+03</pdfrwt>
<pdfrwt beam="2">  1       21 0.78470775E-01 0.45333725E+03</pdfrwt>
<totfact> 0.57627984E+04</totfact>
</mgrwt>
</event>
<event>
 7    0  0.4725730E-002  0.4517153E+03  0.7546771E-02  0.1027212E+00
         21   -1    0    0  502  501  0.00000000000E+00  0.00000000000E+00  0.17283845299E+02  0.17283845299E+02  0.00000000000E+00 0. -1.
         21   -1    0    0  501  502 -0.00000000000E+00 -0.00000000000E+00 -0.29514084548E+04  0.29514084548E+04  0.00000000000E+00 0. -1.
      99926    2    1    2    0    0  0.00000000000E+00  0.00000000000E+00 -0.29341246095E+04  0.29686923001E+04  0.45171534021E+03 0.  0.
      99925    2    3    3    0    0  0.55699902333E+02  0.53197630751E+02 -0.23681082194E+04  0.23839235176E+04  0.26310137186E+03 0.  0.
         25    1    4    4    0    0 -0.13552582065E+02  0.21321858980E+02 -0.10829089045E+04  0.10904024476E+04  0.12509000000E+03 0.  0.
         25    1    4    4    0    0  0.69252484398E+02  0.31875771771E+02 -0.12851993149E+04  0.12935210700E+04  0.12509000000E+03 0.  0.
         25    1    3    3    0    0 -0.55699902333E+02 -0.53197630751E+02 -0.56601639008E+03  0.58476878250E+03  0.12509000000E+03 0.  0.
<mgrwt>
<rscale>  2 0.45171534E+03</rscale>
<asrwt>0</asrwt>
<pdfrwt beam="1">  1       21 0.25417436E-02 0.45171534E+03</pdfrwt>
<pdfrwt beam="2">  1       21 0.43403038E+00 0.45171534E+03</pdfrwt>
<totfact> 0.35143520E+03</totfact>
</mgrwt>
</event>
<event>
 7    0  0.4725730E-002  0.4479870E+03  0.7546771E-02  0.1028324E+00
         21   -1    0    0  502  501  0.00000000000E+00  0.00000000000E+00  0.12539976885E+03  0.12539976885E+03  0.00000000000E+00 0. -1.
         21   -1    0    0  501  502 -0.00000000000E+00 -0.00000000000E+00 -0.40010515470E+03  0.40010515470E+03  0.00000000000E+00 0. -1.
      99926    2    1    2    0    0  0.14210854715E-13  0.00000000000E+00 -0.27470538585E+03  0.52550492355E+03  0.44798702622E+03 0.  0.
      99925    2    3    3    0    0 -0.93664907718E+02 -0.20375765413E+02 -0.11945116485E+03  0.30428180542E+03  0.26292689017E+03 0.  0.
         25    1    3    3    0    0  0.93664907718E+02  0.20375765413E+02 -0.15525422100E+03  0.22122311813E+03  0.12509000000E+03 0.  0.
         25    1    4    4    0    0 -0.83853517437E+02 -0.26805077233E+02 -0.79848710618E+02  0.17254926612E+03  0.12509000000E+03 0.  0.
         25    1    4    4    0    0 -0.98113902813E+01  0.64293118204E+01 -0.39602454232E+02  0.13173253930E+03  0.12509000000E+03 0.  0.
<mgrwt>
<rscale>  2 0.44798703E+03</rscale>
<asrwt>0</asrwt>
<pdfrwt beam="1">  1       21 0.18441143E-01 0.44798703E+03</pdfrwt>
<pdfrwt beam="2">  1       21 0.58838993E-01 0.44798703E+03</pdfrwt>
<totfact> 0.67166911E+04</totfact>
</mgrwt>
</event>
<event>
 7    0  0.4725730E-002  0.4601456E+03  0.7546771E-02  0.1024739E+00
         21   -1    0    0  502  501  0.00000000000E+00  0.00000000000E+00  0.19681740315E+03  0.19681740315E+03  0.00000000000E+00 0. -1.
         21   -1    0    0  501  502 -0.00000000000E+00 -0.00000000000E+00 -0.26894722354E+03  0.26894722354E+03  0.00000000000E+00 0. -1.
      99926    2    1    2    0    0  0.00000000000E+00  0.00000000000E+00 -0.72129820391E+02  0.46576462669E+03  0.46014560357E+03 0.  0.
      99925    2    3    3    0    0 -0.84726822896E+02  0.80161222680E+02 -0.52810046061E+02  0.29364484886E+03  0.26426112116E+03 0.  0.
         25    1    4    4    0    0 -0.49033486353E+00  0.49274433314E+02 -0.32995506368E+02  0.13843562311E+03  0.12509000000E+03 0.  0.
         25    1    3    3    0    0  0.84726822896E+02 -0.80161222680E+02 -0.19319774330E+02  0.17211977783E+03  0.12509000000E+03 0.  0.
         25    1    4    4    0    0 -0.84236488032E+02  0.30886789365E+02 -0.19814539693E+02  0.15520922575E+03  0.12509000000E+03 0.  0.
<mgrwt>
<rscale>  2 0.46014560E+03</rscale>
<asrwt>0</asrwt>
<pdfrwt beam="1">  1       21 0.28943736E-01 0.46014560E+03</pdfrwt>
<pdfrwt beam="2">  1       21 0.39551062E-01 0.46014560E+03</pdfrwt>
<totfact> 0.65051480E+04</totfact>
</mgrwt>
</event>
<event>
 7    0  0.4725730E-002  0.4548825E+03  0.7546771E-02  0.1026276E+00
         21   -1    0    0  502  501  0.00000000000E+00  0.00000000000E+00  0.17071102841E+03  0.17071102841E+03  0.00000000000E+00 0. -1.
         21   -1    0    0  501  502 -0.00000000000E+00 -0.00000000000E+00 -0.30302385386E+03  0.30302385386E+03  0.00000000000E+00 0. -1.
      99926    2    1    2    0    0 -0.71054273576E-14  0.00000000000E+00 -0.13231282545E+03  0.47373488228E+03  0.45488246274E+03 0.  0.
      99925    2    3    3    0    0  0.37523147780E+02 -0.73362529649E+02 -0.16326666406E+03  0.32077836689E+03  0.26353882009E+03 0.  0.
         25    1    4    4    0    0  0.12263210476E+02 -0.53905351546E+02 -0.40498164103E+02  0.14263163272E+03  0.12509000000E+03 0.  0.
         25    1    3    3    0    0 -0.37523147780E+02  0.73362529649E+02  0.30953838611E+02  0.15295651539E+03  0.12509000000E+03 0.  0.
         25    1    4    4    0    0  0.25259937304E+02 -0.19457178103E+02 -0.12276849996E+03  0.17814673417E+03  0.12509000000E+03 0.  0.
<mgrwt>
<rscale>  2 0.45488246E+03</rscale>
<asrwt>0</asrwt>
<pdfrwt beam="1">  1       21 0.25104563E-01 0.45488246E+03</pdfrwt>
<pdfrwt beam="2">  1       21 0.44562331E-01 0.45488246E+03</pdfrwt>
<totfact> 0.67221758E+04</totfact>
</mgrwt>
</event>
<event>
 7    0  0.4725730E-002  0.4692869E+03  0.7546771E-02  0.1022122E+00
         21   -1    0    0  502  501  0.00000000000E+00  0.00000000000E+00  0.10363249826E+04  0.10363249826E+04  0.00000000000E+00 0.  1.
         21   -1    0    0  501  502 -0.00000000000E+00 -0.00000000000E+00 -0.53127687598E+02  0.53127687598E+02  0.00000000000E+00 0.  1.
      99926    2    1    2    0    0  0.00000000000E+00  0.14210854715E-13  0.98319729496E+03  0.10894526702E+04  0.46928690552E+03 0.  0.
      99925    2    3    3    0    0 -0.71163750076E+02  0.93344784730E+02  0.50373302853E+03  0.58022676837E+03  0.26294221902E+03 0.  0.
         25    1    4    4    0    0 -0.11484194328E+02  0.11899752146E+02  0.24591773612E+03  0.27639922550E+03  0.12509000000E+03 0.  0.
         25    1    4    4    0    0 -0.59679555748E+02  0.81445032584E+02  0.25781529241E+03  0.30382754287E+03  0.12509000000E+03 0.  0.
         25    1    3    3    0    0  0.71163750076E+02 -0.93344784730E+02  0.47946426643E+03  0.50922590178E+03  0.12509000000E+03 0.  0.
<mgrwt>
<rscale>  2 0.46928691E+03</rscale>
<asrwt>0</asrwt>
<pdfrwt beam="1">  1       21 0.15240072E+00 0.46928691E+03</pdfrwt>
<pdfrwt beam="2">  1       21 0.78128959E-02 0.46928691E+03</pdfrwt>
<totfact> 0.32128599E+04</totfact>
</mgrwt>
</event>
<event>
 7    0  0.4725730E-002  0.4683623E+03  0.7546771E-02  0.1022383E+00
         21   -1    0    0  502  501  0.00000000000E+00  0.00000000000E+00  0.39668082233E+03  0.39668082233E+03  0.00000000000E+00 0. -1.
         21   -1    0    0  501  502 -0.00000000000E+00 -0.00000000000E+00 -0.13824920963E+03  0.13824920963E+03  0.00000000000E+00 0. -1.
      99926    2    1    2    0    0  0.00000000000E+00  0.00000000000E+00  0.25843161270E+03  0.53493003196E+03  0.46836229635E+03 0.  0.
      99925    2    3    3    0    0  0.61042841017E+02  0.10644194077E+03  0.18959148513E+03  0.34666801651E+03  0.26301647713E+03 0.  0.
         25    1    3    3    0    0 -0.61042841017E+02 -0.10644194077E+03  0.68840127571E+02  0.18826201544E+03  0.12509000000E+03 0.  0.
         25    1    4    4    0    0  0.59379803444E+02  0.52083461846E+02  0.13320477212E+03  0.19907201579E+03  0.12509000000E+03 0.  0.
         25    1    4    4    0    0  0.16630375728E+01  0.54358478925E+02  0.56386713010E+02  0.14759600072E+03  0.12509000000E+03 0.  0.
<mgrwt>
<rscale>  2 0.46836230E+03</rscale>
<asrwt>0</asrwt>
<pdfrwt beam="1">  1       21 0.58335415E-01 0.46836230E+03</pdfrwt>
<pdfrwt beam="2">  1       21 0.20330766E-01 0.46836230E+03</pdfrwt>
<totfact> 0.56633484E+04</totfact>
</mgrwt>
</event>
<event>
 7    0  0.4725730E-002  0.4544178E+03  0.7546771E-02  0.1026413E+00
         21   -1    0    0  502  501  0.00000000000E+00  0.00000000000E+00  0.50657821175E+03  0.50657821175E+03  0.00000000000E+00 0. -1.
         21   -1    0    0  501  502 -0.00000000000E+00 -0.00000000000E+00 -0.10190701666E+03  0.10190701666E+03  0.00000000000E+00 0. -1.
      99926    2    1    2    0    0  0.17763568394E-14  0.00000000000E+00  0.40467119509E+03  0.60848522841E+03  0.45441775609E+03 0.  0.
      99925    2    3    3    0    0  0.13037831510E+02  0.10789747775E+03  0.21540653689E+03  0.35692913188E+03  0.26303341669E+03 0.  0.
         25    1    4    4    0    0 -0.83870671175E+01  0.77214554698E+02  0.75169346494E+02  0.16531899197E+03  0.12509000000E+03 0.  0.
         25    1    4    4    0    0  0.21424898627E+02  0.30682923053E+02  0.14023719040E+03  0.19161013992E+03  0.12509000000E+03 0.  0.
         25    1    3    3    0    0 -0.13037831510E+02 -0.10789747775E+03  0.18926465820E+03  0.25155609652E+03  0.12509000000E+03 0.  0.
<mgrwt>
<rscale>  2 0.45441776E+03</rscale>
<asrwt>0</asrwt>
<pdfrwt beam="1">  1       21 0.74496794E-01 0.45441776E+03</pdfrwt>
<pdfrwt beam="2">  1       21 0.14986326E-01 0.45441776E+03</pdfrwt>
<totfact> 0.58427259E+04</totfact>
</mgrwt>
</event>
<event>
 7    0  0.4725730E-002  0.4498952E+03  0.7546771E-02  0.1027753E+00
         21   -1    0    0  502  501  0.00000000000E+00  0.00000000000E+00  0.42165805370E+02  0.42165805370E+02  0.00000000000E+00 0. -1.
         21   -1    0    0  501  502 -0.00000000000E+00 -0.00000000000E+00 -0.12000581338E+04  0.12000581338E+04  0.00000000000E+00 0. -1.
      99926    2    1    2    0    0  0.00000000000E+00  0.00000000000E+00 -0.11578923284E+04  0.12422239392E+04  0.44989517758E+03 0.  0.
      99925    2    3    3    0    0 -0.20140694128E+02 -0.10421462857E+03 -0.67577046404E+03  0.73295452463E+03  0.26323046696E+03 0.  0.
         25    1    4    4    0    0 -0.10456991881E+02 -0.39856821738E+02 -0.42874077843E+03  0.44851318610E+03  0.12509000000E+03 0.  0.
         25    1    4    4    0    0 -0.96837022465E+01 -0.64357806833E+02 -0.24702968562E+03  0.28444133853E+03  0.12509000000E+03 0.  0.
         25    1    3    3    0    0  0.20140694128E+02  0.10421462857E+03 -0.48212186440E+03  0.50926941455E+03  0.12509000000E+03 0.  0.
<mgrwt>
<rscale>  2 0.44989518E+03</rscale>
<asrwt>0</asrwt>
<pdfrwt beam="1">  1       21 0.62008542E-02 0.44989518E+03</pdfrwt>
<pdfrwt beam="2">  1       21 0.17647912E+00 0.44989518E+03</pdfrwt>
<totfact> 0.32096564E+04</totfact>
</mgrwt>
</event>
<event>
 7    0  0.4725730E-002  0.4146694E+03  0.7546771E-02  0.1038815E+00
         21   -1    0    0  502  501  0.00000000000E+00  0.00000000000E+00  0.46156998898E+03  0.46156998898E+03  0.00000000000E+00 0.  1.
         21   -1    0    0  501  502 -0.00000000000E+00 -0.00000000000E+00 -0.93133605568E+02  0.93133605568E+02  0.00000000000E+00 0.  1.
      99926    2    1    2    0    0  0.88817841970E-15  0.00000000000E+00  0.36843638341E+03  0.55470359454E+03  0.41466939745E+03 0.  0.
      99925    2    3    3    0    0 -0.26793496273E+01  0.32719048256E+02  0.16050665044E+03  0.30983628969E+03  0.26297989760E+03 0.  0.
         25    1    4    4    0    0  0.25902336613E+02  0.12301129508E+02  0.11454497730E+03  0.17201833842E+03  0.12509000000E+03 0.  0.
         25    1    4    4    0    0 -0.28581686241E+02  0.20417918748E+02  0.45961673140E+02  0.13781795127E+03  0.12509000000E+03 0.  0.
         25    1    3    3    0    0  0.26793496273E+01 -0.32719048256E+02  0.20792973297E+03  0.24486730485E+03  0.12509000000E+03 0.  0.
<mgrwt>
<rscale>  2 0.41466940E+03</rscale>
<asrwt>0</asrwt>
<pdfrwt beam="1">  1       21 0.67877939E-01 0.41466940E+03</pdfrwt>
<pdfrwt beam="2">  1       21 0.13696119E-01 0.41466940E+03</pdfrwt>
<totfact> 0.85835642E+04</totfact>
</mgrwt>
</event>
<event>
 7    0  0.4725730E-002  0.4350061E+03  0.7546771E-02  0.1032290E+00
         21   -1    0    0  502  501  0.00000000000E+00  0.00000000000E+00  0.70311887764E+03  0.70311887764E+03  0.00000000000E+00 0. -1.
         21   -1    0    0  501  502 -0.00000000000E+00 -0.00000000000E+00 -0.67282458563E+02  0.67282458563E+02  0.00000000000E+00 0. -1.
      99926    2    1    2    0    0 -0.14210854715E-13 -0.17763568394E-14  0.63583641908E+03  0.77040133621E+03  0.43500605398E+03 0.  0.
      99925    2    3    3    0    0  0.89032631009E+02  0.11517467464E+02  0.45219493157E+03  0.53075333292E+03  0.26298171578E+03 0.  0.
         25    1    4    4    0    0  0.85154000970E+02  0.12782162994E+02  0.26857474831E+03  0.30853604506E+03  0.12509000000E+03 0.  0.
         25    1    4    4    0    0  0.38786300388E+01 -0.12646955298E+01  0.18362018326E+03  0.22221728786E+03  0.12509000000E+03 0.  0.
         25    1    3    3    0    0 -0.89032631009E+02 -0.11517467464E+02  0.18364148752E+03  0.23964800328E+03  0.12509000000E+03 0.  0.
<mgrwt>
<rscale>  2 0.43500605E+03</rscale>
<asrwt>0</asrwt>
<pdfrwt beam="1">  1       21 0.10339983E+00 0.43500605E+03</pdfrwt>
<pdfrwt beam="2">  1       21 0.98944796E-02 0.43500605E+03</pdfrwt>
<totfact> 0.57778879E+04</totfact>
</mgrwt>
</event>
<event>
 7    0  0.4725730E-002  0.4456227E+03  0.7546771E-02  0.1029035E+00
         21   -1    0    0  502  501  0.00000000000E+00  0.00000000000E+00  0.70773726265E+02  0.70773726265E+02  0.00000000000E+00 0.  1.
         21   -1    0    0  501  502 -0.00000000000E+00 -0.00000000000E+00 -0.70145947056E+03  0.70145947056E+03  0.00000000000E+00 0.  1.
      99926    2    1    2    0    0  0.00000000000E+00  0.00000000000E+00 -0.63068574430E+03  0.77223319683E+03  0.44562271287E+03 0.  0.
      99925    2    3    3    0    0 -0.40393434149E+02 -0.73994310799E+02 -0.50578855223E+03  0.57639243437E+03  0.26324777546E+03 0.  0.
         25    1    4    4    0    0 -0.14968866944E+02  0.49911123748E+01 -0.21930321936E+03  0.25296321532E+03  0.12509000000E+03 0.  0.
         25    1    3    3    0    0  0.40393434149E+02  0.73994310799E+02 -0.12489719207E+03  0.19584076246E+03  0.12509000000E+03 0.  0.
         25    1    4    4    0    0 -0.25424567205E+02 -0.78985423174E+02 -0.28648533287E+03  0.32342921905E+03  0.12509000000E+03 0.  0.
<mgrwt>
<rscale>  2 0.44562271E+03</rscale>
<asrwt>0</asrwt>
<pdfrwt beam="1">  1       21 0.10407901E-01 0.44562271E+03</pdfrwt>
<pdfrwt beam="2">  1       21 0.10315580E+00 0.44562271E+03</pdfrwt>
<totfact> 0.52927008E+04</totfact>
</mgrwt>
</event>
<event>
 7    0  0.4725730E-002  0.4551257E+03  0.7546771E-02  0.1026204E+00
         21   -1    0    0  502  501  0.00000000000E+00  0.00000000000E+00  0.23440714095E+02  0.23440714095E+02  0.00000000000E+00 0. -1.
         21   -1    0    0  501  502 -0.00000000000E+00 -0.00000000000E+00 -0.22091841617E+04  0.22091841617E+04  0.00000000000E+00 0. -1.
      99926    2    1    2    0    0 -0.35527136788E-14  0.00000000000E+00 -0.21857434476E+04  0.22326248758E+04  0.45512571590E+03 0.  0.
      99925    2    3    3    0    0 -0.27130260309E+02 -0.88367477180E+02 -0.16953828896E+04  0.17181874675E+04  0.26324925314E+03 0.  0.
         25    1    4    4    0    0  0.70705789569E+01 -0.75839967635E+02 -0.10055288350E+04  0.10161384944E+04  0.12509000000E+03 0.  0.
         25    1    3    3    0    0  0.27130260309E+02  0.88367477180E+02 -0.49036055805E+03  0.51443740828E+03  0.12509000000E+03 0.  0.
         25    1    4    4    0    0 -0.34200839266E+02 -0.12527509545E+02 -0.68985405462E+03  0.70204897313E+03  0.12509000000E+03 0.  0.
<mgrwt>
<rscale>  2 0.45512572E+03</rscale>
<asrwt>0</asrwt>
<pdfrwt beam="1">  1       21 0.34471642E-02 0.45512572E+03</pdfrwt>
<pdfrwt beam="2">  1       21 0.32487999E+00 0.45512572E+03</pdfrwt>
<totfact> 0.10260020E+04</totfact>
</mgrwt>
</event>
<event>
 7    0  0.4725730E-002  0.4598988E+03  0.7546771E-02  0.1024811E+00
         21   -1    0    0  502  501  0.00000000000E+00  0.00000000000E+00  0.68878598137E+03  0.68878598137E+03  0.00000000000E+00 0.  1.
         21   -1    0    0  501  502 -0.00000000000E+00 -0.00000000000E+00 -0.76768015864E+02  0.76768015864E+02  0.00000000000E+00 0.  1.
      99926    2    1    2    0    0  0.00000000000E+00  0.00000000000E+00  0.61201796550E+03  0.76555399723E+03  0.45989882863E+03 0.  0.
      99925    2    3    3    0    0 -0.35094147675E+02  0.93869508944E+02  0.27987361286E+03  0.39675803331E+03  0.26276341814E+03 0.  0.
         25    1    4    4    0    0 -0.20952951105E+02  0.73979412495E+01  0.14727815032E+03  0.19450480034E+03  0.12509000000E+03 0.  0.
         25    1    4    4    0    0 -0.14141196570E+02  0.86471567694E+02  0.13259546254E+03  0.20225323297E+03  0.12509000000E+03 0.  0.
         25    1    3    3    0    0  0.35094147675E+02 -0.93869508944E+02  0.33214435264E+03  0.36879596392E+03  0.12509000000E+03 0.  0.
<mgrwt>
<rscale>  2 0.45989883E+03</rscale>
<asrwt>0</asrwt>
<pdfrwt beam="1">  1       21 0.10129205E+00 0.45989883E+03</pdfrwt>
<pdfrwt beam="2">  1       21 0.11289414E-01 0.45989883E+03</pdfrwt>
<totfact> 0.47617966E+04</totfact>
</mgrwt>
</event>
<event>
 7    0  0.4725730E-002  0.4691445E+03  0.7546771E-02  0.1022162E+00
         21   -1    0    0  502  501  0.00000000000E+00  0.00000000000E+00  0.51179597244E+02  0.51179597244E+02  0.00000000000E+00 0.  1.
         21   -1    0    0  501  502 -0.00000000000E+00 -0.00000000000E+00 -0.10751184425E+04  0.10751184425E+04  0.00000000000E+00 0.  1.
      99926    2    1    2    0    0  0.00000000000E+00  0.00000000000E+00 -0.10239388453E+04  0.11262980397E+04  0.46914445058E+03 0.  0.
      99925    2    3    3    0    0  0.86725278320E+02 -0.46185554732E+02 -0.44723737846E+03  0.52806190804E+03  0.26300898591E+03 0.  0.
         25    1    4    4    0    0  0.16926718069E+02 -0.27209681588E+01 -0.15678251653E+03  0.20130122464E+03  0.12509000000E+03 0.  0.
         25    1    3    3    0    0 -0.86725278320E+02  0.46185554732E+02 -0.57670146680E+03  0.59823613170E+03  0.12509000000E+03 0.  0.
         25    1    4    4    0    0  0.69798560252E+02 -0.43464586574E+02 -0.29045486193E+03  0.32676068340E+03  0.12509000000E+03 0.  0.
<mgrwt>
<rscale>  2 0.46914445E+03</rscale>
<asrwt>0</asrwt>
<pdfrwt beam="1">  1       21 0.75264119E-02 0.46914445E+03</pdfrwt>
<pdfrwt beam="2">  1       21 0.15810564E+00 0.46914445E+03</pdfrwt>
<totfact> 0.31019487E+04</totfact>
</mgrwt>
</event>
<event>
 7    0  0.4725730E-002  0.4547301E+03  0.7546771E-02  0.1026321E+00
         21   -1    0    0  502  501  0.00000000000E+00  0.00000000000E+00  0.50999936023E+03  0.50999936023E+03  0.00000000000E+00 0.  1.
         21   -1    0    0  501  502 -0.00000000000E+00 -0.00000000000E+00 -0.10136259276E+03  0.10136259276E+03  0.00000000000E+00 0.  1.
      99926    2    1    2    0    0 -0.71054273576E-14 -0.14210854715E-13  0.40863676747E+03  0.61136195299E+03  0.45473006260E+03 0.  0.
      99925    2    3    3    0    0  0.43606812483E+02  0.97699785916E+02  0.30678620528E+03  0.41779582118E+03  0.26265713427E+03 0.  0.
         25    1    4    4    0    0  0.23366936969E+02  0.40746099214E+02  0.20840695871E+03  0.24756257165E+03  0.12509000000E+03 0.  0.
         25    1    4    4    0    0  0.20239875515E+02  0.56953686702E+02  0.98379246570E+02  0.17023324953E+03  0.12509000000E+03 0.  0.
         25    1    3    3    0    0 -0.43606812483E+02 -0.97699785916E+02  0.10185056219E+03  0.19356613180E+03  0.12509000000E+03 0.  0.
<mgrwt>
<rscale>  2 0.45473006E+03</rscale>
<asrwt>0</asrwt>
<pdfrwt beam="1">  1       21 0.74999905E-01 0.45473006E+03</pdfrwt>
<pdfrwt beam="2">  1       21 0.14906264E-01 0.45473006E+03</pdfrwt>
<totfact> 0.58108101E+04</totfact>
</mgrwt>
</event>
<event>
 7    0  0.4725730E-002  0.4704079E+03  0.7546771E-02  0.1021805E+00
         21   -1    0    0  502  501  0.00000000000E+00  0.00000000000E+00  0.10052187908E+03  0.10052187908E+03  0.00000000000E+00 0. -1.
         21   -1    0    0  501  502 -0.00000000000E+00 -0.00000000000E+00 -0.55033683098E+03  0.55033683098E+03  0.00000000000E+00 0. -1.
      99926    2    1    2    0    0 -0.14210854715E-13 -0.35527136788E-14 -0.44981495190E+03  0.65085871006E+03  0.47040787569E+03 0.  0.
      99925    2    3    3    0    0  0.12524637312E+03 -0.21274903288E+02 -0.27443163160E+03  0.40076654179E+03  0.26298635917E+03 0.  0.
         25    1    4    4    0    0  0.56353525396E+02 -0.45839510630E+02 -0.16329553621E+03  0.21815114211E+03  0.12509000000E+03 0.  0.
         25    1    4    4    0    0  0.68892847724E+02  0.24564607342E+02 -0.11113609539E+03  0.18261539968E+03  0.12509000000E+03 0.  0.
         25    1    3    3    0    0 -0.12524637312E+03  0.21274903288E+02 -0.17538332030E+03  0.25009216827E+03  0.12509000000E+03 0.  0.
<mgrwt>
<rscale>  2 0.47040788E+03</rscale>
<asrwt>0</asrwt>
<pdfrwt beam="1">  1       21 0.14782629E-01 0.47040788E+03</pdfrwt>
<pdfrwt beam="2">  1       21 0.80931888E-01 0.47040788E+03</pdfrwt>
<totfact> 0.49370924E+04</totfact>
</mgrwt>
</event>
<event>
 7    0  0.4725730E-002  0.4673550E+03  0.7546771E-02  0.1022669E+00
         21   -1    0    0  502  501  0.00000000000E+00  0.00000000000E+00  0.71277383512E+03  0.71277383512E+03  0.00000000000E+00 0. -1.
         21   -1    0    0  501  502 -0.00000000000E+00 -0.00000000000E+00 -0.76609411468E+02  0.76609411468E+02  0.00000000000E+00 0. -1.
      99926    2    1    2    0    0  0.00000000000E+00 -0.14210854715E-13  0.63616442366E+03  0.78938324659E+03  0.46735504285E+03 0.  0.
      99925    2    3    3    0    0 -0.27223642885E+02 -0.11137452937E+03  0.31457160703E+03  0.42576963253E+03  0.26301914666E+03 0.  0.
         25    1    3    3    0    0  0.27223642885E+02  0.11137452937E+03  0.32159281663E+03  0.36361361406E+03  0.12509000000E+03 0.  0.
         25    1    4    4    0    0  0.10479479672E+02 -0.84608676912E+02  0.14094590330E+03  0.20683738410E+03  0.12509000000E+03 0.  0.
         25    1    4    4    0    0 -0.37703122557E+02 -0.26765852461E+02  0.17362570373E+03  0.21893224843E+03  0.12509000000E+03 0.  0.
<mgrwt>
<rscale>  2 0.46735504E+03</rscale>
<asrwt>0</asrwt>
<pdfrwt beam="1">  1       21 0.10481968E+00 0.46735504E+03</pdfrwt>
<pdfrwt beam="2">  1       21 0.11266090E-01 0.46735504E+03</pdfrwt>
<totfact> 0.43871339E+04</totfact>
</mgrwt>
</event>
<event>
 7    0  0.4725730E-002  0.4573491E+03  0.7546771E-02  0.1025553E+00
         21   -1    0    0  502  501  0.00000000000E+00  0.00000000000E+00  0.32707890380E+02  0.32707890380E+02  0.00000000000E+00 0.  1.
         21   -1    0    0  501  502 -0.00000000000E+00 -0.00000000000E+00 -0.15987595130E+04  0.15987595130E+04  0.00000000000E+00 0.  1.
      99926    2    1    2    0    0  0.00000000000E+00  0.00000000000E+00 -0.15660516226E+04  0.16314674033E+04  0.45734910470E+03 0.  0.
      99925    2    3    3    0    0  0.22371528900E+02  0.56351303028E+02 -0.13333086730E+04  0.13603719527E+04  0.26310430943E+03 0.  0.
         25    1    4    4    0    0  0.11809291714E+02  0.65736435960E+02 -0.79426401943E+03  0.80682313988E+03  0.12509000000E+03 0.  0.
         25    1    3    3    0    0 -0.22371528900E+02 -0.56351303028E+02 -0.23274294959E+03  0.27109545061E+03  0.12509000000E+03 0.  0.
         25    1    4    4    0    0  0.10562237186E+02 -0.93851329323E+01 -0.53904465356E+03  0.55354881285E+03  0.12509000000E+03 0.  0.
<mgrwt>
<rscale>  2 0.45734910E+03</rscale>
<asrwt>0</asrwt>
<pdfrwt beam="1">  1       21 0.48099843E-02 0.45734910E+03</pdfrwt>
<pdfrwt beam="2">  1       21 0.23511167E+00 0.45734910E+03</pdfrwt>
<totfact> 0.20354148E+04</totfact>
</mgrwt>
</event>
<event>
 7    0  0.4725730E-002  0.4473391E+03  0.7546771E-02  0.1028519E+00
         21   -1    0    0  502  501  0.00000000000E+00  0.00000000000E+00  0.80134275800E+02  0.80134275800E+02  0.00000000000E+00 0. -1.
         21   -1    0    0  501  502 -0.00000000000E+00 -0.00000000000E+00 -0.62430308373E+03  0.62430308373E+03  0.00000000000E+00 0. -1.
      99926    2    1    2    0    0  0.00000000000E+00 -0.35527136788E-14 -0.54416880793E+03  0.70443735953E+03  0.44733913531E+03 0.  0.
      99925    2    3    3    0    0  0.38147902043E+02 -0.18853904325E+02 -0.19215192811E+03  0.32843985433E+03  0.26294418095E+03 0.  0.
         25    1    3    3    0    0 -0.38147902043E+02  0.18853904325E+02 -0.35201687982E+03  0.37599750520E+03  0.12509000000E+03 0.  0.
         25    1    4    4    0    0  0.21064844618E+02 -0.42646743737E+02 -0.12654716108E+03  0.18418513650E+03  0.12509000000E+03 0.  0.
         25    1    4    4    0    0  0.17083057425E+02  0.23792839413E+02 -0.65604767025E+02  0.14425471782E+03  0.12509000000E+03 0.  0.
<mgrwt>
<rscale>  2 0.44733914E+03</rscale>
<asrwt>0</asrwt>
<pdfrwt beam="1">  1       21 0.11784452E-01 0.44733914E+03</pdfrwt>
<pdfrwt beam="2">  1       21 0.91809279E-01 0.44733914E+03</pdfrwt>
<totfact> 0.55960537E+04</totfact>
</mgrwt>
</event>
<event>
 7    0  0.4725730E-002  0.4563336E+03  0.7546771E-02  0.1025850E+00
         21   -1    0    0  502  501  0.00000000000E+00  0.00000000000E+00  0.28924562086E+03  0.28924562086E+03  0.00000000000E+00 0. -1.
         21   -1    0    0  501  502 -0.00000000000E+00 -0.00000000000E+00 -0.17998577232E+03  0.17998577232E+03  0.00000000000E+00 0. -1.
      99926    2    1    2    0    0  0.13322676296E-14  0.00000000000E+00  0.10925984854E+03  0.46923139319E+03  0.45633363436E+03 0.  0.
      99925    2    3    3    0    0  0.23955018914E+01  0.10777199453E+03  0.10793390293E+03  0.30409566881E+03  0.26306635504E+03 0.  0.
         25    1    4    4    0    0  0.11388170459E+02  0.95902403257E+02  0.53224241391E+02  0.16675517788E+03  0.12509000000E+03 0.  0.
         25    1    4    4    0    0 -0.89926685678E+01  0.11869591271E+02  0.54709661536E+02  0.13734049094E+03  0.12509000000E+03 0.  0.
         25    1    3    3    0    0 -0.23955018914E+01 -0.10777199453E+03  0.13259456128E+01  0.16513572438E+03  0.12509000000E+03 0.  0.
<mgrwt>
<rscale>  2 0.45633363E+03</rscale>
<asrwt>0</asrwt>
<pdfrwt beam="1">  1       21 0.42536121E-01 0.45633363E+03</pdfrwt>
<pdfrwt beam="2">  1       21 0.26468496E-01 0.45633363E+03</pdfrwt>
<totfact> 0.66783725E+04</totfact>
</mgrwt>
</event>
<event>
 7    0  0.4725730E-002  0.4482822E+03  0.7546771E-02  0.1028236E+00
         21   -1    0    0  502  501  0.00000000000E+00  0.00000000000E+00  0.82146721904E+03  0.82146721904E+03  0.00000000000E+00 0. -1.
         21   -1    0    0  501  502 -0.00000000000E+00 -0.00000000000E+00 -0.61157937024E+02  0.61157937024E+02  0.00000000000E+00 0. -1.
      99926    2    1    2    0    0  0.00000000000E+00  0.00000000000E+00  0.76030928202E+03  0.88262515607E+03  0.44828223453E+03 0.  0.
      99925    2    3    3    0    0 -0.10653097837E+03  0.52105009566E+01  0.49154113129E+03  0.56756988215E+03  0.26295795996E+03 0.  0.
         25    1    3    3    0    0  0.10653097837E+03 -0.52105009566E+01  0.26876815073E+03  0.31505527391E+03  0.12509000000E+03 0.  0.
         25    1    4    4    0    0 -0.70245502853E+02  0.15297481853E+02  0.32746258673E+03  0.35783752938E+03  0.12509000000E+03 0.  0.
         25    1    4    4    0    0 -0.36285475520E+02 -0.10086980896E+02  0.16407854456E+03  0.20973235278E+03  0.12509000000E+03 0.  0.
<mgrwt>
<rscale>  2 0.44828223E+03</rscale>
<asrwt>0</asrwt>
<pdfrwt beam="1">  1       21 0.12080400E+00 0.44828223E+03</pdfrwt>
<pdfrwt beam="2">  1       21 0.89938148E-02 0.44828223E+03</pdfrwt>
<totfact> 0.46386125E+04</totfact>
</mgrwt>
</event>
<event>
 7    0  0.4725730E-002  0.4470976E+03  0.7546771E-02  0.1028591E+00
         21   -1    0    0  502  501  0.00000000000E+00  0.00000000000E+00  0.88832086771E+02  0.88832086771E+02  0.00000000000E+00 0. -1.
         21   -1    0    0  501  502 -0.00000000000E+00 -0.00000000000E+00 -0.56256763236E+03  0.56256763236E+03  0.00000000000E+00 0. -1.
      99926    2    1    2    0    0  0.00000000000E+00  0.35527136788E-14 -0.47373554559E+03  0.65139971914E+03  0.44709755863E+03 0.  0.
      99925    2    3    3    0    0  0.10049367834E+03 -0.11952439141E+02 -0.34402303744E+03  0.44472441084E+03  0.26303252864E+03 0.  0.
         25    1    4    4    0    0  0.23255000410E+02  0.26168016658E+02 -0.15415184740E+03  0.20158338299E+03  0.12509000000E+03 0.  0.
         25    1    4    4    0    0  0.77238677927E+02 -0.38120455800E+02 -0.18987119004E+03  0.24314102785E+03  0.12509000000E+03 0.  0.
         25    1    3    3    0    0 -0.10049367834E+03  0.11952439141E+02 -0.12971250815E+03  0.20667530829E+03  0.12509000000E+03 0.  0.
<mgrwt>
<rscale>  2 0.44709756E+03</rscale>
<asrwt>0</asrwt>
<pdfrwt beam="1">  1       21 0.13063542E-01 0.44709756E+03</pdfrwt>
<pdfrwt beam="2">  1       21 0.82730535E-01 0.44709756E+03</pdfrwt>
<totfact> 0.59227410E+04</totfact>
</mgrwt>
</event>
<event>
 7    0  0.4725730E-002  0.4572404E+03  0.7546771E-02  0.1025585E+00
         21   -1    0    0  502  501  0.00000000000E+00  0.00000000000E+00  0.30109253511E+03  0.30109253511E+03  0.00000000000E+00 0. -1.
         21   -1    0    0  501  502 -0.00000000000E+00 -0.00000000000E+00 -0.17359181920E+03  0.17359181920E+03  0.00000000000E+00 0. -1.
      99926    2    1    2    0    0  0.00000000000E+00  0.00000000000E+00  0.12750071591E+03  0.47468435432E+03  0.45724042218E+03 0.  0.
      99925    2    3    3    0    0 -0.71683265308E+02 -0.51387892012E+02  0.30579661535E+01  0.27742130142E+03  0.26300954613E+03 0.  0.
         25    1    4    4    0    0 -0.36755237000E+02 -0.99246015717E+01  0.38967647158E+02  0.13643837726E+03  0.12509000000E+03 0.  0.
         25    1    4    4    0    0 -0.34928028308E+02 -0.41463290440E+02 -0.35909681004E+02  0.14098292416E+03  0.12509000000E+03 0.  0.
         25    1    3    3    0    0  0.71683265308E+02  0.51387892012E+02  0.12444274976E+03  0.19726305290E+03  0.12509000000E+03 0.  0.
<mgrwt>
<rscale>  2 0.45724042E+03</rscale>
<asrwt>0</asrwt>
<pdfrwt beam="1">  1       21 0.44278314E-01 0.45724042E+03</pdfrwt>
<pdfrwt beam="2">  1       21 0.25528209E-01 0.45724042E+03</pdfrwt>
<totfact> 0.65909597E+04</totfact>
</mgrwt>
</event>
<event>
 7    0  0.4725730E-002  0.4535611E+03  0.7546771E-02  0.1026665E+00
         21   -1    0    0  502  501  0.00000000000E+00  0.00000000000E+00  0.13682316773E+03  0.13682316773E+03  0.00000000000E+00 0. -1.
         21   -1    0    0  501  502 -0.00000000000E+00 -0.00000000000E+00 -0.37588239983E+03  0.37588239983E+03  0.00000000000E+00 0. -1.
      99926    2    1    2    0    0  0.17763568394E-14 -0.71054273576E-14 -0.23905923209E+03  0.51270556756E+03  0.45356111226E+03 0.  0.
      99925    2    3    3    0    0  0.10945007882E+02 -0.53669215499E+02 -0.26090861406E+03  0.37441210610E+03  0.26288960119E+03 0.  0.
         25    1    3    3    0    0 -0.10945007882E+02  0.53669215499E+02  0.21849381961E+02  0.13829346146E+03  0.12509000000E+03 0.  0.
         25    1    4    4    0    0  0.23544360627E+02 -0.61921667976E+02 -0.15403753246E+03  0.20919775187E+03  0.12509000000E+03 0.  0.
         25    1    4    4    0    0 -0.12599352745E+02  0.82524524768E+01 -0.10687108159E+03  0.16521435423E+03  0.12509000000E+03 0.  0.
<mgrwt>
<rscale>  2 0.45356111E+03</rscale>
<asrwt>0</asrwt>
<pdfrwt beam="1">  1       21 0.20121054E-01 0.45356111E+03</pdfrwt>
<pdfrwt beam="2">  1       21 0.55276823E-01 0.45356111E+03</pdfrwt>
<totfact> 0.65127430E+04</totfact>
</mgrwt>
</event>
<event>
 7    0  0.4725730E-002  0.4470123E+03  0.7546771E-02  0.1028617E+00
         21   -1    0    0  502  501  0.00000000000E+00  0.00000000000E+00  0.19312797130E+03  0.19312797130E+03  0.00000000000E+00 0.  1.
         21   -1    0    0  501  502 -0.00000000000E+00 -0.00000000000E+00 -0.25866263201E+03  0.25866263201E+03  0.00000000000E+00 0.  1.
      99926    2    1    2    0    0 -0.35527136788E-14  0.00000000000E+00 -0.65534660713E+02  0.45179060331E+03  0.44701225652E+03 0.  0.
      99925    2    3    3    0    0  0.17489630196E+02 -0.96190574245E+02 -0.81337018871E+02  0.29224206410E+03  0.26311822372E+03 0.  0.
         25    1    4    4    0    0 -0.28497452685E+02 -0.46299043700E+02 -0.22436686469E+02  0.13822669517E+03  0.12509000000E+03 0.  0.
         25    1    3    3    0    0 -0.17489630196E+02  0.96190574245E+02  0.15802358158E+02  0.15954853920E+03  0.12509000000E+03 0.  0.
         25    1    4    4    0    0  0.45987082881E+02 -0.49891530544E+02 -0.58900332402E+02  0.15401536894E+03  0.12509000000E+03 0.  0.
<mgrwt>
<rscale>  2 0.44701226E+03</rscale>
<asrwt>0</asrwt>
<pdfrwt beam="1">  1       21 0.28401172E-01 0.44701226E+03</pdfrwt>
<pdfrwt beam="2">  1       21 0.38038622E-01 0.44701226E+03</pdfrwt>
<totfact> 0.73344911E+04</totfact>
</mgrwt>
</event>
<event>
 7    0  0.4725730E-002  0.4194438E+03  0.7546771E-02  0.1037247E+00
         21   -1    0    0  502  501  0.00000000000E+00  0.00000000000E+00  0.18723000327E+02  0.18723000327E+02  0.00000000000E+00 0.  1.
         21   -1    0    0  501  502 -0.00000000000E+00 -0.00000000000E+00 -0.23491574495E+04  0.23491574495E+04  0.00000000000E+00 0.  1.
      99926    2    1    2    0    0  0.00000000000E+00  0.00000000000E+00 -0.23304344491E+04  0.23678804498E+04  0.41944380169E+03 0.  0.
      99925    2    3    3    0    0  0.61047020014E+02 -0.43706197105E+02 -0.15743274201E+04  0.15978269985E+04  0.26250204052E+03 0.  0.
         25    1    4    4    0    0  0.15559795587E+02 -0.58755449421E+02 -0.80446767570E+03  0.81640067334E+03  0.12509000000E+03 0.  0.
         25    1    3    3    0    0 -0.61047020014E+02  0.43706197105E+02 -0.75610702907E+03  0.77005345128E+03  0.12509000000E+03 0.  0.
         25    1    4    4    0    0  0.45487224427E+02  0.15049252316E+02 -0.76985974436E+03  0.78142632517E+03  0.12509000000E+03 0.  0.
<mgrwt>
<rscale>  2 0.41944380E+03</rscale>
<asrwt>0</asrwt>
<pdfrwt beam="1">  1       21 0.27533834E-02 0.41944380E+03</pdfrwt>
<pdfrwt beam="2">  1       21 0.34546421E+00 0.41944380E+03</pdfrwt>
<totfact> 0.11425492E+04</totfact>
</mgrwt>
</event>
<event>
 7    0  0.4725730E-002  0.4463128E+03  0.7546771E-02  0.1028827E+00
         21   -1    0    0  502  501  0.00000000000E+00  0.00000000000E+00  0.57916531373E+03  0.57916531373E+03  0.00000000000E+00 0. -1.
         21   -1    0    0  501  502 -0.00000000000E+00 -0.00000000000E+00 -0.85983686952E+02  0.85983686952E+02  0.00000000000E+00 0. -1.
      99926    2    1    2    0    0 -0.88817841970E-15  0.00000000000E+00  0.49318162678E+03  0.66514900068E+03  0.44631275594E+03 0.  0.
      99925    2    3    3    0    0 -0.17226107915E+01  0.72473335502E+02  0.19971647731E+03  0.33800277374E+03  0.26287611531E+03 0.  0.
         25    1    4    4    0    0  0.30747650688E+02  0.17324470956E+02  0.74598549103E+02  0.14985995778E+03  0.12509000000E+03 0.  0.
         25    1    3    3    0    0  0.17226107915E+01 -0.72473335502E+02  0.29346514947E+03  0.32714622694E+03  0.12509000000E+03 0.  0.
         25    1    4    4    0    0 -0.32470261480E+02  0.55148864546E+02  0.12511792820E+03  0.18814281597E+03  0.12509000000E+03 0.  0.
<mgrwt>
<rscale>  2 0.44631276E+03</rscale>
<asrwt>0</asrwt>
<pdfrwt beam="1">  1       21 0.85171368E-01 0.44631276E+03</pdfrwt>
<pdfrwt beam="2">  1       21 0.12644660E-01 0.44631276E+03</pdfrwt>
<totfact> 0.58756561E+04</totfact>
</mgrwt>
</event>
<event>
 7    0  0.4725730E-002  0.4382659E+03  0.7546771E-02  0.1031280E+00
         21   -1    0    0  502  501  0.00000000000E+00  0.00000000000E+00  0.11434451484E+03  0.11434451484E+03  0.00000000000E+00 0. -1.
         21   -1    0    0  501  502 -0.00000000000E+00 -0.00000000000E+00 -0.41995238345E+03  0.41995238345E+03  0.00000000000E+00 0. -1.
      99926    2    1    2    0    0  0.00000000000E+00 -0.14210854715E-13 -0.30560786861E+03  0.53429689829E+03  0.43826590806E+03 0.  0.
      99925    2    3    3    0    0  0.39487152069E+02 -0.67865679950E+02 -0.26398224377E+03  0.38085249000E+03  0.26305324255E+03 0.  0.
         25    1    4    4    0    0  0.13661758566E+02 -0.72373022981E+02 -0.12010947846E+03  0.18840990690E+03  0.12509000000E+03 0.  0.
         25    1    4    4    0    0  0.25825393503E+02  0.45073430305E+01 -0.14387276531E+03  0.19244258309E+03  0.12509000000E+03 0.  0.
         25    1    3    3    0    0 -0.39487152069E+02  0.67865679950E+02 -0.41625624844E+02  0.15344440830E+03  0.12509000000E+03 0.  0.
<mgrwt>
<rscale>  2 0.43826591E+03</rscale>
<asrwt>0</asrwt>
<pdfrwt beam="1">  1       21 0.16815370E-01 0.43826591E+03</pdfrwt>
<pdfrwt beam="2">  1       21 0.61757703E-01 0.43826591E+03</pdfrwt>
<totfact> 0.71987605E+04</totfact>
</mgrwt>
</event>
<event>
 7    0  0.4725730E-002  0.4492586E+03  0.7546771E-02  0.1027943E+00
         21   -1    0    0  502  501  0.00000000000E+00  0.00000000000E+00  0.17860638257E+02  0.17860638257E+02  0.00000000000E+00 0.  1.
         21   -1    0    0  501  502 -0.00000000000E+00 -0.00000000000E+00 -0.28251131040E+04  0.28251131040E+04  0.00000000000E+00 0.  1.
      99926    2    1    2    0    0  0.00000000000E+00 -0.71054273576E-14 -0.28072524657E+04  0.28429737422E+04  0.44925860341E+03 0.  0.
      99925    2    3    3    0    0  0.72897341623E+02 -0.36476699010E+02 -0.22211114839E+04  0.22381156344E+04  0.26302242658E+03 0.  0.
         25    1    4    4    0    0  0.44285986729E+02 -0.57839119710E+02 -0.11008110154E+04  0.11102878060E+04  0.12509000000E+03 0.  0.
         25    1    3    3    0    0 -0.72897341623E+02  0.36476699010E+02 -0.58614098181E+03  0.60485810786E+03  0.12509000000E+03 0.  0.
         25    1    4    4    0    0  0.28611354895E+02  0.21362420700E+02 -0.11203004685E+04  0.11278278284E+04  0.12509000000E+03 0.  0.
<mgrwt>
<rscale>  2 0.44925860E+03</rscale>
<asrwt>0</asrwt>
<pdfrwt beam="1">  1       21 0.26265631E-02 0.44925860E+03</pdfrwt>
<pdfrwt beam="2">  1       21 0.41545802E+00 0.44925860E+03</pdfrwt>
<totfact> 0.44146130E+03</totfact>
</mgrwt>
</event>
<event>
 7    0  0.4725730E-002  0.4681478E+03  0.7546771E-02  0.1022444E+00
         21   -1    0    0  502  501  0.00000000000E+00  0.00000000000E+00  0.71175387811E+02  0.71175387811E+02  0.00000000000E+00 0. -1.
         21   -1    0    0  501  502 -0.00000000000E+00 -0.00000000000E+00 -0.76979676554E+03  0.76979676554E+03  0.00000000000E+00 0. -1.
      99926    2    1    2    0    0  0.00000000000E+00 -0.14432899320E-14 -0.69862137773E+03  0.84097215335E+03  0.46814776865E+03 0.  0.
      99925    2    3    3    0    0 -0.10341755796E+03 -0.77320544511E+00 -0.56100834203E+03  0.62817966092E+03  0.26302763623E+03 0.  0.
         25    1    4    4    0    0 -0.77810458963E+02 -0.14521035982E+02 -0.36469120864E+03  0.39358927039E+03  0.12509000000E+03 0.  0.
         25    1    3    3    0    0  0.10341755796E+03  0.77320544511E+00 -0.13761303570E+03  0.21279249243E+03  0.12509000000E+03 0.  0.
         25    1    4    4    0    0 -0.25607099000E+02  0.13747830537E+02 -0.19631713340E+03  0.23459039053E+03  0.12509000000E+03 0.  0.
<mgrwt>
<rscale>  2 0.46814777E+03</rscale>
<asrwt>0</asrwt>
<pdfrwt beam="1">  1       21 0.10466969E-01 0.46814777E+03</pdfrwt>
<pdfrwt beam="2">  1       21 0.11320540E+00 0.46814777E+03</pdfrwt>
<totfact> 0.41406708E+04</totfact>
</mgrwt>
</event>
<event>
 7    0  0.4725730E-002  0.4580973E+03  0.7546771E-02  0.1025334E+00
         21   -1    0    0  502  501  0.00000000000E+00  0.00000000000E+00  0.34302647688E+02  0.34302647688E+02  0.00000000000E+00 0.  1.
         21   -1    0    0  501  502 -0.00000000000E+00 -0.00000000000E+00 -0.15294238811E+04  0.15294238811E+04  0.00000000000E+00 0.  1.
      99926    2    1    2    0    0  0.00000000000E+00 -0.35527136788E-14 -0.14951212334E+04  0.15637265287E+04  0.45809731960E+03 0.  0.
      99925    2    3    3    0    0  0.10847876275E+03 -0.31072460544E+02 -0.84840930050E+03  0.89543245276E+03  0.26318775906E+03 0.  0.
         25    1    4    4    0    0  0.54424528699E+02 -0.44243038022E+02 -0.34218238680E+03  0.37101990469E+03  0.12509000000E+03 0.  0.
         25    1    4    4    0    0  0.54054234048E+02  0.13170577479E+02 -0.50622691370E+03  0.52441254808E+03  0.12509000000E+03 0.  0.
         25    1    3    3    0    0 -0.10847876275E+03  0.31072460544E+02 -0.64671193287E+03  0.66829407598E+03  0.12509000000E+03 0.  0.
<mgrwt>
<rscale>  2 0.45809732E+03</rscale>
<asrwt>0</asrwt>
<pdfrwt beam="1">  1       21 0.50445068E-02 0.45809732E+03</pdfrwt>
<pdfrwt beam="2">  1       21 0.22491529E+00 0.45809732E+03</pdfrwt>
<totfact> 0.21732172E+04</totfact>
</mgrwt>
</event>
<event>
 7    0  0.4725730E-002  0.4553429E+03  0.7546771E-02  0.1026141E+00
         21   -1    0    0  502  501  0.00000000000E+00  0.00000000000E+00  0.15621655101E+03  0.15621655101E+03  0.00000000000E+00 0.  1.
         21   -1    0    0  501  502 -0.00000000000E+00 -0.00000000000E+00 -0.33181047666E+03  0.33181047666E+03  0.00000000000E+00 0.  1.
      99926    2    1    2    0    0 -0.14210854715E-13  0.44408920985E-15 -0.17559392565E+03  0.48802702767E+03  0.45534289609E+03 0.  0.
      99925    2    3    3    0    0 -0.11357541314E+03  0.37959286210E+01 -0.10772546192E+03  0.30590778099E+03  0.26279461901E+03 0.  0.
         25    1    3    3    0    0  0.11357541314E+03 -0.37959286210E+01 -0.67868463726E+02  0.18211924668E+03  0.12509000000E+03 0.  0.
         25    1    4    4    0    0 -0.92559479651E+02 -0.17112285542E+01 -0.34700353720E+02  0.15944217831E+03  0.12509000000E+03 0.  0.
         25    1    4    4    0    0 -0.21015933489E+02  0.55071571752E+01 -0.73025108200E+02  0.14646560268E+03  0.12509000000E+03 0.  0.
<mgrwt>
<rscale>  2 0.45534290E+03</rscale>
<asrwt>0</asrwt>
<pdfrwt beam="1">  1       21 0.22973022E-01 0.45534290E+03</pdfrwt>
<pdfrwt beam="2">  1       21 0.48795658E-01 0.45534290E+03</pdfrwt>
<totfact> 0.65940591E+04</totfact>
</mgrwt>
</event>
<event>
 7    0  0.4725730E-002  0.4550411E+03  0.7546771E-02  0.1026229E+00
         21   -1    0    0  502  501  0.00000000000E+00  0.00000000000E+00  0.17187154833E+04  0.17187154833E+04  0.00000000000E+00 0.  1.
         21   -1    0    0  501  502 -0.00000000000E+00 -0.00000000000E+00 -0.30118774598E+02  0.30118774598E+02  0.00000000000E+00 0.  1.
      99926    2    1    2    0    0 -0.14210854715E-13  0.71054273576E-14  0.16885967087E+04  0.17488342579E+04  0.45504111568E+03 0.  0.
      99925    2    3    3    0    0 -0.82828434652E+02 -0.58641929598E+02  0.12553424748E+04  0.12866046993E+04  0.26299714425E+03 0.  0.
         25    1    4    4    0    0 -0.40331657335E+02  0.90282364395E+01  0.66163422823E+03  0.67462249570E+03  0.12509000000E+03 0.  0.
         25    1    4    4    0    0 -0.42496777317E+02 -0.67670166038E+02  0.59370824654E+03  0.61198220363E+03  0.12509000000E+03 0.  0.
         25    1    3    3    0    0  0.82828434652E+02  0.58641929598E+02  0.43325423397E+03  0.46222955860E+03  0.12509000000E+03 0.  0.
<mgrwt>
<rscale>  2 0.45504112E+03</rscale>
<asrwt>0</asrwt>
<pdfrwt beam="1">  1       21 0.25275221E+00 0.45504112E+03</pdfrwt>
<pdfrwt beam="2">  1       21 0.44292327E-02 0.45504112E+03</pdfrwt>
<totfact> 0.18257824E+04</totfact>
</mgrwt>
</event>
<event>
 7    0  0.4725730E-002  0.4518825E+03  0.7546771E-02  0.1027162E+00
         21   -1    0    0  502  501  0.00000000000E+00  0.00000000000E+00  0.65328100730E+03  0.65328100730E+03  0.00000000000E+00 0. -1.
         21   -1    0    0  501  502 -0.00000000000E+00 -0.00000000000E+00 -0.78143152794E+02  0.78143152794E+02  0.00000000000E+00 0. -1.
      99926    2    1    2    0    0  0.00000000000E+00  0.00000000000E+00  0.57513785451E+03  0.73142416010E+03  0.45188245185E+03 0.  0.
      99925    2    3    3    0    0 -0.83363849036E+02 -0.63053263231E+02  0.30624540943E+03  0.41697877461E+03  0.26298251340E+03 0.  0.
         25    1    4    4    0    0 -0.16950624805E+02 -0.63308368697E+02  0.15961671407E+03  0.21312033394E+03  0.12509000000E+03 0.  0.
         25    1    4    4    0    0 -0.66413224231E+02  0.25510546604E+00  0.14662869535E+03  0.20385844067E+03  0.12509000000E+03 0.  0.
         25    1    3    3    0    0  0.83363849036E+02  0.63053263231E+02  0.26889244508E+03  0.31444538549E+03  0.12509000000E+03 0.  0.
<mgrwt>
<rscale>  2 0.45188245E+03</rscale>
<asrwt>0</asrwt>
<pdfrwt beam="1">  1       21 0.96070733E-01 0.45188245E+03</pdfrwt>
<pdfrwt beam="2">  1       21 0.11491640E-01 0.45188245E+03</pdfrwt>
<totfact> 0.52505164E+04</totfact>
</mgrwt>
</event>
<event>
 7    0  0.4725730E-002  0.4564935E+03  0.7546771E-02  0.1025803E+00
         21   -1    0    0  502  501  0.00000000000E+00  0.00000000000E+00  0.23027551293E+03  0.23027551293E+03  0.00000000000E+00 0. -1.
         21   -1    0    0  501  502 -0.00000000000E+00 -0.00000000000E+00 -0.22623583705E+03  0.22623583705E+03  0.00000000000E+00 0. -1.
      99926    2    1    2    0    0  0.00000000000E+00  0.35527136788E-14  0.40396758806E+01  0.45651134999E+03  0.45649347606E+03 0.  0.
      99925    2    3    3    0    0  0.10898015907E+03 -0.31584003456E+02  0.19055172156E+02  0.28696136452E+03  0.26288685930E+03 0.  0.
         25    1    4    4    0    0  0.92828483805E+02 -0.31305643875E+02 -0.30248841804E+01  0.15891453290E+03  0.12509000000E+03 0.  0.
         25    1    3    3    0    0 -0.10898015907E+03  0.31584003456E+02 -0.15015496275E+02  0.16954998547E+03  0.12509000000E+03 0.  0.
         25    1    4    4    0    0  0.16151675263E+02 -0.27835958084E+00  0.22080056336E+02  0.12804683161E+03  0.12509000000E+03 0.  0.
<mgrwt>
<rscale>  2 0.45649348E+03</rscale>
<asrwt>0</asrwt>
<pdfrwt beam="1">  1       21 0.33864046E-01 0.45649348E+03</pdfrwt>
<pdfrwt beam="2">  1       21 0.33269976E-01 0.45649348E+03</pdfrwt>
<totfact> 0.67625758E+04</totfact>
</mgrwt>
</event>
<event>
 7    0  0.4725730E-002  0.4300220E+03  0.7546771E-02  0.1033853E+00
         21   -1    0    0  502  501  0.00000000000E+00  0.00000000000E+00  0.13011685099E+04  0.13011685099E+04  0.00000000000E+00 0.  1.
         21   -1    0    0  501  502 -0.00000000000E+00 -0.00000000000E+00 -0.35529388134E+02  0.35529388134E+02  0.00000000000E+00 0.  1.
      99926    2    1    2    0    0  0.00000000000E+00 -0.14210854715E-13  0.12656391218E+04  0.13366978981E+04  0.43002195766E+03 0.  0.
      99925    2    3    3    0    0  0.26742425378E+02  0.70563980944E+02  0.95531700626E+03  0.99370845768E+03  0.26292866656E+03 0.  0.
         25    1    4    4    0    0  0.20318016736E+02  0.37191811751E+02  0.62636955773E+03  0.64014247135E+03  0.12509000000E+03 0.  0.
         25    1    3    3    0    0 -0.26742425378E+02 -0.70563980944E+02  0.31032211553E+03  0.34298944038E+03  0.12509000000E+03 0.  0.
         25    1    4    4    0    0  0.64244086416E+01  0.33372169193E+02  0.32894744852E+03  0.35356598633E+03  0.12509000000E+03 0.  0.
<mgrwt>
<rscale>  2 0.43002196E+03</rscale>
<asrwt>0</asrwt>
<pdfrwt beam="1">  1       21 0.19134828E+00 0.43002196E+03</pdfrwt>
<pdfrwt beam="2">  1       21 0.52249109E-02 0.43002196E+03</pdfrwt>
<totfact> 0.34252002E+04</totfact>
</mgrwt>
</event>
<event>
 7    0  0.4725730E-002  0.4262413E+03  0.7546771E-02  0.1035054E+00
         21   -1    0    0  502  501  0.00000000000E+00  0.00000000000E+00  0.89425348608E+03  0.89425348608E+03  0.00000000000E+00 0.  1.
         21   -1    0    0  501  502 -0.00000000000E+00 -0.00000000000E+00 -0.50791420340E+02  0.50791420340E+02  0.00000000000E+00 0.  1.
      99926    2    1    2    0    0  0.00000000000E+00  0.71054273576E-14  0.84346206574E+03  0.94504490642E+03  0.42624126831E+03 0.  0.
      99925    2    3    3    0    0 -0.37631106725E+02 -0.54752859410E+02  0.43432331783E+03  0.51208301555E+03  0.26301766974E+03 0.  0.
         25    1    3    3    0    0  0.37631106725E+02  0.54752859410E+02  0.40913874791E+03  0.43296189088E+03  0.12509000000E+03 0.  0.
         25    1    4    4    0    0  0.21548440600E+02 -0.25546112250E+02  0.22096528777E+03  0.25610565328E+03  0.12509000000E+03 0.  0.
         25    1    4    4    0    0 -0.59179547325E+02 -0.29206747160E+02  0.21335803006E+03  0.25597736227E+03  0.12509000000E+03 0.  0.
<mgrwt>
<rscale>  2 0.42624127E+03</rscale>
<asrwt>0</asrwt>
<pdfrwt beam="1">  1       21 0.13150786E+00 0.42624127E+03</pdfrwt>
<pdfrwt beam="2">  1       21 0.74693271E-02 0.42624127E+03</pdfrwt>
<totfact> 0.52111334E+04</totfact>
</mgrwt>
</event>
<event>
 7    0  0.5126282E-002  0.4340831E+03  0.7546771E-02  0.1032578E+00
         21   -1    0    0  502  501  0.00000000000E+00  0.00000000000E+00  0.23480342532E+03  0.23480342532E+03  0.00000000000E+00 0.  1.
         21   -1    0    0  501  502 -0.00000000000E+00 -0.00000000000E+00 -0.20062327712E+03  0.20062327712E+03  0.00000000000E+00 0.  1.
      99926    2    1    2    0    0  0.00000000000E+00  0.00000000000E+00  0.34180148200E+02  0.43542670245E+03  0.43408309190E+03 0.  0.
      99925    2    3    3    0    0  0.60951863252E+02 -0.56191031661E+02  0.58180757082E+02  0.28345269480E+03  0.26474113399E+03 0.  0.
         25    1    3    3    0    0 -0.60951863252E+02  0.56191031661E+02 -0.24000608882E+02  0.15197400765E+03  0.12509000000E+03 0.  0.
         25    1    4    4    0    0  0.79280569941E+01 -0.16990231754E+01 -0.15213533473E+01  0.12536173014E+03  0.12509000000E+03 0.  0.
         25    1    4    4    0    0  0.53023806258E+02 -0.54492008485E+02  0.59702110429E+02  0.15809096466E+03  0.12509000000E+03 0.  0.
<mgrwt>
<rscale>  2 0.43408309E+03</rscale>
<asrwt>0</asrwt>
<pdfrwt beam="1">  1       21 0.34529916E-01 0.43408309E+03</pdfrwt>
<pdfrwt beam="2">  1       21 0.29503423E-01 0.43408309E+03</pdfrwt>
<totfact> 0.83017763E+04</totfact>
</mgrwt>
</event>
<event>
 7    0  0.4725730E-002  0.4526098E+03  0.7546771E-02  0.1026947E+00
         21   -1    0    0  502  501  0.00000000000E+00  0.00000000000E+00  0.33815234509E+03  0.33815234509E+03  0.00000000000E+00 0.  1.
         21   -1    0    0  501  502 -0.00000000000E+00 -0.00000000000E+00 -0.15145219459E+03  0.15145219459E+03  0.00000000000E+00 0.  1.
      99926    2    1    2    0    0  0.00000000000E+00 -0.88817841970E-15  0.18670015050E+03  0.48960453968E+03  0.45260983096E+03 0.  0.
      99925    2    3    3    0    0 -0.10126477084E+03 -0.38424393147E+01  0.68858943752E+02  0.29009670460E+03  0.26295479788E+03 0.  0.
         25    1    4    4    0    0 -0.52821741365E+02  0.77350924248E+01  0.75002512208E+02  0.15531533393E+03  0.12509000000E+03 0.  0.
         25    1    3    3    0    0  0.10126477084E+03  0.38424393147E+01  0.11784120675E+03  0.19950783509E+03  0.12509000000E+03 0.  0.
         25    1    4    4    0    0 -0.48443029476E+02 -0.11577531740E+02 -0.61435684564E+01  0.13478137067E+03  0.12509000000E+03 0.  0.
<mgrwt>
<rscale>  2 0.45260983E+03</rscale>
<asrwt>0</asrwt>
<pdfrwt beam="1">  1       21 0.49728286E-01 0.45260983E+03</pdfrwt>
<pdfrwt beam="2">  1       21 0.22272381E-01 0.45260983E+03</pdfrwt>
<totfact> 0.67274817E+04</totfact>
</mgrwt>
</event>
<event>
 7    0  0.4725730E-002  0.4557629E+03  0.7546771E-02  0.1026017E+00
         21   -1    0    0  502  501  0.00000000000E+00  0.00000000000E+00  0.22647854828E+02  0.22647854828E+02  0.00000000000E+00 0.  1.
         21   -1    0    0  501  502 -0.00000000000E+00 -0.00000000000E+00 -0.22929301562E+04  0.22929301562E+04  0.00000000000E+00 0.  1.
      99926    2    1    2    0    0 -0.17763568394E-14  0.00000000000E+00 -0.22702823014E+04  0.23155780111E+04  0.45576287391E+03 0.  0.
      99925    2    3    3    0    0 -0.11290649881E+02  0.10200846291E+03 -0.16774616559E+04  0.17010724935E+04  0.26312889586E+03 0.  0.
         25    1    3    3    0    0  0.11290649881E+02 -0.10200846291E+03 -0.59282064552E+03  0.61450551758E+03  0.12509000000E+03 0.  0.
         25    1    4    4    0    0 -0.19342174665E+02  0.45313920867E+02 -0.60090887497E+03  0.61576493508E+03  0.12509000000E+03 0.  0.
         25    1    4    4    0    0  0.80515247832E+01  0.56694542041E+02 -0.10765527809E+04  0.10853075584E+04  0.12509000000E+03 0.  0.
<mgrwt>
<rscale>  2 0.45576287E+03</rscale>
<asrwt>0</asrwt>
<pdfrwt beam="1">  1       21 0.33305667E-02 0.45576287E+03</pdfrwt>
<pdfrwt beam="2">  1       21 0.33719563E+00 0.45576287E+03</pdfrwt>
<totfact> 0.91534805E+03</totfact>
</mgrwt>
</event>
<event>
 7    0  0.4725730E-002  0.4415984E+03  0.7546771E-02  0.1030258E+00
         21   -1    0    0  502  501  0.00000000000E+00  0.00000000000E+00  0.22006658913E+04  0.22006658913E+04  0.00000000000E+00 0. -1.
         21   -1    0    0  501  502 -0.00000000000E+00 -0.00000000000E+00 -0.22153428490E+02  0.22153428490E+02  0.00000000000E+00 0. -1.
      99926    2    1    2    0    0  0.00000000000E+00  0.35527136788E-14  0.21785124628E+04  0.22228193198E+04  0.44159843502E+03 0.  0.
      99925    2    3    3    0    0 -0.69319352176E+02 -0.13503442497E+02  0.10318538179E+04  0.10671978110E+04  0.26306149610E+03 0.  0.
         25    1    3    3    0    0  0.69319352176E+02  0.13503442497E+02  0.11466586449E+04  0.11556215088E+04  0.12509000000E+03 0.  0.
         25    1    4    4    0    0 -0.85722917571E+01  0.23497061507E+02  0.44154700325E+03  0.45960511341E+03  0.12509000000E+03 0.  0.
         25    1    4    4    0    0 -0.60747060419E+02 -0.37000504004E+02  0.59030681461E+03  0.60759269756E+03  0.12509000000E+03 0.  0.
<mgrwt>
<rscale>  2 0.44159844E+03</rscale>
<asrwt>0</asrwt>
<pdfrwt beam="1">  1       21 0.32362719E+00 0.44159844E+03</pdfrwt>
<pdfrwt beam="2">  1       21 0.32578586E-02 0.44159844E+03</pdfrwt>
<totfact> 0.11558394E+04</totfact>
</mgrwt>
</event>
<event>
 7    0  0.4725730E-002  0.4534485E+03  0.7546771E-02  0.1026699E+00
         21   -1    0    0  502  501  0.00000000000E+00  0.00000000000E+00  0.77065957285E+03  0.77065957285E+03  0.00000000000E+00 0.  1.
         21   -1    0    0  501  502 -0.00000000000E+00 -0.00000000000E+00 -0.66701146809E+02  0.66701146809E+02  0.00000000000E+00 0.  1.
      99926    2    1    2    0    0  0.00000000000E+00  0.00000000000E+00  0.70395842604E+03  0.83736071965E+03  0.45344846370E+03 0.  0.
      99925    2    3    3    0    0 -0.38654926338E+01 -0.87054315470E+02  0.31475155907E+03  0.41936204828E+03  0.26306384724E+03 0.  0.
         25    1    4    4    0    0 -0.18433871051E+02 -0.29978273555E+02  0.20551844594E+03  0.24315395166E+03  0.12509000000E+03 0.  0.
         25    1    4    4    0    0  0.14568378417E+02 -0.57076041915E+02  0.10923311313E+03  0.17620809662E+03  0.12509000000E+03 0.  0.
         25    1    3    3    0    0  0.38654926338E+01  0.87054315470E+02  0.38920686696E+03  0.41799867137E+03  0.12509000000E+03 0.  0.
<mgrwt>
<rscale>  2 0.45344846E+03</rscale>
<asrwt>0</asrwt>
<pdfrwt beam="1">  1       21 0.11333228E+00 0.45344846E+03</pdfrwt>
<pdfrwt beam="2">  1       21 0.98089927E-02 0.45344846E+03</pdfrwt>
<totfact> 0.46574532E+04</totfact>
</mgrwt>
</event>
<event>
 7    0  0.4725730E-002  0.4627546E+03  0.7546771E-02  0.1023985E+00
         21   -1    0    0  502  501  0.00000000000E+00  0.00000000000E+00  0.11090879622E+03  0.11090879622E+03  0.00000000000E+00 0. -1.
         21   -1    0    0  501  502 -0.00000000000E+00 -0.00000000000E+00 -0.48269800525E+03  0.48269800525E+03  0.00000000000E+00 0. -1.
      99926    2    1    2    0    0  0.00000000000E+00  0.00000000000E+00 -0.37178920903E+03  0.59360680147E+03  0.46275459890E+03 0.  0.
      99925    2    3    3    0    0 -0.10761677499E+03 -0.35677020219E+02 -0.28396992568E+03  0.40330715707E+03  0.26298958958E+03 0.  0.
         25    1    3    3    0    0  0.10761677499E+03  0.35677020219E+02 -0.87819283351E+02  0.19029964440E+03  0.12509000000E+03 0.  0.
         25    1    4    4    0    0 -0.80643865239E+02  0.70407718660E+01 -0.12245054457E+03  0.19285914402E+03  0.12509000000E+03 0.  0.
         25    1    4    4    0    0 -0.26972909746E+02 -0.42717792085E+02 -0.16151938111E+03  0.21044801305E+03  0.12509000000E+03 0.  0.
<mgrwt>
<rscale>  2 0.46275460E+03</rscale>
<asrwt>0</asrwt>
<pdfrwt beam="1">  1       21 0.16310117E-01 0.46275460E+03</pdfrwt>
<pdfrwt beam="2">  1       21 0.70985001E-01 0.46275460E+03</pdfrwt>
<totfact> 0.55587720E+04</totfact>
</mgrwt>
</event>
<event>
 7    0  0.4725730E-002  0.4513293E+03  0.7546771E-02  0.1027326E+00
         21   -1    0    0  502  501  0.00000000000E+00  0.00000000000E+00  0.35706838401E+02  0.35706838401E+02  0.00000000000E+00 0.  1.
         21   -1    0    0  501  502 -0.00000000000E+00 -0.00000000000E+00 -0.14261841408E+04  0.14261841408E+04  0.00000000000E+00 0.  1.
      99926    2    1    2    0    0 -0.71054273576E-14  0.00000000000E+00 -0.13904773024E+04  0.14618909792E+04  0.45132926626E+03 0.  0.
      99925    2    3    3    0    0 -0.54364921926E+02 -0.93145402514E+02 -0.83610104140E+03  0.88343427589E+03  0.26412034689E+03 0.  0.
         25    1    4    4    0    0 -0.53718116075E+02 -0.21229245010E+02 -0.47476745899E+03  0.49435611157E+03  0.12509000000E+03 0.  0.
         25    1    4    4    0    0 -0.64680585046E+00 -0.71916157504E+02 -0.36133358242E+03  0.38907816432E+03  0.12509000000E+03 0.  0.
         25    1    3    3    0    0  0.54364921926E+02  0.93145402514E+02 -0.55437626101E+03  0.57845670332E+03  0.12509000000E+03 0.  0.
<mgrwt>
<rscale>  2 0.45132927E+03</rscale>
<asrwt>0</asrwt>
<pdfrwt beam="1">  1       21 0.52510051E-02 0.45132927E+03</pdfrwt>
<pdfrwt beam="2">  1       21 0.20973299E+00 0.45132927E+03</pdfrwt>
<totfact> 0.25446230E+04</totfact>
</mgrwt>
</event>
<event>
 7    0  0.4725730E-002  0.4514494E+03  0.7546771E-02  0.1027291E+00
         21   -1    0    0  502  501  0.00000000000E+00  0.00000000000E+00  0.15649337427E+03  0.15649337427E+03  0.00000000000E+00 0.  1.
         21   -1    0    0  501  502 -0.00000000000E+00 -0.00000000000E+00 -0.32558341862E+03  0.32558341862E+03  0.00000000000E+00 0.  1.
      99926    2    1    2    0    0 -0.14210854715E-13  0.00000000000E+00 -0.16909004435E+03  0.48207679290E+03  0.45144943366E+03 0.  0.
      99925    2    3    3    0    0 -0.97966742206E+02 -0.45425923636E+02 -0.12922677093E+03  0.31208389368E+03  0.26274664842E+03 0.  0.
         25    1    4    4    0    0 -0.99348374566E+01 -0.16703134525E+02 -0.40380299457E+02  0.13287502543E+03  0.12509000000E+03 0.  0.
         25    1    3    3    0    0  0.97966742206E+02  0.45425923636E+02 -0.39863273424E+02  0.16999289922E+03  0.12509000000E+03 0.  0.
         25    1    4    4    0    0 -0.88031904749E+02 -0.28722789112E+02 -0.88846471469E+02  0.17920886825E+03  0.12509000000E+03 0.  0.
<mgrwt>
<rscale>  2 0.45144943E+03</rscale>
<asrwt>0</asrwt>
<pdfrwt beam="1">  1       21 0.23013732E-01 0.45144943E+03</pdfrwt>
<pdfrwt beam="2">  1       21 0.47879914E-01 0.45144943E+03</pdfrwt>
<totfact> 0.68458504E+04</totfact>
</mgrwt>
</event>
<event>
 7    0  0.4725730E-002  0.4548497E+03  0.7546771E-02  0.1026286E+00
         21   -1    0    0  502  501  0.00000000000E+00  0.00000000000E+00  0.13002163028E+03  0.13002163028E+03  0.00000000000E+00 0. -1.
         21   -1    0    0  501  502 -0.00000000000E+00 -0.00000000000E+00 -0.39779579748E+03  0.39779579748E+03  0.00000000000E+00 0. -1.
      99926    2    1    2    0    0 -0.14210854715E-13  0.00000000000E+00 -0.26777416719E+03  0.52781742776E+03  0.45484968113E+03 0.  0.
      99925    2    3    3    0    0  0.10446212847E+03  0.22974562835E+02 -0.21081153078E+03  0.35365538577E+03  0.26304080207E+03 0.  0.
         25    1    3    3    0    0 -0.10446212847E+03 -0.22974562835E+02 -0.56962636412E+02  0.17416204199E+03  0.12509000000E+03 0.  0.
         25    1    4    4    0    0  0.41437494614E+02  0.21956447447E+01 -0.14964449737E+03  0.19940629506E+03  0.12509000000E+03 0.  0.
         25    1    4    4    0    0  0.63024633854E+02  0.20778918090E+02 -0.61167033415E+02  0.15424909071E+03  0.12509000000E+03 0.  0.
<mgrwt>
<rscale>  2 0.45484968E+03</rscale>
<asrwt>0</asrwt>
<pdfrwt beam="1">  1       21 0.19120828E-01 0.45484968E+03</pdfrwt>
<pdfrwt beam="2">  1       21 0.58499382E-01 0.45484968E+03</pdfrwt>
<totfact> 0.63430072E+04</totfact>
</mgrwt>
</event>
<event>
 7    0  0.4725730E-002  0.4678396E+03  0.7546771E-02  0.1022532E+00
         21   -1    0    0  502  501  0.00000000000E+00  0.00000000000E+00  0.17173053789E+03  0.17173053789E+03  0.00000000000E+00 0.  1.
         21   -1    0    0  501  502 -0.00000000000E+00 -0.00000000000E+00 -0.31862985418E+03  0.31862985418E+03  0.00000000000E+00 0.  1.
      99926    2    1    2    0    0  0.00000000000E+00  0.00000000000E+00 -0.14689931630E+03  0.49036039207E+03  0.46783961459E+03 0.  0.
      99925    2    3    3    0    0 -0.68564389694E+02 -0.10340162852E+03 -0.77833497487E+02  0.30112358872E+03  0.26310528318E+03 0.  0.
         25    1    3    3    0    0  0.68564389694E+02  0.10340162852E+03 -0.69065818810E+02  0.18923680335E+03  0.12509000000E+03 0.  0.
         25    1    4    4    0    0 -0.25679837063E+02 -0.45501249237E+02  0.31548389537E+01  0.13559970067E+03  0.12509000000E+03 0.  0.
         25    1    4    4    0    0 -0.42884552631E+02 -0.57900379279E+02 -0.80988336441E+02  0.16552388805E+03  0.12509000000E+03 0.  0.
<mgrwt>
<rscale>  2 0.46783961E+03</rscale>
<asrwt>0</asrwt>
<pdfrwt beam="1">  1       21 0.25254491E-01 0.46783961E+03</pdfrwt>
<pdfrwt beam="2">  1       21 0.46857331E-01 0.46783961E+03</pdfrwt>
<totfact> 0.59639160E+04</totfact>
</mgrwt>
</event>
<event>
 7    0  0.4725730E-002  0.4658035E+03  0.7546771E-02  0.1023111E+00
         21   -1    0    0  502  501  0.00000000000E+00  0.00000000000E+00  0.65054895977E+02  0.65054895977E+02  0.00000000000E+00 0.  1.
         21   -1    0    0  501  502 -0.00000000000E+00 -0.00000000000E+00 -0.83380692700E+03  0.83380692700E+03  0.00000000000E+00 0.  1.
      99926    2    1    2    0    0  0.00000000000E+00  0.00000000000E+00 -0.76875203102E+03  0.89886182297E+03  0.46580349033E+03 0.  0.
      99925    2    3    3    0    0 -0.48758724736E+02 -0.51365289264E+02 -0.28458980858E+03  0.39381096225E+03  0.26283057026E+03 0.  0.
         25    1    4    4    0    0 -0.21245637578E+02 -0.44759530327E+02 -0.19678418589E+03  0.23838271034E+03  0.12509000000E+03 0.  0.
         25    1    4    4    0    0 -0.27513087158E+02 -0.66057589377E+01 -0.87805622682E+02  0.15542825191E+03  0.12509000000E+03 0.  0.
         25    1    3    3    0    0  0.48758724736E+02  0.51365289264E+02 -0.48416222244E+03  0.50505086073E+03  0.12509000000E+03 0.  0.
<mgrwt>
<rscale>  2 0.46580349E+03</rscale>
<asrwt>0</asrwt>
<pdfrwt beam="1">  1       21 0.95668966E-02 0.46580349E+03</pdfrwt>
<pdfrwt beam="2">  1       21 0.12261866E+00 0.46580349E+03</pdfrwt>
<totfact> 0.39807345E+04</totfact>
</mgrwt>
</event>
<event>
 7    0  0.4725730E-002  0.3961207E+03  0.7546771E-02  0.1045131E+00
         21   -1    0    0  502  501  0.00000000000E+00  0.00000000000E+00  0.15568770097E+03  0.15568770097E+03  0.00000000000E+00 0.  1.
         21   -1    0    0  501  502 -0.00000000000E+00 -0.00000000000E+00 -0.25196527223E+03  0.25196527223E+03  0.00000000000E+00 0.  1.
      99926    2    1    2    0    0 -0.88817841970E-15  0.00000000000E+00 -0.96277571264E+02  0.40765297320E+03  0.39612065818E+03 0.  0.
      99925    2    3    3    0    0  0.76313099283E+01 -0.20944496280E+02 -0.33819704241E+02  0.26607118741E+03  0.26296995182E+03 0.  0.
         25    1    3    3    0    0 -0.76313099283E+01  0.20944496280E+02 -0.62457867024E+02  0.14158178579E+03  0.12509000000E+03 0.  0.
         25    1    4    4    0    0 -0.29583547635E+02  0.11920817446E+02 -0.10912719162E+02  0.12955264458E+03  0.12509000000E+03 0.  0.
         25    1    4    4    0    0  0.37214857564E+02 -0.32865313726E+02 -0.22906985079E+02  0.13651854283E+03  0.12509000000E+03 0.  0.
<mgrwt>
<rscale>  2 0.39612066E+03</rscale>
<asrwt>0</asrwt>
<pdfrwt beam="1">  1       21 0.22895251E-01 0.39612066E+03</pdfrwt>
<pdfrwt beam="2">  1       21 0.37053716E-01 0.39612066E+03</pdfrwt>
<totfact> 0.11893201E+05</totfact>
</mgrwt>
</event>
<event>
 7    0  0.4725730E-002  0.4586390E+03  0.7546771E-02  0.1025177E+00
         21   -1    0    0  502  501  0.00000000000E+00  0.00000000000E+00  0.24947390342E+03  0.24947390342E+03  0.00000000000E+00 0.  1.
         21   -1    0    0  501  502 -0.00000000000E+00 -0.00000000000E+00 -0.21079331440E+03  0.21079331440E+03  0.00000000000E+00 0.  1.
      99926    2    1    2    0    0  0.00000000000E+00  0.71054273576E-14  0.38680589019E+02  0.46026721781E+03  0.45863899074E+03 0.  0.
      99925    2    3    3    0    0  0.10717683960E+03  0.21091418761E+02  0.64777492151E+02  0.29215927825E+03  0.26311441900E+03 0.  0.
         25    1    3    3    0    0 -0.10717683960E+03 -0.21091418761E+02 -0.26096903132E+02  0.16810793956E+03  0.12509000000E+03 0.  0.
         25    1    4    4    0    0  0.40824354055E+02 -0.23403308235E+02  0.51180645724E+02  0.14311292505E+03  0.12509000000E+03 0.  0.
         25    1    4    4    0    0  0.66352485543E+02  0.44494726996E+02  0.13596846427E+02  0.14904635320E+03  0.12509000000E+03 0.  0.
<mgrwt>
<rscale>  2 0.45863899E+03</rscale>
<asrwt>0</asrwt>
<pdfrwt beam="1">  1       21 0.36687339E-01 0.45863899E+03</pdfrwt>
<pdfrwt beam="2">  1       21 0.30999017E-01 0.45863899E+03</pdfrwt>
<totfact> 0.66218074E+04</totfact>
</mgrwt>
</event>
<event>
 7    0  0.4725730E-002  0.4542338E+03  0.7546771E-02  0.1026467E+00
         21   -1    0    0  502  501  0.00000000000E+00  0.00000000000E+00  0.13945505444E+03  0.13945505444E+03  0.00000000000E+00 0.  1.
         21   -1    0    0  501  502 -0.00000000000E+00 -0.00000000000E+00 -0.36988326621E+03  0.36988326621E+03  0.00000000000E+00 0.  1.
      99926    2    1    2    0    0  0.00000000000E+00  0.00000000000E+00 -0.23042821176E+03  0.50933832065E+03  0.45423382096E+03 0.  0.
      99925    2    3    3    0    0 -0.86426136711E+02 -0.27022511818E+02 -0.21987785894E+03  0.35455294894E+03  0.26298636371E+03 0.  0.
         25    1    3    3    0    0  0.86426136711E+02  0.27022511818E+02 -0.10550352824E+02  0.15478537171E+03  0.12509000000E+03 0.  0.
         25    1    4    4    0    0 -0.77795501792E+02 -0.14254100639E+02 -0.14875010097E+03  0.20983188538E+03  0.12509000000E+03 0.  0.
         25    1    4    4    0    0 -0.86306349187E+01 -0.12768411179E+02 -0.71127757964E+02  0.14472106355E+03  0.12509000000E+03 0.  0.
<mgrwt>
<rscale>  2 0.45423382E+03</rscale>
<asrwt>0</asrwt>
<pdfrwt beam="1">  1       21 0.20508096E-01 0.45423382E+03</pdfrwt>
<pdfrwt beam="2">  1       21 0.54394598E-01 0.45423382E+03</pdfrwt>
<totfact> 0.65013898E+04</totfact>
</mgrwt>
</event>
<event>
 7    0  0.4725730E-002  0.4346844E+03  0.7546771E-02  0.1032390E+00
         21   -1    0    0  502  501  0.00000000000E+00  0.00000000000E+00  0.12508136708E+03  0.12508136708E+03  0.00000000000E+00 0. -1.
         21   -1    0    0  501  502 -0.00000000000E+00 -0.00000000000E+00 -0.37765522602E+03  0.37765522602E+03  0.00000000000E+00 0. -1.
      99926    2    1    2    0    0 -0.35527136788E-14  0.00000000000E+00 -0.25257385894E+03  0.50273659310E+03  0.43468440025E+03 0.  0.
      99925    2    3    3    0    0  0.23796600026E+02  0.83289370397E+02 -0.12372874486E+03  0.30335763504E+03  0.26308488181E+03 0.  0.
         25    1    3    3    0    0 -0.23796600026E+02 -0.83289370397E+02 -0.12884511407E+03  0.19937895805E+03  0.12509000000E+03 0.  0.
         25    1    4    4    0    0 -0.18842669676E+02  0.40136789113E+02 -0.89833622789E+02  0.16026102435E+03  0.12509000000E+03 0.  0.
         25    1    4    4    0    0  0.42639269702E+02  0.43152581284E+02 -0.33895122075E+02  0.14309661070E+03  0.12509000000E+03 0.  0.
<mgrwt>
<rscale>  2 0.43468440E+03</rscale>
<asrwt>0</asrwt>
<pdfrwt beam="1">  1       21 0.18394319E-01 0.43468440E+03</pdfrwt>
<pdfrwt beam="2">  1       21 0.55537532E-01 0.43468440E+03</pdfrwt>
<totfact> 0.76718408E+04</totfact>
</mgrwt>
</event>
<event>
 7    0  0.4725730E-002  0.4543250E+03  0.7546771E-02  0.1026440E+00
         21   -1    0    0  502  501  0.00000000000E+00  0.00000000000E+00  0.63586344425E+03  0.63586344425E+03  0.00000000000E+00 0. -1.
         21   -1    0    0  501  502 -0.00000000000E+00 -0.00000000000E+00 -0.81153899753E+02  0.81153899753E+02  0.00000000000E+00 0. -1.
      99926    2    1    2    0    0  0.33306690739E-14  0.00000000000E+00  0.55470954450E+03  0.71701734400E+03  0.45432498594E+03 0.  0.
      99925    2    3    3    0    0 -0.10166329959E+01 -0.91975211757E+02  0.24727896693E+03  0.37260256319E+03  0.26310703048E+03 0.  0.
         25    1    4    4    0    0 -0.37510390790E+02 -0.59448295208E+02  0.14290833064E+03  0.20251278549E+03  0.12509000000E+03 0.  0.
         25    1    3    3    0    0  0.10166329959E+01  0.91975211757E+02  0.30743057757E+03  0.34441478082E+03  0.12509000000E+03 0.  0.
         25    1    4    4    0    0  0.36493757794E+02 -0.32526916549E+02  0.10437063629E+03  0.17008977770E+03  0.12509000000E+03 0.  0.
<mgrwt>
<rscale>  2 0.45432499E+03</rscale>
<asrwt>0</asrwt>
<pdfrwt beam="1">  1       21 0.93509328E-01 0.45432499E+03</pdfrwt>
<pdfrwt beam="2">  1       21 0.11934397E-01 0.45432499E+03</pdfrwt>
<totfact> 0.52265748E+04</totfact>
</mgrwt>
</event>
<event>
 7    0  0.4725730E-002  0.4486196E+03  0.7546771E-02  0.1028134E+00
         21   -1    0    0  502  501  0.00000000000E+00  0.00000000000E+00  0.42498192361E+03  0.42498192361E+03  0.00000000000E+00 0.  1.
         21   -1    0    0  501  502 -0.00000000000E+00 -0.00000000000E+00 -0.11839301928E+03  0.11839301928E+03  0.00000000000E+00 0.  1.
      99926    2    1    2    0    0  0.00000000000E+00  0.88817841970E-15  0.30658890433E+03  0.54337494289E+03  0.44861962987E+03 0.  0.
      99925    2    3    3    0    0 -0.58500223727E+02 -0.74652104976E+01  0.85879872504E+02  0.28291767121E+03  0.26303811632E+03 0.  0.
         25    1    4    4    0    0 -0.58036423637E+02 -0.33244100522E+02  0.45485506409E+02  0.14896253248E+03  0.12509000000E+03 0.  0.
         25    1    3    3    0    0  0.58500223727E+02  0.74652104976E+01  0.22070903182E+03  0.26045727168E+03  0.12509000000E+03 0.  0.
         25    1    4    4    0    0 -0.46380008955E+00  0.25778890024E+02  0.40394366094E+02  0.13395513874E+03  0.12509000000E+03 0.  0.
<mgrwt>
<rscale>  2 0.44861963E+03</rscale>
<asrwt>0</asrwt>
<pdfrwt beam="1">  1       21 0.62497341E-01 0.44861963E+03</pdfrwt>
<pdfrwt beam="2">  1       21 0.17410738E-01 0.44861963E+03</pdfrwt>
<totfact> 0.65554016E+04</totfact>
</mgrwt>
</event>
<event>
 7    0  0.4725730E-002  0.4488406E+03  0.7546771E-02  0.1028068E+00
         21   -1    0    0  502  501  0.00000000000E+00  0.00000000000E+00  0.10881048841E+04  0.10881048841E+04  0.00000000000E+00 0. -1.
         21   -1    0    0  501  502 -0.00000000000E+00 -0.00000000000E+00 -0.46286414380E+02  0.46286414380E+02  0.00000000000E+00 0. -1.
      99926    2    1    2    0    0 -0.55511151231E-15  0.14210854715E-13  0.10418184697E+04  0.11343912985E+04  0.44884061115E+03 0.  0.
      99925    2    3    3    0    0 -0.23610134680E+00  0.83554709432E+02  0.48764597391E+03  0.56016476789E+03  0.26268712590E+03 0.  0.
         25    1    3    3    0    0  0.23610134680E+00 -0.83554709432E+02  0.55417249582E+03  0.57422653059E+03  0.12509000000E+03 0.  0.
         25    1    4    4    0    0 -0.31512012367E+02  0.53502078278E+02  0.20501911618E+03  0.24806415582E+03  0.12509000000E+03 0.  0.
         25    1    4    4    0    0  0.31275911020E+02  0.30052631154E+02  0.28262685773E+03  0.31210061207E+03  0.12509000000E+03 0.  0.
<mgrwt>
<rscale>  2 0.44884061E+03</rscale>
<asrwt>0</asrwt>
<pdfrwt beam="1">  1       21 0.16001541E+00 0.44884061E+03</pdfrwt>
<pdfrwt beam="2">  1       21 0.68068264E-02 0.44884061E+03</pdfrwt>
<totfact> 0.36005698E+04</totfact>
</mgrwt>
</event>
<event>
 7    0  0.4725730E-002  0.4635669E+03  0.7546771E-02  0.1023752E+00
         21   -1    0    0  502  501  0.00000000000E+00  0.00000000000E+00  0.33749378911E+03  0.33749378911E+03  0.00000000000E+00 0. -1.
         21   -1    0    0  501  502 -0.00000000000E+00 -0.00000000000E+00 -0.15918388583E+03  0.15918388583E+03  0.00000000000E+00 0. -1.
      99926    2    1    2    0    0 -0.71054273576E-14 -0.71054273576E-14  0.17830990328E+03  0.49667767494E+03  0.46356692201E+03 0.  0.
      99925    2    3    3    0    0  0.53845273172E+02  0.35628107203E+02  0.17607310537E+01  0.27087733442E+03  0.26306416454E+03 0.  0.
         25    1    4    4    0    0 -0.12675980936E+02  0.25816148811E+02 -0.73858470016E+01  0.12856598644E+03  0.12509000000E+03 0.  0.
         25    1    3    3    0    0 -0.53845273172E+02 -0.35628107203E+02  0.17654917223E+03  0.22580034052E+03  0.12509000000E+03 0.  0.
         25    1    4    4    0    0  0.66521254108E+02  0.98119583913E+01  0.91465780552E+01  0.14231134799E+03  0.12509000000E+03 0.  0.
<mgrwt>
<rscale>  2 0.46356692E+03</rscale>
<asrwt>0</asrwt>
<pdfrwt beam="1">  1       21 0.49631440E-01 0.46356692E+03</pdfrwt>
<pdfrwt beam="2">  1       21 0.23409395E-01 0.46356692E+03</pdfrwt>
<totfact> 0.61233099E+04</totfact>
</mgrwt>
</event>
<event>
 7    0  0.4725730E-002  0.4601948E+03  0.7546771E-02  0.1024725E+00
         21   -1    0    0  502  501  0.00000000000E+00  0.00000000000E+00  0.29279660766E+03  0.29279660766E+03  0.00000000000E+00 0.  1.
         21   -1    0    0  501  502 -0.00000000000E+00 -0.00000000000E+00 -0.18082456382E+03  0.18082456382E+03  0.00000000000E+00 0.  1.
      99926    2    1    2    0    0  0.00000000000E+00  0.14210854715E-13  0.11197204384E+03  0.47362117148E+03  0.46019482338E+03 0.  0.
      99925    2    3    3    0    0 -0.90523118954E+01  0.11772718589E+03  0.73760058388E+02  0.29741305991E+03  0.26281618547E+03 0.  0.
         25    1    4    4    0    0 -0.28895438972E+01  0.10285970291E+03  0.43418385300E+02  0.16769356645E+03  0.12509000000E+03 0.  0.
         25    1    4    4    0    0 -0.61627679982E+01  0.14867482980E+02  0.30341673087E+02  0.12971949347E+03  0.12509000000E+03 0.  0.
         25    1    3    3    0    0  0.90523118954E+01 -0.11772718589E+03  0.38211985453E+02  0.17620811156E+03  0.12509000000E+03 0.  0.
<mgrwt>
<rscale>  2 0.46019482E+03</rscale>
<asrwt>0</asrwt>
<pdfrwt beam="1">  1       21 0.43058324E-01 0.46019482E+03</pdfrwt>
<pdfrwt beam="2">  1       21 0.26591848E-01 0.46019482E+03</pdfrwt>
<totfact> 0.64469318E+04</totfact>
</mgrwt>
</event>
<event>
 7    0  0.4725730E-002  0.4585713E+03  0.7546771E-02  0.1025196E+00
         21   -1    0    0  502  501  0.00000000000E+00  0.00000000000E+00  0.30886378861E+03  0.30886378861E+03  0.00000000000E+00 0.  1.
         21   -1    0    0  501  502 -0.00000000000E+00 -0.00000000000E+00 -0.17021069266E+03  0.17021069266E+03  0.00000000000E+00 0.  1.
      99926    2    1    2    0    0 -0.88817841970E-15  0.00000000000E+00  0.13865309595E+03  0.47907448127E+03  0.45857134406E+03 0.  0.
      99925    2    3    3    0    0 -0.51615659594E+01 -0.76102064325E+02  0.17887036918E+03  0.32714323655E+03  0.26307778753E+03 0.  0.
         25    1    3    3    0    0  0.51615659594E+01  0.76102064325E+02 -0.40217273235E+02  0.15193124473E+03  0.12509000000E+03 0.  0.
         25    1    4    4    0    0 -0.13800397178E+02 -0.24103513299E+02  0.43192895043E+02  0.13522042966E+03  0.12509000000E+03 0.  0.
         25    1    4    4    0    0  0.86388312185E+01 -0.51998551026E+02  0.13567747414E+03  0.19192280689E+03  0.12509000000E+03 0.  0.
<mgrwt>
<rscale>  2 0.45857134E+03</rscale>
<asrwt>0</asrwt>
<pdfrwt beam="1">  1       21 0.45421145E-01 0.45857134E+03</pdfrwt>
<pdfrwt beam="2">  1       21 0.25030984E-01 0.45857134E+03</pdfrwt>
<totfact> 0.64908160E+04</totfact>
</mgrwt>
</event>
<event>
 7    0  0.4725730E-002  0.4777900E+03  0.7546771E-02  0.1019744E+00
         21   -1    0    0  502  501  0.00000000000E+00  0.00000000000E+00  0.44502439680E+02  0.44502439680E+02  0.00000000000E+00 0. -1.
         21   -1    0    0  501  502 -0.00000000000E+00 -0.00000000000E+00 -0.12824199401E+04  0.12824199401E+04  0.00000000000E+00 0. -1.
      99926    2    1    2    0    0 -0.35527136788E-14  0.28421709430E-13 -0.12379175004E+04  0.13269223798E+04  0.47778997909E+03 0.  0.
      99925    2    3    3    0    0 -0.95353462225E+01  0.13304869836E+03 -0.75420674334E+03  0.80979910281E+03  0.26297128410E+03 0.  0.
         25    1    4    4    0    0  0.25454183057E+02  0.94661661340E+02 -0.38357661927E+03  0.41519546784E+03  0.12509000000E+03 0.  0.
         25    1    3    3    0    0  0.95353462225E+01 -0.13304869836E+03 -0.48371075710E+03  0.51712327699E+03  0.12509000000E+03 0.  0.
         25    1    4    4    0    0 -0.34989529279E+02  0.38387037023E+02 -0.37063012406E+03  0.39460363497E+03  0.12509000000E+03 0.  0.
<mgrwt>
<rscale>  2 0.47778998E+03</rscale>
<asrwt>0</asrwt>
<pdfrwt beam="1">  1       21 0.65444762E-02 0.47778998E+03</pdfrwt>
<pdfrwt beam="2">  1       21 0.18859117E+00 0.47778998E+03</pdfrwt>
<totfact> 0.23829884E+04</totfact>
</mgrwt>
</event>
<event>
 7    0  0.4725730E-002  0.4541681E+03  0.7546771E-02  0.1026486E+00
         21   -1    0    0  502  501  0.00000000000E+00  0.00000000000E+00  0.62608286034E+02  0.62608286034E+02  0.00000000000E+00 0.  1.
         21   -1    0    0  501  502 -0.00000000000E+00 -0.00000000000E+00 -0.82364763776E+03  0.82364763776E+03  0.00000000000E+00 0.  1.
      99926    2    1    2    0    0  0.00000000000E+00  0.00000000000E+00 -0.76103935173E+03  0.88625592380E+03  0.45416810499E+03 0.  0.
      99925    2    3    3    0    0 -0.11030459833E+03  0.18121510765E+02 -0.45706564738E+03  0.53906287289E+03  0.26302905039E+03 0.  0.
         25    1    4    4    0    0 -0.55420380352E+02  0.15197930972E+02 -0.15361309955E+03  0.20626897032E+03  0.12509000000E+03 0.  0.
         25    1    3    3    0    0  0.11030459833E+03 -0.18121510765E+02 -0.30397370435E+03  0.34719305091E+03  0.12509000000E+03 0.  0.
         25    1    4    4    0    0 -0.54884217973E+02  0.29235797928E+01 -0.30345254783E+03  0.33279390256E+03  0.12509000000E+03 0.  0.
<mgrwt>
<rscale>  2 0.45416810E+03</rscale>
<asrwt>0</asrwt>
<pdfrwt beam="1">  1       21 0.92071016E-02 0.45416810E+03</pdfrwt>
<pdfrwt beam="2">  1       21 0.12112464E+00 0.45416810E+03</pdfrwt>
<totfact> 0.44120009E+04</totfact>
</mgrwt>
</event>
<event>
 7    0  0.4725730E-002  0.4681678E+03  0.7546771E-02  0.1022439E+00
         21   -1    0    0  502  501  0.00000000000E+00  0.00000000000E+00  0.15891500393E+04  0.15891500393E+04  0.00000000000E+00 0.  1.
         21   -1    0    0  501  502 -0.00000000000E+00 -0.00000000000E+00 -0.34480860961E+02  0.34480860961E+02  0.00000000000E+00 0.  1.
      99926    2    1    2    0    0  0.00000000000E+00  0.00000000000E+00  0.15546691783E+04  0.16236309002E+04  0.46816775434E+03 0.  0.
      99925    2    3    3    0    0  0.29497127187E+02  0.14382780567E+02  0.54955825729E+03  0.61023442474E+03  0.26323911201E+03 0.  0.
         25    1    3    3    0    0 -0.29497127187E+02 -0.14382780567E+02  0.10051109210E+04  0.10133964755E+04  0.12509000000E+03 0.  0.
         25    1    4    4    0    0 -0.18910025567E+02  0.29562160125E+02  0.28568155362E+03  0.31383589431E+03  0.12509000000E+03 0.  0.
         25    1    4    4    0    0  0.48407152753E+02 -0.15179379558E+02  0.26387670367E+03  0.29639853043E+03  0.12509000000E+03 0.  0.
<mgrwt>
<rscale>  2 0.46816775E+03</rscale>
<asrwt>0</asrwt>
<pdfrwt beam="1">  1       21 0.23369849E+00 0.46816775E+03</pdfrwt>
<pdfrwt beam="2">  1       21 0.50707159E-02 0.46816775E+03</pdfrwt>
<totfact> 0.18894180E+04</totfact>
</mgrwt>
</event>
<event>
 7    0  0.4725730E-002  0.4559764E+03  0.7546771E-02  0.1025955E+00
         21   -1    0    0  502  501  0.00000000000E+00  0.00000000000E+00  0.32989599835E+03  0.32989599835E+03  0.00000000000E+00 0. -1.
         21   -1    0    0  501  502 -0.00000000000E+00 -0.00000000000E+00 -0.15756061973E+03  0.15756061973E+03  0.00000000000E+00 0. -1.
      99926    2    1    2    0    0 -0.88817841970E-15  0.00000000000E+00  0.17233537863E+03  0.48745661808E+03  0.45597639389E+03 0.  0.
      99925    2    3    3    0    0  0.66327554698E+01 -0.85591191151E+02  0.27779408542E+02  0.27790046323E+03  0.26284430083E+03 0.  0.
         25    1    4    4    0    0  0.39244501290E+02 -0.25421734303E+02  0.20682543506E+02  0.13513575087E+03  0.12509000000E+03 0.  0.
         25    1    3    3    0    0 -0.66327554698E+01  0.85591191151E+02  0.14455597009E+03  0.20955615485E+03  0.12509000000E+03 0.  0.
         25    1    4    4    0    0 -0.32611745820E+02 -0.60169456848E+02  0.70968650364E+01  0.14276471236E+03  0.12509000000E+03 0.  0.
<mgrwt>
<rscale>  2 0.45597639E+03</rscale>
<asrwt>0</asrwt>
<pdfrwt beam="1">  1       21 0.48514117E-01 0.45597639E+03</pdfrwt>
<pdfrwt beam="2">  1       21 0.23170679E-01 0.45597639E+03</pdfrwt>
<totfact> 0.65650844E+04</totfact>
</mgrwt>
</event>
<event>
 7    0  0.4725730E-002  0.4532414E+03  0.7546771E-02  0.1026760E+00
         21   -1    0    0  502  501  0.00000000000E+00  0.00000000000E+00  0.32800460904E+03  0.32800460904E+03  0.00000000000E+00 0. -1.
         21   -1    0    0  501  502 -0.00000000000E+00 -0.00000000000E+00 -0.15657381333E+03  0.15657381333E+03  0.00000000000E+00 0. -1.
      99926    2    1    2    0    0  0.71054273576E-14  0.00000000000E+00  0.17143079570E+03  0.48457842237E+03  0.45324135923E+03 0.  0.
      99925    2    3    3    0    0  0.44456149398E+02 -0.46166822402E+02  0.20562784812E+03  0.33992479745E+03  0.26297971650E+03 0.  0.
         25    1    3    3    0    0 -0.44456149398E+02  0.46166822402E+02 -0.34197052411E+02  0.14465362492E+03  0.12509000000E+03 0.  0.
         25    1    4    4    0    0  0.43471339501E+02 -0.20163217034E+02  0.61742295067E+02  0.14749892128E+03  0.12509000000E+03 0.  0.
         25    1    4    4    0    0  0.98480989648E+00 -0.26003605368E+02  0.14388555305E+03  0.19242587617E+03  0.12509000000E+03 0.  0.
<mgrwt>
<rscale>  2 0.45324136E+03</rscale>
<asrwt>0</asrwt>
<pdfrwt beam="1">  1       21 0.48235972E-01 0.45324136E+03</pdfrwt>
<pdfrwt beam="2">  1       21 0.23025561E-01 0.45324136E+03</pdfrwt>
<totfact> 0.67303019E+04</totfact>
</mgrwt>
</event>
<event>
 7    0  0.4725730E-002  0.4525956E+03  0.7546771E-02  0.1026951E+00
         21   -1    0    0  502  501  0.00000000000E+00  0.00000000000E+00  0.23335633231E+03  0.23335633231E+03  0.00000000000E+00 0.  1.
         21   -1    0    0  501  502 -0.00000000000E+00 -0.00000000000E+00 -0.21945279108E+03  0.21945279108E+03  0.00000000000E+00 0.  1.
      99926    2    1    2    0    0  0.00000000000E+00  0.00000000000E+00  0.13903541227E+02  0.45280912338E+03  0.45259561836E+03 0.  0.
      99925    2    3    3    0    0  0.98050242684E+02  0.43939280251E+02  0.36262847994E+02  0.28640011780E+03  0.26299338945E+03 0.  0.
         25    1    3    3    0    0 -0.98050242684E+02 -0.43939280251E+02 -0.22359306767E+02  0.16640900558E+03  0.12509000000E+03 0.  0.
         25    1    4    4    0    0  0.81499032750E+02  0.36447704793E+02 -0.40196645772E+01  0.15373416448E+03  0.12509000000E+03 0.  0.
         25    1    4    4    0    0  0.16551209934E+02  0.74915754581E+01  0.40282512571E+02  0.13266595333E+03  0.12509000000E+03 0.  0.
<mgrwt>
<rscale>  2 0.45259562E+03</rscale>
<asrwt>0</asrwt>
<pdfrwt beam="1">  1       21 0.34317108E-01 0.45259562E+03</pdfrwt>
<pdfrwt beam="2">  1       21 0.32272469E-01 0.45259562E+03</pdfrwt>
<totfact> 0.70040677E+04</totfact>
</mgrwt>
</event>
<event>
 7    0  0.4725730E-002  0.4507132E+03  0.7546771E-02  0.1027510E+00
         21   -1    0    0  502  501  0.00000000000E+00  0.00000000000E+00  0.29748024442E+02  0.29748024442E+02  0.00000000000E+00 0.  1.
         21   -1    0    0  501  502 -0.00000000000E+00 -0.00000000000E+00 -0.17071920155E+04  0.17071920155E+04  0.00000000000E+00 0.  1.
      99926    2    1    2    0    0  0.00000000000E+00  0.00000000000E+00 -0.16774439911E+04  0.17369400400E+04  0.45071316735E+03 0.  0.
      99925    2    3    3    0    0 -0.13605543150E+02  0.30965601105E+02 -0.14596084597E+04  0.14834764211E+04  0.26287156005E+03 0.  0.
         25    1    4    4    0    0 -0.45201856316E+02  0.27130224073E+02 -0.71811306232E+03  0.73083044220E+03  0.12509000000E+03 0.  0.
         25    1    4    4    0    0  0.31596313166E+02  0.38353770322E+01 -0.74149539736E+03  0.75264597888E+03  0.12509000000E+03 0.  0.
         25    1    3    3    0    0  0.13605543150E+02 -0.30965601105E+02 -0.21783553141E+03  0.25346361889E+03  0.12509000000E+03 0.  0.
<mgrwt>
<rscale>  2 0.45071317E+03</rscale>
<asrwt>0</asrwt>
<pdfrwt beam="1">  1       21 0.43747107E-02 0.45071317E+03</pdfrwt>
<pdfrwt beam="2">  1       21 0.25105758E+00 0.45071317E+03</pdfrwt>
<totfact> 0.19132092E+04</totfact>
</mgrwt>
</event>
<event>
 7    0  0.4725730E-002  0.4470165E+03  0.7546771E-02  0.1028615E+00
         21   -1    0    0  502  501  0.00000000000E+00  0.00000000000E+00  0.15414174532E+03  0.15414174532E+03  0.00000000000E+00 0. -1.
         21   -1    0    0  501  502 -0.00000000000E+00 -0.00000000000E+00 -0.32409092450E+03  0.32409092450E+03  0.00000000000E+00 0. -1.
      99926    2    1    2    0    0 -0.14210854715E-13  0.71054273576E-14 -0.16994917918E+03  0.47823266981E+03  0.44701651309E+03 0.  0.
      99925    2    3    3    0    0 -0.91831343480E+02  0.42373285443E+02 -0.14030201691E+03  0.31466325551E+03  0.26286844134E+03 0.  0.
         25    1    4    4    0    0 -0.47501203943E+02 -0.18500567407E+02 -0.57466618115E+02  0.14679426306E+03  0.12509000000E+03 0.  0.
         25    1    3    3    0    0  0.91831343480E+02 -0.42373285443E+02 -0.29647162273E+02  0.16356941430E+03  0.12509000000E+03 0.  0.
         25    1    4    4    0    0 -0.44330139537E+02  0.60873852850E+02 -0.82835398791E+02  0.16786899245E+03  0.12509000000E+03 0.  0.
<mgrwt>
<rscale>  2 0.44701651E+03</rscale>
<asrwt>0</asrwt>
<pdfrwt beam="1">  1       21 0.22667904E-01 0.44701651E+03</pdfrwt>
<pdfrwt beam="2">  1       21 0.47660429E-01 0.44701651E+03</pdfrwt>
<totfact> 0.71237592E+04</totfact>
</mgrwt>
</event>
<event>
 7    0  0.4725730E-002  0.4574726E+03  0.7546771E-02  0.1025517E+00
         21   -1    0    0  502  501  0.00000000000E+00  0.00000000000E+00  0.99276663394E+02  0.99276663394E+02  0.00000000000E+00 0. -1.
         21   -1    0    0  501  502 -0.00000000000E+00 -0.00000000000E+00 -0.52701515562E+03  0.52701515562E+03  0.00000000000E+00 0. -1.
      99926    2    1    2    0    0  0.14210854715E-13  0.00000000000E+00 -0.42773849222E+03  0.62629181901E+03  0.45747264927E+03 0.  0.
      99925    2    3    3    0    0  0.69268539463E+02 -0.47076628345E+02 -0.37737877550E+03  0.46755320158E+03  0.26301505016E+03 0.  0.
         25    1    4    4    0    0  0.71229367926E+02 -0.31363946840E+02 -0.17106894167E+03  0.22576406030E+03  0.12509000000E+03 0.  0.
         25    1    4    4    0    0 -0.19608284633E+01 -0.15712681506E+02 -0.20630983382E+03  0.24178914128E+03  0.12509000000E+03 0.  0.
         25    1    3    3    0    0 -0.69268539463E+02  0.47076628345E+02 -0.50359716723E+02  0.15873861743E+03  0.12509000000E+03 0.  0.
<mgrwt>
<rscale>  2 0.45747265E+03</rscale>
<asrwt>0</asrwt>
<pdfrwt beam="1">  1       21 0.14599510E-01 0.45747265E+03</pdfrwt>
<pdfrwt beam="2">  1       21 0.77502227E-01 0.45747265E+03</pdfrwt>
<totfact> 0.55987423E+04</totfact>
</mgrwt>
</event>
<event>
 7    0  0.4725730E-002  0.4588640E+03  0.7546771E-02  0.1025111E+00
         21   -1    0    0  502  501  0.00000000000E+00  0.00000000000E+00  0.12805737572E+03  0.12805737572E+03  0.00000000000E+00 0.  1.
         21   -1    0    0  501  502 -0.00000000000E+00 -0.00000000000E+00 -0.41105833101E+03  0.41105833101E+03  0.00000000000E+00 0.  1.
      99926    2    1    2    0    0  0.00000000000E+00  0.00000000000E+00 -0.28300095529E+03  0.53911570673E+03  0.45886403710E+03 0.  0.
      99925    2    3    3    0    0 -0.97344369737E+02 -0.50781459272E+02 -0.13065337874E+03  0.31347888547E+03  0.26295251156E+03 0.  0.
         25    1    4    4    0    0 -0.28047795823E+02 -0.50877923634E+02 -0.37918719941E+02  0.14304048163E+03  0.12509000000E+03 0.  0.
         25    1    4    4    0    0 -0.69296573914E+02  0.96464361522E-01 -0.92734658794E+02  0.17043840384E+03  0.12509000000E+03 0.  0.
         25    1    3    3    0    0  0.97344369737E+02  0.50781459272E+02 -0.15234757655E+03  0.22563682126E+03  0.12509000000E+03 0.  0.
<mgrwt>
<rscale>  2 0.45886404E+03</rscale>
<asrwt>0</asrwt>
<pdfrwt beam="1">  1       21 0.18831967E-01 0.45886404E+03</pdfrwt>
<pdfrwt beam="2">  1       21 0.60449755E-01 0.45886404E+03</pdfrwt>
<totfact> 0.60713005E+04</totfact>
</mgrwt>
</event>
<event>
 7    0  0.4725730E-002  0.4645681E+03  0.7546771E-02  0.1023465E+00
         21   -1    0    0  502  501  0.00000000000E+00  0.00000000000E+00  0.40345295001E+03  0.40345295001E+03  0.00000000000E+00 0.  1.
         21   -1    0    0  501  502 -0.00000000000E+00 -0.00000000000E+00 -0.13373524138E+03  0.13373524138E+03  0.00000000000E+00 0.  1.
      99926    2    1    2    0    0  0.00000000000E+00  0.00000000000E+00  0.26971770863E+03  0.53718819139E+03  0.46456809040E+03 0.  0.
      99925    2    3    3    0    0  0.58211925063E+01  0.80880595133E+02  0.27357141913E+03  0.38806436319E+03  0.26301534491E+03 0.  0.
         25    1    3    3    0    0 -0.58211925063E+01 -0.80880595133E+02 -0.38537105078E+01  0.14912382820E+03  0.12509000000E+03 0.  0.
         25    1    4    4    0    0 -0.23129195264E+02  0.31811810877E+02  0.91331018193E+02  0.15979929277E+03  0.12509000000E+03 0.  0.
         25    1    4    4    0    0  0.28950387771E+02  0.49068784256E+02  0.18224040094E+03  0.22826507042E+03  0.12509000000E+03 0.  0.
<mgrwt>
<rscale>  2 0.46456809E+03</rscale>
<asrwt>0</asrwt>
<pdfrwt beam="1">  1       21 0.59331316E-01 0.46456809E+03</pdfrwt>
<pdfrwt beam="2">  1       21 0.19666947E-01 0.46456809E+03</pdfrwt>
<totfact> 0.58183463E+04</totfact>
</mgrwt>
</event>
<event>
 7    0  0.4725730E-002  0.4610499E+03  0.7546771E-02  0.1024477E+00
         21   -1    0    0  502  501  0.00000000000E+00  0.00000000000E+00  0.18477886302E+04  0.18477886302E+04  0.00000000000E+00 0. -1.
         21   -1    0    0  501  502 -0.00000000000E+00 -0.00000000000E+00 -0.28759650851E+02  0.28759650851E+02  0.00000000000E+00 0. -1.
      99926    2    1    2    0    0 -0.35527136788E-14  0.00000000000E+00  0.18190289793E+04  0.18765482810E+04  0.46104991422E+03 0.  0.
      99925    2    3    3    0    0 -0.88543688204E+01 -0.11748778239E+03  0.10772459071E+04  0.11151210598E+04  0.26297234613E+03 0.  0.
         25    1    4    4    0    0  0.16995864997E+02 -0.81216903761E+02  0.67635494053E+03  0.69281206584E+03  0.12509000000E+03 0.  0.
         25    1    4    4    0    0 -0.25850233817E+02 -0.36270878629E+02  0.40089096658E+03  0.42230899399E+03  0.12509000000E+03 0.  0.
         25    1    3    3    0    0  0.88543688204E+01  0.11748778239E+03  0.74178307221E+03  0.76142722120E+03  0.12509000000E+03 0.  0.
<mgrwt>
<rscale>  2 0.46104991E+03</rscale>
<asrwt>0</asrwt>
<pdfrwt beam="1">  1       21 0.27173354E+00 0.46104991E+03</pdfrwt>
<pdfrwt beam="2">  1       21 0.42293617E-02 0.46104991E+03</pdfrwt>
<totfact> 0.15109978E+04</totfact>
</mgrwt>
</event>
<event>
 7    0  0.4725730E-002  0.4500802E+03  0.7546771E-02  0.1027698E+00
         21   -1    0    0  502  501  0.00000000000E+00  0.00000000000E+00  0.30976437154E+03  0.30976437154E+03  0.00000000000E+00 0. -1.
         21   -1    0    0  501  502 -0.00000000000E+00 -0.00000000000E+00 -0.16348896745E+03  0.16348896745E+03  0.00000000000E+00 0. -1.
      99926    2    1    2    0    0  0.14210854715E-13  0.71054273576E-14  0.14627540409E+03  0.47325333899E+03  0.45008024731E+03 0.  0.
      99925    2    3    3    0    0 -0.83060903721E+02 -0.50770316452E+02  0.42276940966E+02  0.28367505122E+03  0.26307310047E+03 0.  0.
         25    1    3    3    0    0  0.83060903721E+02  0.50770316452E+02  0.10399846313E+03  0.18957828777E+03  0.12509000000E+03 0.  0.
         25    1    4    4    0    0 -0.13258620772E+02 -0.46399826371E+02 -0.62547769499E+00  0.13407697131E+03  0.12509000000E+03 0.  0.
         25    1    4    4    0    0 -0.69802282949E+02 -0.43704900811E+01  0.42902418661E+02  0.14959807992E+03  0.12509000000E+03 0.  0.
<mgrwt>
<rscale>  2 0.45008025E+03</rscale>
<asrwt>0</asrwt>
<pdfrwt beam="1">  1       21 0.45553584E-01 0.45008025E+03</pdfrwt>
<pdfrwt beam="2">  1       21 0.24042495E-01 0.45008025E+03</pdfrwt>
<totfact> 0.69883540E+04</totfact>
</mgrwt>
</event>
<event>
 7    0  0.4725730E-002  0.4594147E+03  0.7546771E-02  0.1024951E+00
         21   -1    0    0  502  501  0.00000000000E+00  0.00000000000E+00  0.27653922111E+03  0.27653922111E+03  0.00000000000E+00 0. -1.
         21   -1    0    0  501  502 -0.00000000000E+00 -0.00000000000E+00 -0.19080646915E+03  0.19080646915E+03  0.00000000000E+00 0. -1.
      99926    2    1    2    0    0  0.00000000000E+00  0.00000000000E+00  0.85732751961E+02  0.46734569025E+03  0.45941472488E+03 0.  0.
      99925    2    3    3    0    0 -0.10605117686E+03 -0.36104156555E+02  0.88617525750E+02  0.29939869786E+03  0.26312763477E+03 0.  0.
         25    1    3    3    0    0  0.10605117686E+03  0.36104156555E+02 -0.28847737889E+01  0.16794699239E+03  0.12509000000E+03 0.  0.
         25    1    4    4    0    0 -0.66624547189E+02  0.14040393051E+02  0.22465613222E+02  0.14418104869E+03  0.12509000000E+03 0.  0.
         25    1    4    4    0    0 -0.39426629668E+02 -0.50144549607E+02  0.66151912528E+02  0.15521764917E+03  0.12509000000E+03 0.  0.
<mgrwt>
<rscale>  2 0.45941472E+03</rscale>
<asrwt>0</asrwt>
<pdfrwt beam="1">  1       21 0.40667533E-01 0.45941472E+03</pdfrwt>
<pdfrwt beam="2">  1       21 0.28059775E-01 0.45941472E+03</pdfrwt>
<totfact> 0.65313999E+04</totfact>
</mgrwt>
</event>
<event>
 7    0  0.4725730E-002  0.4399201E+03  0.7546771E-02  0.1030771E+00
         21   -1    0    0  502  501  0.00000000000E+00  0.00000000000E+00  0.12997681797E+03  0.12997681797E+03  0.00000000000E+00 0. -1.
         21   -1    0    0  501  502 -0.00000000000E+00 -0.00000000000E+00 -0.37223885148E+03  0.37223885148E+03  0.00000000000E+00 0. -1.
      99926    2    1    2    0    0 -0.35527136788E-14  0.14210854715E-13 -0.24226203351E+03  0.50221566945E+03  0.43992009020E+03 0.  0.
      99925    2    3    3    0    0  0.19275674797E+02 -0.95769218460E+02 -0.17256107806E+03  0.32886912021E+03  0.26236287413E+03 0.  0.
         25    1    4    4    0    0  0.29693618501E+02 -0.83740831799E+02 -0.10374475746E+03  0.18521533600E+03  0.12509000000E+03 0.  0.
         25    1    3    3    0    0 -0.19275674797E+02  0.95769218460E+02 -0.69700955449E+02  0.17334654924E+03  0.12509000000E+03 0.  0.
         25    1    4    4    0    0 -0.10417943704E+02 -0.12028386661E+02 -0.68816320604E+02  0.14365378421E+03  0.12509000000E+03 0.  0.
<mgrwt>
<rscale>  2 0.43992009E+03</rscale>
<asrwt>0</asrwt>
<pdfrwt beam="1">  1       21 0.19114238E-01 0.43992009E+03</pdfrwt>
<pdfrwt beam="2">  1       21 0.54741007E-01 0.43992009E+03</pdfrwt>
<totfact> 0.73528536E+04</totfact>
</mgrwt>
</event>
<event>
 7    0  0.4725730E-002  0.4620122E+03  0.7546771E-02  0.1024199E+00
         21   -1    0    0  502  501  0.00000000000E+00  0.00000000000E+00  0.29793368106E+03  0.29793368106E+03  0.00000000000E+00 0.  1.
         21   -1    0    0  501  502 -0.00000000000E+00 -0.00000000000E+00 -0.17911308320E+03  0.17911308320E+03  0.00000000000E+00 0.  1.
      99926    2    1    2    0    0 -0.71054273576E-14  0.35527136788E-14  0.11882059786E+03  0.47704676426E+03  0.46201220851E+03 0.  0.
      99925    2    3    3    0    0  0.31970749704E+02 -0.22075603223E+02 -0.42497822114E+02  0.26924733736E+03  0.26301825545E+03 0.  0.
         25    1    4    4    0    0  0.37820921575E+02 -0.16777481321E+02  0.12552998065E+02  0.13235177312E+03  0.12509000000E+03 0.  0.
         25    1    3    3    0    0 -0.31970749704E+02  0.22075603223E+02  0.16131841998E+03  0.20779942689E+03  0.12509000000E+03 0.  0.
         25    1    4    4    0    0 -0.58501718711E+01 -0.52981219020E+01 -0.55050820179E+02  0.13689556424E+03  0.12509000000E+03 0.  0.
<mgrwt>
<rscale>  2 0.46201221E+03</rscale>
<asrwt>0</asrwt>
<pdfrwt beam="1">  1       21 0.43813776E-01 0.46201221E+03</pdfrwt>
<pdfrwt beam="2">  1       21 0.26340159E-01 0.46201221E+03</pdfrwt>
<totfact> 0.63318639E+04</totfact>
</mgrwt>
</event>
<event>
 7    0  0.4725730E-002  0.4588587E+03  0.7546771E-02  0.1025113E+00
         21   -1    0    0  502  501  0.00000000000E+00  0.00000000000E+00  0.36660244670E+03  0.36660244670E+03  0.00000000000E+00 0.  1.
         21   -1    0    0  501  502 -0.00000000000E+00 -0.00000000000E+00 -0.14358284555E+03  0.14358284555E+03  0.00000000000E+00 0.  1.
      99926    2    1    2    0    0  0.00000000000E+00  0.17763568394E-14  0.22301960115E+03  0.51018529225E+03  0.45885868187E+03 0.  0.
      99925    2    3    3    0    0 -0.10442160354E+03 -0.97307862990E+01  0.82842086567E+02  0.29502069669E+03  0.26301300478E+03 0.  0.
         25    1    4    4    0    0 -0.84884785343E+02 -0.29018758331E+02  0.58424747956E+02  0.16464651345E+03  0.12509000000E+03 0.  0.
         25    1    4    4    0    0 -0.19536818193E+02  0.19287972032E+02  0.24417338611E+02  0.13037418324E+03  0.12509000000E+03 0.  0.
         25    1    3    3    0    0  0.10442160354E+03  0.97307862990E+01  0.14017751459E+03  0.21516459556E+03  0.12509000000E+03 0.  0.
<mgrwt>
<rscale>  2 0.45885868E+03</rscale>
<asrwt>0</asrwt>
<pdfrwt beam="1">  1       21 0.53912124E-01 0.45885868E+03</pdfrwt>
<pdfrwt beam="2">  1       21 0.21115124E-01 0.45885868E+03</pdfrwt>
<totfact> 0.62621002E+04</totfact>
</mgrwt>
</event>
<event>
 7    0  0.4725730E-002  0.4535407E+03  0.7546771E-02  0.1026671E+00
         21   -1    0    0  502  501  0.00000000000E+00  0.00000000000E+00  0.12469438141E+04  0.12469438141E+04  0.00000000000E+00 0.  1.
         21   -1    0    0  501  502 -0.00000000000E+00 -0.00000000000E+00 -0.41240658423E+02  0.41240658423E+02  0.00000000000E+00 0.  1.
      99926    2    1    2    0    0  0.00000000000E+00  0.00000000000E+00  0.12057031557E+04  0.12881844726E+04  0.45354066593E+03 0.  0.
      99925    2    3    3    0    0 -0.25131588894E+02 -0.10661672208E+03  0.82315698877E+03  0.87106602399E+03  0.26300164983E+03 0.  0.
         25    1    4    4    0    0 -0.52670788107E+01 -0.53771286617E+02  0.28823928631E+03  0.31882359960E+03  0.12509000000E+03 0.  0.
         25    1    3    3    0    0  0.25131588894E+02  0.10661672208E+03  0.38254616695E+03  0.41711844857E+03  0.12509000000E+03 0.  0.
         25    1    4    4    0    0 -0.19864510083E+02 -0.52845435466E+02  0.53491770245E+03  0.55224242440E+03  0.12509000000E+03 0.  0.
<mgrwt>
<rscale>  2 0.45354067E+03</rscale>
<asrwt>0</asrwt>
<pdfrwt beam="1">  1       21 0.18337406E+00 0.45354067E+03</pdfrwt>
<pdfrwt beam="2">  1       21 0.60648036E-02 0.45354067E+03</pdfrwt>
<totfact> 0.29796609E+04</totfact>
</mgrwt>
</event>
<event>
 7    0  0.4725730E-002  0.4431002E+03  0.7546771E-02  0.1029800E+00
         21   -1    0    0  502  501  0.00000000000E+00  0.00000000000E+00  0.10483658903E+03  0.10483658903E+03  0.00000000000E+00 0.  1.
         21   -1    0    0  501  502 -0.00000000000E+00 -0.00000000000E+00 -0.46819947620E+03  0.46819947620E+03  0.00000000000E+00 0.  1.
      99926    2    1    2    0    0  0.00000000000E+00  0.00000000000E+00 -0.36336288717E+03  0.57303606523E+03  0.44310015152E+03 0.  0.
      99925    2    3    3    0    0  0.43485126988E+02 -0.91802938343E+02 -0.23209480397E+03  0.36519585371E+03  0.26302334075E+03 0.  0.
         25    1    4    4    0    0  0.40532894873E+01 -0.80515729909E+02 -0.10432186138E+03  0.18174094415E+03  0.12509000000E+03 0.  0.
         25    1    4    4    0    0  0.39431837500E+02 -0.11287208433E+02 -0.12777294259E+03  0.18345490956E+03  0.12509000000E+03 0.  0.
         25    1    3    3    0    0 -0.43485126988E+02  0.91802938343E+02 -0.13126808320E+03  0.20784021152E+03  0.12509000000E+03 0.  0.
<mgrwt>
<rscale>  2 0.44310015E+03</rscale>
<asrwt>0</asrwt>
<pdfrwt beam="1">  1       21 0.15417145E-01 0.44310015E+03</pdfrwt>
<pdfrwt beam="2">  1       21 0.68852866E-01 0.44310015E+03</pdfrwt>
<totfact> 0.66400024E+04</totfact>
</mgrwt>
</event>
<event>
 7    0  0.4725730E-002  0.4217827E+03  0.7546771E-02  0.1036488E+00
         21   -1    0    0  502  501  0.00000000000E+00  0.00000000000E+00  0.26641025444E+03  0.26641025444E+03  0.00000000000E+00 0.  1.
         21   -1    0    0  501  502 -0.00000000000E+00 -0.00000000000E+00 -0.16694241006E+03  0.16694241006E+03  0.00000000000E+00 0.  1.
      99926    2    1    2    0    0  0.00000000000E+00  0.44408920985E-15  0.99467844378E+02  0.43335266451E+03  0.42178274001E+03 0.  0.
      99925    2    3    3    0    0  0.59103621275E+02 -0.31637816467E+01  0.11702740857E+03  0.29385680809E+03  0.26296988752E+03 0.  0.
         25    1    3    3    0    0 -0.59103621275E+02  0.31637816467E+01 -0.17559564193E+02  0.13949585641E+03  0.12509000000E+03 0.  0.
         25    1    4    4    0    0 -0.84703988314E+01  0.14480373172E+02  0.51402236406E+02  0.13627592183E+03  0.12509000000E+03 0.  0.
         25    1    4    4    0    0  0.67574020106E+02 -0.17644154819E+02  0.65625172165E+02  0.15758088626E+03  0.12509000000E+03 0.  0.
<mgrwt>
<rscale>  2 0.42178274E+03</rscale>
<asrwt>0</asrwt>
<pdfrwt beam="1">  1       21 0.39177979E-01 0.42178274E+03</pdfrwt>
<pdfrwt beam="2">  1       21 0.24550354E-01 0.42178274E+03</pdfrwt>
<totfact> 0.92279119E+04</totfact>
</mgrwt>
</event>
<event>
 7    0  0.4725730E-002  0.4505671E+03  0.7546771E-02  0.1027553E+00
         21   -1    0    0  502  501  0.00000000000E+00  0.00000000000E+00  0.14318646669E+04  0.14318646669E+04  0.00000000000E+00 0. -1.
         21   -1    0    0  501  502 -0.00000000000E+00 -0.00000000000E+00 -0.35445170856E+02  0.35445170856E+02  0.00000000000E+00 0. -1.
      99926    2    1    2    0    0  0.00000000000E+00  0.14210854715E-13  0.13964194961E+04  0.14673098378E+04  0.45056714377E+03 0.  0.
      99925    2    3    3    0    0 -0.17222333383E+02  0.10710317190E+03  0.84779270710E+03  0.89424216300E+03  0.26296173426E+03 0.  0.
         25    1    4    4    0    0 -0.32959676899E+02  0.27376527905E+02  0.46425498286E+03  0.48271732079E+03  0.12509000000E+03 0.  0.
         25    1    3    3    0    0  0.17222333383E+02 -0.10710317190E+03  0.54862678898E+03  0.57306767478E+03  0.12509000000E+03 0.  0.
         25    1    4    4    0    0  0.15737343516E+02  0.79726643996E+02  0.38353772424E+03  0.41152484221E+03  0.12509000000E+03 0.  0.
<mgrwt>
<rscale>  2 0.45056714E+03</rscale>
<asrwt>0</asrwt>
<pdfrwt beam="1">  1       21 0.21056829E+00 0.45056714E+03</pdfrwt>
<pdfrwt beam="2">  1       21 0.52125261E-02 0.45056714E+03</pdfrwt>
<totfact> 0.25457192E+04</totfact>
</mgrwt>
</event>
<event>
 7    0  0.4725730E-002  0.4577495E+03  0.7546771E-02  0.1025436E+00
         21   -1    0    0  502  501  0.00000000000E+00  0.00000000000E+00  0.11655155950E+03  0.11655155950E+03  0.00000000000E+00 0.  1.
         21   -1    0    0  501  502 -0.00000000000E+00 -0.00000000000E+00 -0.44944608132E+03  0.44944608132E+03  0.00000000000E+00 0.  1.
      99926    2    1    2    0    0  0.00000000000E+00  0.00000000000E+00 -0.33289452182E+03  0.56599764082E+03  0.45774945850E+03 0.  0.
      99925    2    3    3    0    0  0.71246563381E+02 -0.89391982655E+02 -0.17726367237E+03  0.33592054775E+03  0.26144445968E+03 0.  0.
         25    1    4    4    0    0  0.34110180351E+02 -0.66197472856E+01 -0.94923636512E+02  0.16082701989E+03  0.12509000000E+03 0.  0.
         25    1    4    4    0    0  0.37136383030E+02 -0.82772235369E+02 -0.82340035856E+02  0.17509352786E+03  0.12509000000E+03 0.  0.
         25    1    3    3    0    0 -0.71246563381E+02  0.89391982655E+02 -0.15563084945E+03  0.23007709307E+03  0.12509000000E+03 0.  0.
<mgrwt>
<rscale>  2 0.45774946E+03</rscale>
<asrwt>0</asrwt>
<pdfrwt beam="1">  1       21 0.17139935E-01 0.45774946E+03</pdfrwt>
<pdfrwt beam="2">  1       21 0.66095011E-01 0.45774946E+03</pdfrwt>
<totfact> 0.59516820E+04</totfact>
</mgrwt>
</event>
<event>
 7    0  0.4725730E-002  0.3958742E+03  0.7546771E-02  0.1045218E+00
         21   -1    0    0  502  501  0.00000000000E+00  0.00000000000E+00  0.10256373386E+04  0.10256373386E+04  0.00000000000E+00 0.  1.
         21   -1    0    0  501  502 -0.00000000000E+00 -0.00000000000E+00 -0.38199748512E+02  0.38199748512E+02  0.00000000000E+00 0.  1.
      99926    2    1    2    0    0  0.00000000000E+00  0.00000000000E+00  0.98743759010E+03  0.10638370871E+04  0.39587416384E+03 0.  0.
      99925    2    3    3    0    0 -0.16385307676E+02 -0.16277145129E+02  0.73815117274E+03  0.78397167350E+03  0.26307984962E+03 0.  0.
         25    1    3    3    0    0  0.16385307676E+02  0.16277145129E+02  0.24928641736E+03  0.27986541362E+03  0.12509000000E+03 0.  0.
         25    1    4    4    0    0 -0.18835283026E+02 -0.29118563295E+02  0.47324320972E+03  0.49072324406E+03  0.12509000000E+03 0.  0.
         25    1    4    4    0    0  0.24499753503E+01  0.12841418167E+02  0.26490796302E+03  0.29324842945E+03  0.12509000000E+03 0.  0.
<mgrwt>
<rscale>  2 0.39587416E+03</rscale>
<asrwt>0</asrwt>
<pdfrwt beam="1">  1       21 0.15082900E+00 0.39587416E+03</pdfrwt>
<pdfrwt beam="2">  1       21 0.56176107E-02 0.39587416E+03</pdfrwt>
<totfact> 0.60062066E+04</totfact>
</mgrwt>
</event>
<event>
 7    0  0.4725730E-002  0.4539632E+03  0.7546771E-02  0.1026547E+00
         21   -1    0    0  502  501  0.00000000000E+00  0.00000000000E+00  0.28176470861E+02  0.28176470861E+02  0.00000000000E+00 0.  1.
         21   -1    0    0  501  502 -0.00000000000E+00 -0.00000000000E+00 -0.18284989529E+04  0.18284989529E+04  0.00000000000E+00 0.  1.
      99926    2    1    2    0    0  0.00000000000E+00  0.00000000000E+00 -0.18003224820E+04  0.18566754237E+04  0.45396320320E+03 0.  0.
      99925    2    3    3    0    0  0.97976582690E+02  0.16036730239E+02 -0.92245533437E+03  0.96440034032E+03  0.26322535028E+03 0.  0.
         25    1    4    4    0    0  0.46238399866E+02 -0.19305066826E+02 -0.55732969019E+03  0.57338867001E+03  0.12509000000E+03 0.  0.
         25    1    4    4    0    0  0.51738182825E+02  0.35341797066E+02 -0.36512564418E+03  0.39101167031E+03  0.12509000000E+03 0.  0.
         25    1    3    3    0    0 -0.97976582690E+02 -0.16036730239E+02 -0.87786714762E+03  0.89227508339E+03  0.12509000000E+03 0.  0.
<mgrwt>
<rscale>  2 0.45396320E+03</rscale>
<asrwt>0</asrwt>
<pdfrwt beam="1">  1       21 0.41435991E-02 0.45396320E+03</pdfrwt>
<pdfrwt beam="2">  1       21 0.26889687E+00 0.45396320E+03</pdfrwt>
<totfact> 0.16325260E+04</totfact>
</mgrwt>
</event>
<event>
 7    0  0.4725730E-002  0.4561752E+03  0.7546771E-02  0.1025896E+00
         21   -1    0    0  502  501  0.00000000000E+00  0.00000000000E+00  0.60375320999E+02  0.60375320999E+02  0.00000000000E+00 0.  1.
         21   -1    0    0  501  502 -0.00000000000E+00 -0.00000000000E+00 -0.86167586050E+03  0.86167586050E+03  0.00000000000E+00 0.  1.
      99926    2    1    2    0    0  0.14210854715E-13 -0.17763568394E-14 -0.80130053950E+03  0.92205118150E+03  0.45617521491E+03 0.  0.
      99925    2    3    3    0    0 -0.11016876883E+03  0.15466196949E+02 -0.45108843074E+03  0.53388576560E+03  0.26301497579E+03 0.  0.
         25    1    4    4    0    0 -0.89639298841E+02 -0.12291883262E+02 -0.27143443815E+03  0.31226664344E+03  0.12509000000E+03 0.  0.
         25    1    4    4    0    0 -0.20529469993E+02  0.27758080211E+02 -0.17965399259E+03  0.22161912217E+03  0.12509000000E+03 0.  0.
         25    1    3    3    0    0  0.11016876883E+03 -0.15466196949E+02 -0.35021210876E+03  0.38816541590E+03  0.12509000000E+03 0.  0.
<mgrwt>
<rscale>  2 0.45617521E+03</rscale>
<asrwt>0</asrwt>
<pdfrwt beam="1">  1       21 0.88787242E-02 0.45617521E+03</pdfrwt>
<pdfrwt beam="2">  1       21 0.12671703E+00 0.45617521E+03</pdfrwt>
<totfact> 0.41907247E+04</totfact>
</mgrwt>
</event>
<event>
 7    0  0.4725730E-002  0.4506604E+03  0.7546771E-02  0.1027525E+00
         21   -1    0    0  502  501  0.00000000000E+00  0.00000000000E+00  0.27364924716E+03  0.27364924716E+03  0.00000000000E+00 0.  1.
         21   -1    0    0  501  502 -0.00000000000E+00 -0.00000000000E+00 -0.18554301656E+03  0.18554301656E+03  0.00000000000E+00 0.  1.
      99926    2    1    2    0    0 -0.14210854715E-13  0.17763568394E-14  0.88106230603E+02  0.45919226372E+03  0.45066043447E+03 0.  0.
      99925    2    3    3    0    0  0.10892753902E+03 -0.31937486759E+01  0.52565501461E+02  0.28952771140E+03  0.26303565336E+03 0.  0.
         25    1    4    4    0    0  0.92772352806E+02  0.15412375913E+02  0.39214389996E+02  0.16133668913E+03  0.12509000000E+03 0.  0.
         25    1    4    4    0    0  0.16155186211E+02 -0.18606124589E+02  0.13351111465E+02  0.12819102227E+03  0.12509000000E+03 0.  0.
         25    1    3    3    0    0 -0.10892753902E+03  0.31937486759E+01  0.35540729142E+02  0.16966455232E+03  0.12509000000E+03 0.  0.
<mgrwt>
<rscale>  2 0.45066043E+03</rscale>
<asrwt>0</asrwt>
<pdfrwt beam="1">  1       21 0.40242536E-01 0.45066043E+03</pdfrwt>
<pdfrwt beam="2">  1       21 0.27285738E-01 0.45066043E+03</pdfrwt>
<totfact> 0.70649384E+04</totfact>
</mgrwt>
</event>
<event>
 7    0  0.4725730E-002  0.4579258E+03  0.7546771E-02  0.1025385E+00
         21   -1    0    0  502  501  0.00000000000E+00  0.00000000000E+00  0.85455091340E+02  0.85455091340E+02  0.00000000000E+00 0.  1.
         21   -1    0    0  501  502 -0.00000000000E+00 -0.00000000000E+00 -0.61346862741E+03  0.61346862741E+03  0.00000000000E+00 0.  1.
      99926    2    1    2    0    0  0.00000000000E+00  0.00000000000E+00 -0.52801353607E+03  0.69892371875E+03  0.45792583500E+03 0.  0.
      99925    2    3    3    0    0  0.26742326636E+02 -0.93582715061E+02 -0.42730210796E+03  0.51113879805E+03  0.26306444611E+03 0.  0.
         25    1    4    4    0    0  0.17750058360E+02 -0.89830941223E+02 -0.23613445270E+03  0.28247415886E+03  0.12509000000E+03 0.  0.
         25    1    4    4    0    0  0.89922682758E+01 -0.37517738375E+01 -0.19116765526E+03  0.22866463918E+03  0.12509000000E+03 0.  0.
         25    1    3    3    0    0 -0.26742326636E+02  0.93582715061E+02 -0.10071142811E+03  0.18778492071E+03  0.12509000000E+03 0.  0.
<mgrwt>
<rscale>  2 0.45792583E+03</rscale>
<asrwt>0</asrwt>
<pdfrwt beam="1">  1       21 0.12566925E-01 0.45792583E+03</pdfrwt>
<pdfrwt beam="2">  1       21 0.90215975E-01 0.45792583E+03</pdfrwt>
<totfact> 0.51759257E+04</totfact>
</mgrwt>
</event>
<event>
 7    0  0.4725730E-002  0.4532407E+03  0.7546771E-02  0.1026760E+00
         21   -1    0    0  502  501  0.00000000000E+00  0.00000000000E+00  0.83184151951E+02  0.83184151951E+02  0.00000000000E+00 0.  1.
         21   -1    0    0  501  502 -0.00000000000E+00 -0.00000000000E+00 -0.61738656630E+03  0.61738656630E+03  0.00000000000E+00 0.  1.
      99926    2    1    2    0    0  0.17763568394E-14  0.00000000000E+00 -0.53420241435E+03  0.70057071825E+03  0.45324067754E+03 0.  0.
      99925    2    3    3    0    0 -0.15020654650E+02 -0.86501246596E+02 -0.44239215235E+03  0.52228802689E+03  0.26337403222E+03 0.  0.
         25    1    4    4    0    0 -0.29293287689E+02 -0.40294102485E+02 -0.28706840074E+03  0.31707646744E+03  0.12509000000E+03 0.  0.
         25    1    4    4    0    0  0.14272633039E+02 -0.46207144111E+02 -0.15532375160E+03  0.20521155945E+03  0.12509000000E+03 0.  0.
         25    1    3    3    0    0  0.15020654650E+02  0.86501246596E+02 -0.91810262000E+02  0.17828269136E+03  0.12509000000E+03 0.  0.
<mgrwt>
<rscale>  2 0.45324068E+03</rscale>
<asrwt>0</asrwt>
<pdfrwt beam="1">  1       21 0.12232963E-01 0.45324068E+03</pdfrwt>
<pdfrwt beam="2">  1       21 0.90792144E-01 0.45324068E+03</pdfrwt>
<totfact> 0.53610380E+04</totfact>
</mgrwt>
</event>
<event>
 7    0  0.4725730E-002  0.4525242E+03  0.7546771E-02  0.1026972E+00
         21   -1    0    0  502  501  0.00000000000E+00  0.00000000000E+00  0.25177153877E+03  0.25177153877E+03  0.00000000000E+00 0. -1.
         21   -1    0    0  501  502 -0.00000000000E+00 -0.00000000000E+00 -0.20333725363E+03  0.20333725363E+03  0.00000000000E+00 0. -1.
      99926    2    1    2    0    0  0.00000000000E+00  0.14210854715E-13  0.48434285145E+02  0.45510879240E+03  0.45252417940E+03 0.  0.
      99925    2    3    3    0    0  0.43305379342E+02  0.81921411314E+02 -0.30320815754E+02  0.28064863211E+03  0.26316882286E+03 0.  0.
         25    1    4    4    0    0  0.12828198023E+02  0.56691759709E+01  0.81805272689E+01  0.12613933307E+03  0.12509000000E+03 0.  0.
         25    1    4    4    0    0  0.30477181319E+02  0.76252235343E+02 -0.38501343023E+02  0.15450929904E+03  0.12509000000E+03 0.  0.
         25    1    3    3    0    0 -0.43305379342E+02 -0.81921411314E+02  0.78755100899E+02  0.17446016029E+03  0.12509000000E+03 0.  0.
<mgrwt>
<rscale>  2 0.45252418E+03</rscale>
<asrwt>0</asrwt>
<pdfrwt beam="1">  1       21 0.37025226E-01 0.45252418E+03</pdfrwt>
<pdfrwt beam="2">  1       21 0.29902537E-01 0.45252418E+03</pdfrwt>
<totfact> 0.69908540E+04</totfact>
</mgrwt>
</event>
<event>
 7    0  0.4725730E-002  0.4492465E+03  0.7546771E-02  0.1027947E+00
         21   -1    0    0  502  501  0.00000000000E+00  0.00000000000E+00  0.44032440527E+03  0.44032440527E+03  0.00000000000E+00 0. -1.
         21   -1    0    0  501  502 -0.00000000000E+00 -0.00000000000E+00 -0.11458733222E+03  0.11458733222E+03  0.00000000000E+00 0. -1.
      99926    2    1    2    0    0  0.71054273576E-14  0.00000000000E+00  0.32573707306E+03  0.55491173749E+03  0.44924647538E+03 0.  0.
      99925    2    3    3    0    0 -0.60286439411E+02  0.55675973818E+02  0.29221994445E+03  0.40159776276E+03  0.26297147808E+03 0.  0.
         25    1    4    4    0    0 -0.19203338894E+02 -0.24490143342E+01  0.99159288356E+02  0.16079439811E+03  0.12509000000E+03 0.  0.
         25    1    3    3    0    0  0.60286439411E+02 -0.55675973818E+02  0.33517128604E+02  0.15331397473E+03  0.12509000000E+03 0.  0.
         25    1    4    4    0    0 -0.41083100518E+02  0.58124988153E+02  0.19306065610E+03  0.24080336465E+03  0.12509000000E+03 0.  0.
<mgrwt>
<rscale>  2 0.44924648E+03</rscale>
<asrwt>0</asrwt>
<pdfrwt beam="1">  1       21 0.64753588E-01 0.44924648E+03</pdfrwt>
<pdfrwt beam="2">  1       21 0.16851078E-01 0.44924648E+03</pdfrwt>
<totfact> 0.64425759E+04</totfact>
</mgrwt>
</event>
<event>
 7    0  0.4725730E-002  0.4535995E+03  0.7546771E-02  0.1026654E+00
         21   -1    0    0  502  501  0.00000000000E+00  0.00000000000E+00  0.54751465833E+03  0.54751465833E+03  0.00000000000E+00 0.  1.
         21   -1    0    0  501  502 -0.00000000000E+00 -0.00000000000E+00 -0.93948386582E+02  0.93948386582E+02  0.00000000000E+00 0.  1.
      99926    2    1    2    0    0  0.00000000000E+00  0.00000000000E+00  0.45356627175E+03  0.64146304491E+03  0.45359946552E+03 0.  0.
      99925    2    3    3    0    0 -0.96922495577E+02  0.23322067054E+02  0.21409688538E+03  0.35348564290E+03  0.26301470386E+03 0.  0.
         25    1    4    4    0    0 -0.65154185704E+02  0.36213938706E+02  0.76861350838E+02  0.16465628632E+03  0.12509000000E+03 0.  0.
         25    1    3    3    0    0  0.96922495577E+02 -0.23322067054E+02  0.23946938638E+03  0.28797740202E+03  0.12509000000E+03 0.  0.
         25    1    4    4    0    0 -0.31768309873E+02 -0.12891871652E+02  0.13723553454E+03  0.18882935658E+03  0.12509000000E+03 0.  0.
<mgrwt>
<rscale>  2 0.45359947E+03</rscale>
<asrwt>0</asrwt>
<pdfrwt beam="1">  1       21 0.80516860E-01 0.45359947E+03</pdfrwt>
<pdfrwt beam="2">  1       21 0.13815939E-01 0.45359947E+03</pdfrwt>
<totfact> 0.56821375E+04</totfact>
</mgrwt>
</event>
<event>
 7    0  0.4725730E-002  0.4530579E+03  0.7546771E-02  0.1026814E+00
         21   -1    0    0  502  501  0.00000000000E+00  0.00000000000E+00  0.58983842691E+02  0.58983842691E+02  0.00000000000E+00 0.  1.
         21   -1    0    0  501  502 -0.00000000000E+00 -0.00000000000E+00 -0.86999010115E+03  0.86999010115E+03  0.00000000000E+00 0.  1.
      99926    2    1    2    0    0 -0.14210854715E-13 -0.17763568394E-14 -0.81100625846E+03  0.92897394384E+03  0.45305787387E+03 0.  0.
      99925    2    3    3    0    0  0.10884955201E+03  0.12696615229E+02 -0.47045542873E+03  0.54998607499E+03  0.26295806366E+03 0.  0.
         25    1    3    3    0    0 -0.10884955201E+03 -0.12696615229E+02 -0.34055082972E+03  0.37898786885E+03  0.12509000000E+03 0.  0.
         25    1    4    4    0    0  0.56379236667E+02 -0.52186598944E+01 -0.31042262974E+03  0.33943419082E+03  0.12509000000E+03 0.  0.
         25    1    4    4    0    0  0.52470315345E+02  0.17915275124E+02 -0.16003279899E+03  0.21055188417E+03  0.12509000000E+03 0.  0.
<mgrwt>
<rscale>  2 0.45305787E+03</rscale>
<asrwt>0</asrwt>
<pdfrwt beam="1">  1       21 0.86740943E-02 0.45305787E+03</pdfrwt>
<pdfrwt beam="2">  1       21 0.12793972E+00 0.45305787E+03</pdfrwt>
<totfact> 0.42648351E+04</totfact>
</mgrwt>
</event>
<event>
 7    0  0.4725730E-002  0.4496660E+03  0.7546771E-02  0.1027822E+00
         21   -1    0    0  502  501  0.00000000000E+00  0.00000000000E+00  0.76244047168E+03  0.76244047168E+03  0.00000000000E+00 0. -1.
         21   -1    0    0  501  502 -0.00000000000E+00 -0.00000000000E+00 -0.66300098588E+02  0.66300098588E+02  0.00000000000E+00 0. -1.
      99926    2    1    2    0    0  0.00000000000E+00  0.00000000000E+00  0.69614037309E+03  0.82874057026E+03  0.44966600245E+03 0.  0.
      99925    2    3    3    0    0  0.10385522786E+03  0.25465616925E+02  0.40858524826E+03  0.49742521609E+03  0.26278419759E+03 0.  0.
         25    1    4    4    0    0  0.15678052729E+02  0.28148528782E+02  0.16201170330E+03  0.20720386366E+03  0.12509000000E+03 0.  0.
         25    1    3    3    0    0 -0.10385522786E+03 -0.25465616925E+02  0.28755512482E+03  0.33131535417E+03  0.12509000000E+03 0.  0.
         25    1    4    4    0    0  0.88177175129E+02 -0.26829118565E+01  0.24657354497E+03  0.29022135243E+03  0.12509000000E+03 0.  0.
<mgrwt>
<rscale>  2 0.44966600E+03</rscale>
<asrwt>0</asrwt>
<pdfrwt beam="1">  1       21 0.11212359E+00 0.44966600E+03</pdfrwt>
<pdfrwt beam="2">  1       21 0.97500149E-02 0.44966600E+03</pdfrwt>
<totfact> 0.48399894E+04</totfact>
</mgrwt>
</event>
<event>
 7    0  0.4725730E-002  0.4535903E+03  0.7546771E-02  0.1026657E+00
         21   -1    0    0  502  501  0.00000000000E+00  0.00000000000E+00  0.86518140014E+03  0.86518140014E+03  0.00000000000E+00 0. -1.
         21   -1    0    0  501  502 -0.00000000000E+00 -0.00000000000E+00 -0.59451159312E+02  0.59451159312E+02  0.00000000000E+00 0. -1.
      99926    2    1    2    0    0  0.14210854715E-13  0.00000000000E+00  0.80573024083E+03  0.92463255946E+03  0.45359028761E+03 0.  0.
      99925    2    3    3    0    0 -0.89661758015E+02 -0.67341891469E+02  0.49611297134E+03  0.57237622826E+03  0.26251153337E+03 0.  0.
         25    1    4    4    0    0 -0.32129343688E+02  0.60446873284E+01  0.21579123998E+03  0.25155953634E+03  0.12509000000E+03 0.  0.
         25    1    4    4    0    0 -0.57532414327E+02 -0.73386578798E+02  0.28032173136E+03  0.32081669192E+03  0.12509000000E+03 0.  0.
         25    1    3    3    0    0  0.89661758015E+02  0.67341891469E+02  0.30961726949E+03  0.35225633119E+03  0.12509000000E+03 0.  0.
<mgrwt>
<rscale>  2 0.45359029E+03</rscale>
<asrwt>0</asrwt>
<pdfrwt beam="1">  1       21 0.12723255E+00 0.45359029E+03</pdfrwt>
<pdfrwt beam="2">  1       21 0.87428180E-02 0.45359029E+03</pdfrwt>
<totfact> 0.42653896E+04</totfact>
</mgrwt>
</event>
<event>
 7    0  0.4725730E-002  0.4512566E+03  0.7546771E-02  0.1027348E+00
         21   -1    0    0  502  501  0.00000000000E+00  0.00000000000E+00  0.24295347773E+03  0.24295347773E+03  0.00000000000E+00 0.  1.
         21   -1    0    0  501  502 -0.00000000000E+00 -0.00000000000E+00 -0.20953861143E+03  0.20953861143E+03  0.00000000000E+00 0.  1.
      99926    2    1    2    0    0  0.00000000000E+00 -0.14210854715E-13  0.33414866297E+02  0.45249208916E+03  0.45125662041E+03 0.  0.
      99925    2    3    3    0    0  0.63137392205E+02 -0.88348013182E+02  0.62352225424E+01  0.28462921994E+03  0.26302701975E+03 0.  0.
         25    1    3    3    0    0 -0.63137392205E+02  0.88348013182E+02  0.27179643755E+02  0.16786286922E+03  0.12509000000E+03 0.  0.
         25    1    4    4    0    0  0.59617115888E+02 -0.71372904553E+02 -0.14921449696E+02  0.15658368297E+03  0.12509000000E+03 0.  0.
         25    1    4    4    0    0  0.35202763169E+01 -0.16975108629E+02  0.21156672239E+02  0.12804553697E+03  0.12509000000E+03 0.  0.
<mgrwt>
<rscale>  2 0.45125662E+03</rscale>
<asrwt>0</asrwt>
<pdfrwt beam="1">  1       21 0.35728453E-01 0.45125662E+03</pdfrwt>
<pdfrwt beam="2">  1       21 0.30814502E-01 0.45125662E+03</pdfrwt>
<totfact> 0.70821691E+04</totfact>
</mgrwt>
</event>
<event>
 7    0  0.4725730E-002  0.4516839E+03  0.7546771E-02  0.1027221E+00
         21   -1    0    0  502  501  0.00000000000E+00  0.00000000000E+00  0.49962984936E+02  0.49962984936E+02  0.00000000000E+00 0.  1.
         21   -1    0    0  501  502 -0.00000000000E+00 -0.00000000000E+00 -0.10208474576E+04  0.10208474576E+04  0.00000000000E+00 0.  1.
      99926    2    1    2    0    0  0.00000000000E+00  0.00000000000E+00 -0.97088447265E+03  0.10708104425E+04  0.45168389896E+03 0.  0.
      99925    2    3    3    0    0  0.45320536559E+02  0.91279651885E+02 -0.71121536841E+03  0.76509574271E+03  0.26297959878E+03 0.  0.
         25    1    4    4    0    0  0.50293370846E+01  0.21657148036E+02 -0.40882653228E+03  0.42811326526E+03  0.12509000000E+03 0.  0.
         25    1    3    3    0    0 -0.45320536559E+02 -0.91279651885E+02 -0.25966910424E+03  0.30571469981E+03  0.12509000000E+03 0.  0.
         25    1    4    4    0    0  0.40291199475E+02  0.69622503849E+02 -0.30238883613E+03  0.33698247746E+03  0.12509000000E+03 0.  0.
<mgrwt>
<rscale>  2 0.45168390E+03</rscale>
<asrwt>0</asrwt>
<pdfrwt beam="1">  1       21 0.73474973E-02 0.45168390E+03</pdfrwt>
<pdfrwt beam="2">  1       21 0.15012464E+00 0.45168390E+03</pdfrwt>
<totfact> 0.37483556E+04</totfact>
</mgrwt>
</event>
<event>
 7    0  0.4725730E-002  0.4551002E+03  0.7546771E-02  0.1026212E+00
         21   -1    0    0  502  501  0.00000000000E+00  0.00000000000E+00  0.53281362615E+03  0.53281362615E+03  0.00000000000E+00 0. -1.
         21   -1    0    0  501  502 -0.00000000000E+00 -0.00000000000E+00 -0.97180417522E+02  0.97180417522E+02  0.00000000000E+00 0. -1.
      99926    2    1    2    0    0  0.00000000000E+00  0.00000000000E+00  0.43563320863E+03  0.62999404367E+03  0.45510021160E+03 0.  0.
      99925    2    3    3    0    0 -0.35113246372E+02 -0.21274831486E+02  0.42019719898E+03  0.49743712375E+03  0.26304457327E+03 0.  0.
         25    1    4    4    0    0  0.50737493348E+01 -0.27045243791E+02  0.26263366251E+03  0.29220050809E+03  0.12509000000E+03 0.  0.
         25    1    4    4    0    0 -0.40186995707E+02  0.57704123059E+01  0.15756353647E+03  0.20523661566E+03  0.12509000000E+03 0.  0.
         25    1    3    3    0    0  0.35113246372E+02  0.21274831486E+02  0.15436009647E+02  0.13255691992E+03  0.12509000000E+03 0.  0.
<mgrwt>
<rscale>  2 0.45510021E+03</rscale>
<asrwt>0</asrwt>
<pdfrwt beam="1">  1       21 0.78354944E-01 0.45510021E+03</pdfrwt>
<pdfrwt beam="2">  1       21 0.14291238E-01 0.45510021E+03</pdfrwt>
<totfact> 0.56824049E+04</totfact>
</mgrwt>
</event>
<event>
 7    0  0.4725730E-002  0.4596379E+03  0.7546771E-02  0.1024886E+00
         21   -1    0    0  502  501  0.00000000000E+00  0.00000000000E+00  0.29959852671E+03  0.29959852671E+03  0.00000000000E+00 0. -1.
         21   -1    0    0  501  502 -0.00000000000E+00 -0.00000000000E+00 -0.17629173622E+03  0.17629173622E+03  0.00000000000E+00 0. -1.
      99926    2    1    2    0    0 -0.71054273576E-14 -0.44408920985E-15  0.12330679050E+03  0.47589026293E+03  0.45963787678E+03 0.  0.
      99925    2    3    3    0    0 -0.62039921057E+02  0.29214790286E+01 -0.25786536982E+02  0.27160170416E+03  0.26314454843E+03 0.  0.
         25    1    4    4    0    0  0.16401114560E+00 -0.11834625565E+02 -0.36134344541E+02  0.13074128735E+03  0.12509000000E+03 0.  0.
         25    1    3    3    0    0  0.62039921057E+02 -0.29214790286E+01  0.14909332748E+03  0.20428855877E+03  0.12509000000E+03 0.  0.
         25    1    4    4    0    0 -0.62203932202E+02  0.14756104594E+02  0.10347807558E+02  0.14086041682E+03  0.12509000000E+03 0.  0.
<mgrwt>
<rscale>  2 0.45963788E+03</rscale>
<asrwt>0</asrwt>
<pdfrwt beam="1">  1       21 0.44058607E-01 0.45963788E+03</pdfrwt>
<pdfrwt beam="2">  1       21 0.25925255E-01 0.45963788E+03</pdfrwt>
<totfact> 0.64590575E+04</totfact>
</mgrwt>
</event>
<event>
 7    0  0.4725730E-002  0.4537175E+03  0.7546771E-02  0.1026619E+00
         21   -1    0    0  502  501  0.00000000000E+00  0.00000000000E+00  0.94163700759E+03  0.94163700759E+03  0.00000000000E+00 0. -1.
         21   -1    0    0  501  502 -0.00000000000E+00 -0.00000000000E+00 -0.54654710417E+02  0.54654710417E+02  0.00000000000E+00 0. -1.
      99926    2    1    2    0    0  0.35527136788E-14  0.00000000000E+00  0.88698229717E+03  0.99629171801E+03  0.45371752432E+03 0.  0.
      99925    2    3    3    0    0  0.20877671544E+02  0.10813993358E+03  0.60238074415E+03  0.66648014379E+03  0.26306481852E+03 0.  0.
         25    1    3    3    0    0 -0.20877671544E+02 -0.10813993358E+03  0.28460155303E+03  0.32981157422E+03  0.12509000000E+03 0.  0.
         25    1    4    4    0    0 -0.19561656016E+02  0.23946525757E+02  0.25935431196E+03  0.28960017561E+03  0.12509000000E+03 0.  0.
         25    1    4    4    0    0  0.40439327560E+02  0.84193407823E+02  0.34302643219E+03  0.37687996818E+03  0.12509000000E+03 0.  0.
<mgrwt>
<rscale>  2 0.45371752E+03</rscale>
<asrwt>0</asrwt>
<pdfrwt beam="1">  1       21 0.13847602E+00 0.45371752E+03</pdfrwt>
<pdfrwt beam="2">  1       21 0.80374580E-02 0.45371752E+03</pdfrwt>
<totfact> 0.39707573E+04</totfact>
</mgrwt>
</event>
<event>
 7    0  0.4725730E-002  0.4577008E+03  0.7546771E-02  0.1025450E+00
         21   -1    0    0  502  501  0.00000000000E+00  0.00000000000E+00  0.12267744128E+04  0.12267744128E+04  0.00000000000E+00 0. -1.
         21   -1    0    0  501  502 -0.00000000000E+00 -0.00000000000E+00 -0.42691226676E+02  0.42691226676E+02  0.00000000000E+00 0. -1.
      99926    2    1    2    0    0  0.00000000000E+00  0.00000000000E+00  0.11840831861E+04  0.12694656395E+04  0.45770079544E+03 0.  0.
      99925    2    3    3    0    0  0.49214632058E+02  0.41183099733E+02  0.10102953353E+04  0.10459307364E+04  0.26297587918E+03 0.  0.
         25    1    4    4    0    0  0.10171782844E+02 -0.61740329143E+01  0.58678908885E+03  0.60009209855E+03  0.12509000000E+03 0.  0.
         25    1    3    3    0    0 -0.49214632058E+02 -0.41183099733E+02  0.17378785079E+03  0.22353490308E+03  0.12509000000E+03 0.  0.
         25    1    4    4    0    0  0.39042849214E+02  0.47357132648E+02  0.42350624650E+03  0.44583863786E+03  0.12509000000E+03 0.  0.
<mgrwt>
<rscale>  2 0.45770080E+03</rscale>
<asrwt>0</asrwt>
<pdfrwt beam="1">  1       21 0.18040798E+00 0.45770080E+03</pdfrwt>
<pdfrwt beam="2">  1       21 0.62781223E-02 0.45770080E+03</pdfrwt>
<totfact> 0.29391844E+04</totfact>
</mgrwt>
</event>
<event>
 7    0  0.4725730E-002  0.4033204E+03  0.7546771E-02  0.1042636E+00
         21   -1    0    0  502  501  0.00000000000E+00  0.00000000000E+00  0.77152700235E+03  0.77152700235E+03  0.00000000000E+00 0. -1.
         21   -1    0    0  501  502 -0.00000000000E+00 -0.00000000000E+00 -0.52709556621E+02  0.52709556621E+02  0.00000000000E+00 0. -1.
      99926    2    1    2    0    0  0.00000000000E+00  0.00000000000E+00  0.71881744573E+03  0.82423655897E+03  0.40332044934E+03 0.  0.
      99925    2    3    3    0    0 -0.47246786067E+02  0.10221270338E+02  0.44256441346E+03  0.51715354235E+03  0.26314975421E+03 0.  0.
         25    1    3    3    0    0  0.47246786067E+02 -0.10221270338E+02  0.27625303226E+03  0.30708301662E+03  0.12509000000E+03 0.  0.
         25    1    4    4    0    0 -0.22660025345E+02 -0.22437937941E+02  0.27744266018E+03  0.30600469865E+03  0.12509000000E+03 0.  0.
         25    1    4    4    0    0 -0.24586760722E+02  0.32659208280E+02  0.16512175328E+03  0.21114884370E+03  0.12509000000E+03 0.  0.
<mgrwt>
<rscale>  2 0.40332045E+03</rscale>
<asrwt>0</asrwt>
<pdfrwt beam="1">  1       21 0.11345985E+00 0.40332045E+03</pdfrwt>
<pdfrwt beam="2">  1       21 0.77514058E-02 0.40332045E+03</pdfrwt>
<totfact> 0.71479871E+04</totfact>
</mgrwt>
</event>
<event>
 7    0  0.4725730E-002  0.4516212E+03  0.7546771E-02  0.1027240E+00
         21   -1    0    0  502  501  0.00000000000E+00  0.00000000000E+00  0.22035073884E+03  0.22035073884E+03  0.00000000000E+00 0.  1.
         21   -1    0    0  501  502 -0.00000000000E+00 -0.00000000000E+00 -0.23140576283E+03  0.23140576283E+03  0.00000000000E+00 0.  1.
      99926    2    1    2    0    0  0.17763568394E-14 -0.71054273576E-14 -0.11055023988E+02  0.45175650167E+03  0.45162121656E+03 0.  0.
      99925    2    3    3    0    0  0.97866962217E+01 -0.39530299059E+02 -0.10910978554E+03  0.28768131059E+03  0.26305354435E+03 0.  0.
         25    1    3    3    0    0 -0.97866962217E+01  0.39530299059E+02  0.98054761552E+02  0.16407519109E+03  0.12509000000E+03 0.  0.
         25    1    4    4    0    0 -0.31989830550E+02 -0.21568487326E+02 -0.35725069002E+02  0.13569206889E+03  0.12509000000E+03 0.  0.
         25    1    4    4    0    0  0.41776526772E+02 -0.17961811733E+02 -0.73384716539E+02  0.15198924170E+03  0.12509000000E+03 0.  0.
<mgrwt>
<rscale>  2 0.45162122E+03</rscale>
<asrwt>0</asrwt>
<pdfrwt beam="1">  1       21 0.32404521E-01 0.45162122E+03</pdfrwt>
<pdfrwt beam="2">  1       21 0.34030259E-01 0.45162122E+03</pdfrwt>
<totfact> 0.70670144E+04</totfact>
</mgrwt>
</event>
<event>
 7    0  0.4725730E-002  0.4526475E+03  0.7546771E-02  0.1026935E+00
         21   -1    0    0  502  501  0.00000000000E+00  0.00000000000E+00  0.65326959604E+02  0.65326959604E+02  0.00000000000E+00 0. -1.
         21   -1    0    0  501  502 -0.00000000000E+00 -0.00000000000E+00 -0.78409345738E+03  0.78409345738E+03  0.00000000000E+00 0. -1.
      99926    2    1    2    0    0  0.00000000000E+00  0.00000000000E+00 -0.71876649778E+03  0.84942041699E+03  0.45264750796E+03 0.  0.
      99925    2    3    3    0    0  0.32980503647E+02 -0.31015774832E+02 -0.64343196075E+03  0.69653976916E+03  0.26289402809E+03 0.  0.
         25    1    3    3    0    0 -0.32980503647E+02  0.31015774832E+02 -0.75334537032E+02  0.15288064782E+03  0.12509000000E+03 0.  0.
         25    1    4    4    0    0 -0.10546522060E+02 -0.37777047563E+02 -0.37241139720E+03  0.39481146299E+03  0.12509000000E+03 0.  0.
         25    1    4    4    0    0  0.43527025706E+02  0.67612727310E+01 -0.27102056355E+03  0.30172830617E+03  0.12509000000E+03 0.  0.
<mgrwt>
<rscale>  2 0.45264751E+03</rscale>
<asrwt>0</asrwt>
<pdfrwt beam="1">  1       21 0.96069058E-02 0.45264751E+03</pdfrwt>
<pdfrwt beam="2">  1       21 0.11530786E+00 0.45264751E+03</pdfrwt>
<totfact> 0.46314109E+04</totfact>
</mgrwt>
</event>
<event>
 7    0  0.4725730E-002  0.4529239E+03  0.7546771E-02  0.1026854E+00
         21   -1    0    0  502  501  0.00000000000E+00  0.00000000000E+00  0.83513569680E+03  0.83513569680E+03  0.00000000000E+00 0. -1.
         21   -1    0    0  501  502 -0.00000000000E+00 -0.00000000000E+00 -0.61409195043E+02  0.61409195043E+02  0.00000000000E+00 0. -1.
      99926    2    1    2    0    0  0.71054273576E-14  0.00000000000E+00  0.77372650175E+03  0.89654489184E+03  0.45292388275E+03 0.  0.
      99925    2    3    3    0    0 -0.50588120821E+02  0.57972990714E+02  0.64680224021E+03  0.70243847286E+03  0.26295749579E+03 0.  0.
         25    1    3    3    0    0  0.50588120821E+02 -0.57972990714E+02  0.12692426154E+03  0.19410641898E+03  0.12509000000E+03 0.  0.
         25    1    4    4    0    0  0.31470684923E+01  0.55593849004E+02  0.29592485185E+03  0.32606687371E+03  0.12509000000E+03 0.  0.
         25    1    4    4    0    0 -0.53735189313E+02  0.23791417096E+01  0.35087738836E+03  0.37637159916E+03  0.12509000000E+03 0.  0.
<mgrwt>
<rscale>  2 0.45292388E+03</rscale>
<asrwt>0</asrwt>
<pdfrwt beam="1">  1       21 0.12281407E+00 0.45292388E+03</pdfrwt>
<pdfrwt beam="2">  1       21 0.90307645E-02 0.45292388E+03</pdfrwt>
<totfact> 0.44095858E+04</totfact>
</mgrwt>
</event>
<event>
 7    0  0.4725730E-002  0.4341961E+03  0.7546771E-02  0.1032543E+00
         21   -1    0    0  502  501  0.00000000000E+00  0.00000000000E+00  0.50223217182E+03  0.50223217182E+03  0.00000000000E+00 0. -1.
         21   -1    0    0  501  502 -0.00000000000E+00 -0.00000000000E+00 -0.93844178555E+02  0.93844178555E+02  0.00000000000E+00 0. -1.
      99926    2    1    2    0    0  0.14210854715E-13  0.00000000000E+00  0.40838799327E+03  0.59607635038E+03  0.43419611057E+03 0.  0.
      99925    2    3    3    0    0 -0.83858726627E+02 -0.46540489863E+01  0.20967803486E+03  0.34670293184E+03  0.26302870269E+03 0.  0.
         25    1    4    4    0    0 -0.79780777716E+01  0.18703356513E+02  0.11298120020E+03  0.16978140348E+03  0.12509000000E+03 0.  0.
         25    1    4    4    0    0 -0.75880648856E+02 -0.23357405500E+02  0.96696834656E+02  0.17692152835E+03  0.12509000000E+03 0.  0.
         25    1    3    3    0    0  0.83858726627E+02  0.46540489863E+01  0.19870995841E+03  0.24937341854E+03  0.12509000000E+03 0.  0.
<mgrwt>
<rscale>  2 0.43419611E+03</rscale>
<asrwt>0</asrwt>
<pdfrwt beam="1">  1       21 0.73857671E-01 0.43419611E+03</pdfrwt>
<pdfrwt beam="2">  1       21 0.13800615E-01 0.43419611E+03</pdfrwt>
<totfact> 0.69688630E+04</totfact>
</mgrwt>
</event>
<event>
 7    0  0.4725730E-002  0.4584885E+03  0.7546771E-02  0.1025221E+00
         21   -1    0    0  502  501  0.00000000000E+00  0.00000000000E+00  0.41039126703E+03  0.41039126703E+03  0.00000000000E+00 0.  1.
         21   -1    0    0  501  502 -0.00000000000E+00 -0.00000000000E+00 -0.12805563899E+03  0.12805563899E+03  0.00000000000E+00 0.  1.
      99926    2    1    2    0    0  0.14210854715E-13  0.00000000000E+00  0.28233562803E+03  0.53844690602E+03  0.45848845541E+03 0.  0.
      99925    2    3    3    0    0  0.99343817891E+02 -0.10886971636E+02  0.10803622669E+03  0.30177094672E+03  0.26345048434E+03 0.  0.
         25    1    4    4    0    0  0.48742138305E+02 -0.53485864578E+01  0.98091334097E+02  0.16635450504E+03  0.12509000000E+03 0.  0.
         25    1    3    3    0    0 -0.99343817891E+02  0.10886971636E+02  0.17429940134E+03  0.23667595930E+03  0.12509000000E+03 0.  0.
         25    1    4    4    0    0  0.50601679586E+02 -0.55383851784E+01  0.99448925978E+01  0.13541644168E+03  0.12509000000E+03 0.  0.
<mgrwt>
<rscale>  2 0.45848846E+03</rscale>
<asrwt>0</asrwt>
<pdfrwt beam="1">  1       21 0.60351656E-01 0.45848846E+03</pdfrwt>
<pdfrwt beam="2">  1       21 0.18831712E-01 0.45848846E+03</pdfrwt>
<totfact> 0.60936119E+04</totfact>
</mgrwt>
</event>
<event>
 7    0  0.4725730E-002  0.4595995E+03  0.7546771E-02  0.1024897E+00
         21   -1    0    0  502  501  0.00000000000E+00  0.00000000000E+00  0.12933077835E+04  0.12933077835E+04  0.00000000000E+00 0.  1.
         21   -1    0    0  501  502 -0.00000000000E+00 -0.00000000000E+00 -0.40831671402E+02  0.40831671402E+02  0.00000000000E+00 0.  1.
      99926    2    1    2    0    0  0.00000000000E+00  0.00000000000E+00  0.12524761121E+04  0.13341394549E+04  0.45959947100E+03 0.  0.
      99925    2    3    3    0    0  0.11462854030E+03  0.25146888870E+02  0.77014979592E+03  0.82222320037E+03  0.26296048145E+03 0.  0.
         25    1    4    4    0    0  0.84219752609E+02  0.43055669048E+02  0.45754943372E+03  0.48367938737E+03  0.12509000000E+03 0.  0.
         25    1    4    4    0    0  0.30408787694E+02 -0.17908780178E+02  0.31260036219E+03  0.33854381300E+03  0.12509000000E+03 0.  0.
         25    1    3    3    0    0 -0.11462854030E+03 -0.25146888870E+02  0.48232631616E+03  0.51191625451E+03  0.12509000000E+03 0.  0.
<mgrwt>
<rscale>  2 0.45959947E+03</rscale>
<asrwt>0</asrwt>
<pdfrwt beam="1">  1       21 0.19019229E+00 0.45959947E+03</pdfrwt>
<pdfrwt beam="2">  1       21 0.60046584E-02 0.45959947E+03</pdfrwt>
<totfact> 0.27154982E+04</totfact>
</mgrwt>
</event>
<event>
 7    0  0.4725730E-002  0.4529479E+03  0.7546771E-02  0.1026847E+00
         21   -1    0    0  502  501  0.00000000000E+00  0.00000000000E+00  0.28662068751E+02  0.28662068751E+02  0.00000000000E+00 0.  1.
         21   -1    0    0  501  502 -0.00000000000E+00 -0.00000000000E+00 -0.17894888404E+04  0.17894888404E+04  0.00000000000E+00 0.  1.
      99926    2    1    2    0    0  0.00000000000E+00  0.17763568394E-14 -0.17608267717E+04  0.18181509092E+04  0.45294790947E+03 0.  0.
      99925    2    3    3    0    0  0.10350939879E+03  0.11121789547E+02 -0.95136562985E+03  0.99249193717E+03  0.26287980872E+03 0.  0.
         25    1    4    4    0    0  0.72205898977E+02 -0.19220894737E+02 -0.40886452514E+03  0.43405165898E+03  0.12509000000E+03 0.  0.
         25    1    3    3    0    0 -0.10350939879E+03 -0.11121789547E+02 -0.80946114181E+03  0.82565897200E+03  0.12509000000E+03 0.  0.
         25    1    4    4    0    0  0.31303499817E+02  0.30342684284E+02 -0.54250110471E+03  0.55844027819E+03  0.12509000000E+03 0.  0.
<mgrwt>
<rscale>  2 0.45294791E+03</rscale>
<asrwt>0</asrwt>
<pdfrwt beam="1">  1       21 0.42150086E-02 0.45294791E+03</pdfrwt>
<pdfrwt beam="2">  1       21 0.26316022E+00 0.45294791E+03</pdfrwt>
<totfact> 0.17185419E+04</totfact>
</mgrwt>
</event>
<event>
 7    0  0.4725730E-002  0.4541150E+03  0.7546771E-02  0.1026502E+00
         21   -1    0    0  502  501  0.00000000000E+00  0.00000000000E+00  0.20919861227E+03  0.20919861227E+03  0.00000000000E+00 0. -1.
         21   -1    0    0  501  502 -0.00000000000E+00 -0.00000000000E+00 -0.24644097506E+03  0.24644097506E+03  0.00000000000E+00 0. -1.
      99926    2    1    2    0    0  0.00000000000E+00  0.00000000000E+00 -0.37242362784E+02  0.45563958733E+03  0.45411500741E+03 0.  0.
      99925    2    3    3    0    0 -0.70027290309E+02  0.87108883030E+02 -0.13310790419E+02  0.28619340960E+03  0.26313059812E+03 0.  0.
         25    1    4    4    0    0 -0.26576825809E+02  0.15050730010E+02  0.23775374770E+02  0.13094131773E+03  0.12509000000E+03 0.  0.
         25    1    4    4    0    0 -0.43450464500E+02  0.72058153020E+02 -0.37086165189E+02  0.15525209187E+03  0.12509000000E+03 0.  0.
         25    1    3    3    0    0  0.70027290309E+02 -0.87108883030E+02 -0.23931572365E+02  0.16944617773E+03  0.12509000000E+03 0.  0.
<mgrwt>
<rscale>  2 0.45411501E+03</rscale>
<asrwt>0</asrwt>
<pdfrwt beam="1">  1       21 0.30764502E-01 0.45411501E+03</pdfrwt>
<pdfrwt beam="2">  1       21 0.36241320E-01 0.45411501E+03</pdfrwt>
<totfact> 0.68984815E+04</totfact>
</mgrwt>
</event>
<event>
 7    0  0.4725730E-002  0.4583625E+03  0.7546771E-02  0.1025257E+00
         21   -1    0    0  502  501  0.00000000000E+00  0.00000000000E+00  0.56258402956E+02  0.56258402956E+02  0.00000000000E+00 0.  1.
         21   -1    0    0  501  502 -0.00000000000E+00 -0.00000000000E+00 -0.93362146124E+03  0.93362146124E+03  0.00000000000E+00 0.  1.
      99926    2    1    2    0    0  0.00000000000E+00 -0.71054273576E-14 -0.87736305828E+03  0.98987986419E+03  0.45836253064E+03 0.  0.
      99925    2    3    3    0    0 -0.10165972943E+03 -0.47934312223E+02 -0.48641249894E+03  0.56429526998E+03  0.26305823258E+03 0.  0.
         25    1    3    3    0    0  0.10165972943E+03  0.47934312223E+02 -0.39095055935E+03  0.42558459421E+03  0.12509000000E+03 0.  0.
         25    1    4    4    0    0 -0.84995772468E+02 -0.49397106744E+02 -0.29154642952E+03  0.33213127549E+03  0.12509000000E+03 0.  0.
         25    1    4    4    0    0 -0.16663956966E+02  0.14627945210E+01 -0.19486606942E+03  0.23216399449E+03  0.12509000000E+03 0.  0.
<mgrwt>
<rscale>  2 0.45836253E+03</rscale>
<asrwt>0</asrwt>
<pdfrwt beam="1">  1       21 0.82732950E-02 0.45836253E+03</pdfrwt>
<pdfrwt beam="2">  1       21 0.13729727E+00 0.45836253E+03</pdfrwt>
<totfact> 0.38540444E+04</totfact>
</mgrwt>
</event>
<event>
 7    0  0.4725730E-002  0.4560653E+03  0.7546771E-02  0.1025929E+00
         21   -1    0    0  502  501  0.00000000000E+00  0.00000000000E+00  0.11660093032E+03  0.11660093032E+03  0.00000000000E+00 0. -1.
         21   -1    0    0  501  502 -0.00000000000E+00 -0.00000000000E+00 -0.44595610569E+03  0.44595610569E+03  0.00000000000E+00 0. -1.
      99926    2    1    2    0    0  0.00000000000E+00  0.00000000000E+00 -0.32935517538E+03  0.56255703601E+03  0.45606533218E+03 0.  0.
      99925    2    3    3    0    0 -0.61624971655E+02 -0.19394269295E+02 -0.91112294638E+02  0.28582439765E+03  0.26309762683E+03 0.  0.
         25    1    4    4    0    0 -0.41621545958E+02 -0.18899757911E+02 -0.62119517835E+01  0.13332535536E+03  0.12509000000E+03 0.  0.
         25    1    3    3    0    0  0.61624971655E+02  0.19394269295E+02 -0.23824288074E+03  0.27673263837E+03  0.12509000000E+03 0.  0.
         25    1    4    4    0    0 -0.20003425696E+02 -0.49451138372E+00 -0.84900342854E+02  0.15249904229E+03  0.12509000000E+03 0.  0.
<mgrwt>
<rscale>  2 0.45606533E+03</rscale>
<asrwt>0</asrwt>
<pdfrwt beam="1">  1       21 0.17147195E-01 0.45606533E+03</pdfrwt>
<pdfrwt beam="2">  1       21 0.65581782E-01 0.45606533E+03</pdfrwt>
<totfact> 0.60532611E+04</totfact>
</mgrwt>
</event>
<event>
 7    0  0.4725730E-002  0.4616846E+03  0.7546771E-02  0.1024294E+00
         21   -1    0    0  502  501  0.00000000000E+00  0.00000000000E+00  0.39628151165E+02  0.39628151165E+02  0.00000000000E+00 0. -1.
         21   -1    0    0  501  502 -0.00000000000E+00 -0.00000000000E+00 -0.13447047727E+04  0.13447047727E+04  0.00000000000E+00 0. -1.
      99926    2    1    2    0    0  0.71054273576E-14  0.00000000000E+00 -0.13050766215E+04  0.13843329239E+04  0.46168458499E+03 0.  0.
      99925    2    3    3    0    0  0.60837164992E+02  0.86541025548E+02 -0.65059401481E+03  0.70965855771E+03  0.26296803355E+03 0.  0.
         25    1    4    4    0    0  0.67513592246E+02  0.38103146494E+02 -0.38173642360E+03  0.40912118023E+03  0.12509000000E+03 0.  0.
         25    1    4    4    0    0 -0.66764272543E+01  0.48437879054E+02 -0.26885759122E+03  0.30053737748E+03  0.12509000000E+03 0.  0.
         25    1    3    3    0    0 -0.60837164992E+02 -0.86541025548E+02 -0.65448260671E+03  0.67467436615E+03  0.12509000000E+03 0.  0.
<mgrwt>
<rscale>  2 0.46168458E+03</rscale>
<asrwt>0</asrwt>
<pdfrwt beam="1">  1       21 0.58276697E-02 0.46168458E+03</pdfrwt>
<pdfrwt beam="2">  1       21 0.19775069E+00 0.46168458E+03</pdfrwt>
<totfact> 0.25406753E+04</totfact>
</mgrwt>
</event>
<event>
 7    0  0.4725730E-002  0.4497354E+03  0.7546771E-02  0.1027801E+00
         21   -1    0    0  502  501  0.00000000000E+00  0.00000000000E+00  0.42982115771E+03  0.42982115771E+03  0.00000000000E+00 0. -1.
         21   -1    0    0  501  502 -0.00000000000E+00 -0.00000000000E+00 -0.11764309723E+03  0.11764309723E+03  0.00000000000E+00 0. -1.
      99926    2    1    2    0    0  0.00000000000E+00  0.14210854715E-13  0.31217806047E+03  0.54746425494E+03  0.44973544334E+03 0.  0.
      99925    2    3    3    0    0 -0.63840489687E+02  0.82682609029E+02  0.16833844216E+03  0.33009506242E+03  0.26403200027E+03 0.  0.
         25    1    3    3    0    0  0.63840489687E+02 -0.82682609029E+02  0.14383961831E+03  0.21736919252E+03  0.12509000000E+03 0.  0.
         25    1    4    4    0    0 -0.39176626946E+02  0.16444944441E+02  0.12008651157E+03  0.17853157328E+03  0.12509000000E+03 0.  0.
         25    1    4    4    0    0 -0.24663862741E+02  0.66237664588E+02  0.48251930590E+02  0.15156348914E+03  0.12509000000E+03 0.  0.
<mgrwt>
<rscale>  2 0.44973544E+03</rscale>
<asrwt>0</asrwt>
<pdfrwt beam="1">  1       21 0.63208993E-01 0.44973544E+03</pdfrwt>
<pdfrwt beam="2">  1       21 0.17300456E-01 0.44973544E+03</pdfrwt>
<totfact> 0.64687110E+04</totfact>
</mgrwt>
</event>
<event>
 7    0  0.4725730E-002  0.4584359E+03  0.7546771E-02  0.1025236E+00
         21   -1    0    0  502  501  0.00000000000E+00  0.00000000000E+00  0.14070063826E+03  0.14070063826E+03  0.00000000000E+00 0. -1.
         21   -1    0    0  501  502 -0.00000000000E+00 -0.00000000000E+00 -0.37342303216E+03  0.37342303216E+03  0.00000000000E+00 0. -1.
      99926    2    1    2    0    0  0.00000000000E+00  0.00000000000E+00 -0.23272239390E+03  0.51412367042E+03  0.45843585796E+03 0.  0.
      99925    2    3    3    0    0 -0.90826529040E+02  0.29992274433E+02 -0.22168097879E+03  0.35626798997E+03  0.26198364341E+03 0.  0.
         25    1    4    4    0    0 -0.70947279642E+02  0.34391218489E+02 -0.15017220560E+03  0.21074978489E+03  0.12509000000E+03 0.  0.
         25    1    4    4    0    0 -0.19879249398E+02 -0.43989440560E+01 -0.71508773195E+02  0.14551820508E+03  0.12509000000E+03 0.  0.
         25    1    3    3    0    0  0.90826529040E+02 -0.29992274433E+02 -0.11041415103E+02  0.15785568045E+03  0.12509000000E+03 0.  0.
<mgrwt>
<rscale>  2 0.45843586E+03</rscale>
<asrwt>0</asrwt>
<pdfrwt beam="1">  1       21 0.20691270E-01 0.45843586E+03</pdfrwt>
<pdfrwt beam="2">  1       21 0.54915152E-01 0.45843586E+03</pdfrwt>
<totfact> 0.62565969E+04</totfact>
</mgrwt>
</event>
<event>
 7    0  0.4725730E-002  0.4375829E+03  0.7546771E-02  0.1031491E+00
         21   -1    0    0  502  501  0.00000000000E+00  0.00000000000E+00  0.98499242256E+02  0.98499242256E+02  0.00000000000E+00 0. -1.
         21   -1    0    0  501  502 -0.00000000000E+00 -0.00000000000E+00 -0.48599060615E+03  0.48599060615E+03  0.00000000000E+00 0. -1.
      99926    2    1    2    0    0  0.00000000000E+00  0.00000000000E+00 -0.38749136390E+03  0.58448984841E+03  0.43758293591E+03 0.  0.
      99925    2    3    3    0    0  0.81578300932E+02 -0.19824271773E+02 -0.30976343192E+03  0.41496946485E+03  0.26305560641E+03 0.  0.
         25    1    3    3    0    0 -0.81578300932E+02  0.19824271773E+02 -0.77727931974E+02  0.16952038356E+03  0.12509000000E+03 0.  0.
         25    1    4    4    0    0  0.54811921963E+02  0.13781620324E+02 -0.20270515070E+03  0.24480842728E+03  0.12509000000E+03 0.  0.
         25    1    4    4    0    0  0.26766378969E+02 -0.33605892097E+02 -0.10705828123E+03  0.17016103757E+03  0.12509000000E+03 0.  0.
<mgrwt>
<rscale>  2 0.43758294E+03</rscale>
<asrwt>0</asrwt>
<pdfrwt beam="1">  1       21 0.14485183E-01 0.43758294E+03</pdfrwt>
<pdfrwt beam="2">  1       21 0.71469207E-01 0.43758294E+03</pdfrwt>
<totfact> 0.68612317E+04</totfact>
</mgrwt>
</event>
<event>
 7    0  0.4725730E-002  0.4292938E+03  0.7546771E-02  0.1034083E+00
         21   -1    0    0  502  501  0.00000000000E+00  0.00000000000E+00  0.38161968579E+02  0.38161968579E+02  0.00000000000E+00 0.  1.
         21   -1    0    0  501  502 -0.00000000000E+00 -0.00000000000E+00 -0.12073090982E+04  0.12073090982E+04  0.00000000000E+00 0.  1.
      99926    2    1    2    0    0  0.00000000000E+00  0.00000000000E+00 -0.11691471297E+04  0.12454710668E+04  0.42929380090E+03 0.  0.
      99925    2    3    3    0    0  0.41071376097E+02  0.75702663871E+02 -0.79161319158E+03  0.83853478956E+03  0.26281437738E+03 0.  0.
         25    1    4    4    0    0  0.34244564120E+02  0.46392502949E+02 -0.29575150510E+03  0.32625360592E+03  0.12509000000E+03 0.  0.
         25    1    3    3    0    0 -0.41071376097E+02 -0.75702663871E+02 -0.37753393808E+03  0.40693627727E+03  0.12509000000E+03 0.  0.
         25    1    4    4    0    0  0.68268119765E+01  0.29310160922E+02 -0.49586168648E+03  0.51228118364E+03  0.12509000000E+03 0.  0.
<mgrwt>
<rscale>  2 0.42929380E+03</rscale>
<asrwt>0</asrwt>
<pdfrwt beam="1">  1       21 0.56120548E-02 0.42929380E+03</pdfrwt>
<pdfrwt beam="2">  1       21 0.17754544E+00 0.42929380E+03</pdfrwt>
<totfact> 0.37744324E+04</totfact>
</mgrwt>
</event>
<event>
 7    0  0.4725730E-002  0.4568716E+03  0.7546771E-02  0.1025692E+00
         21   -1    0    0  502  501  0.00000000000E+00  0.00000000000E+00  0.49835129976E+03  0.49835129976E+03  0.00000000000E+00 0. -1.
         21   -1    0    0  501  502 -0.00000000000E+00 -0.00000000000E+00 -0.10471112051E+03  0.10471112051E+03  0.00000000000E+00 0. -1.
      99926    2    1    2    0    0  0.00000000000E+00  0.00000000000E+00  0.39364017925E+03  0.60306242027E+03  0.45687163627E+03 0.  0.
      99925    2    3    3    0    0  0.72922321404E+02  0.27603420491E+02  0.35872462157E+03  0.45158232900E+03  0.26298979442E+03 0.  0.
         25    1    3    3    0    0 -0.72922321404E+02 -0.27603420491E+02  0.34915557677E+02  0.15148009127E+03  0.12509000000E+03 0.  0.
         25    1    4    4    0    0  0.47276700019E+02  0.48577520640E+01  0.24464096491E+03  0.27884654190E+03  0.12509000000E+03 0.  0.
         25    1    4    4    0    0  0.25645621385E+02  0.22745668427E+02  0.11408365666E+03  0.17273578710E+03  0.12509000000E+03 0.  0.
<mgrwt>
<rscale>  2 0.45687164E+03</rscale>
<asrwt>0</asrwt>
<pdfrwt beam="1">  1       21 0.73286955E-01 0.45687164E+03</pdfrwt>
<pdfrwt beam="2">  1       21 0.15398694E-01 0.45687164E+03</pdfrwt>
<totfact> 0.57633196E+04</totfact>
</mgrwt>
</event>
<event>
 6    0  0.4725730E-002  0.4545846E+03  0.7546771E-02  0.1026364E+00
         21   -1    0    0  502  501  0.00000000000E+00  0.00000000000E+00  0.20302282409E+03  0.20302282409E+03  0.00000000000E+00 0.  1.
         21   -1    0    0  501  502 -0.00000000000E+00 -0.00000000000E+00 -0.25446291343E+03  0.25446291343E+03  0.00000000000E+00 0.  1.
      99926    2    1    2    0    0  0.00000000000E+00  0.71054273576E-14 -0.51440089344E+02  0.45748573752E+03  0.45458455456E+03 0.  0.
         25    1    3    3    0    0 -0.77188828459E+02 -0.63361208657E+02 -0.76745974005E+02  0.17751115635E+03  0.12509000000E+03 0.  0.
         25    1    3    3    0    0  0.54017137401E+01  0.41829077743E+02  0.22107459781E+00  0.13200911798E+03  0.12509000000E+03 0.  0.
         25    1    3    3    0    0  0.71787114719E+02  0.21532130914E+02  0.25084810063E+02  0.14796546319E+03  0.12509000000E+03 0.  0.
<mgrwt>
<rscale>  2 0.45458455E+03</rscale>
<asrwt>0</asrwt>
<pdfrwt beam="1">  1       21 0.29856298E-01 0.45458455E+03</pdfrwt>
<pdfrwt beam="2">  1       21 0.37421016E-01 0.45458455E+03</pdfrwt>
<totfact> 0.68591071E+04</totfact>
</mgrwt>
</event>
<event>
 7    0  0.4725730E-002  0.4562159E+03  0.7546771E-02  0.1025884E+00
         21   -1    0    0  502  501  0.00000000000E+00  0.00000000000E+00  0.19431823692E+04  0.19431823692E+04  0.00000000000E+00 0.  1.
         21   -1    0    0  501  502 -0.00000000000E+00 -0.00000000000E+00 -0.26777331832E+02  0.26777331832E+02  0.00000000000E+00 0.  1.
      99926    2    1    2    0    0  0.00000000000E+00  0.00000000000E+00  0.19164050373E+04  0.19699597010E+04  0.45621590989E+03 0.  0.
      99925    2    3    3    0    0 -0.82071022596E+02  0.64187717936E+02  0.14084142234E+04  0.14365200221E+04  0.26287531898E+03 0.  0.
         25    1    4    4    0    0 -0.58860977011E+02  0.64768677654E+02  0.86871007620E+03  0.88202284596E+03  0.12509000000E+03 0.  0.
         25    1    4    4    0    0 -0.23210045585E+02 -0.58095971795E+00  0.53970414719E+03  0.55449717612E+03  0.12509000000E+03 0.  0.
         25    1    3    3    0    0  0.82071022596E+02 -0.64187717936E+02  0.50799081395E+03  0.53343967891E+03  0.12509000000E+03 0.  0.
<mgrwt>
<rscale>  2 0.45621591E+03</rscale>
<asrwt>0</asrwt>
<pdfrwt beam="1">  1       21 0.28576202E+00 0.45621591E+03</pdfrwt>
<pdfrwt beam="2">  1       21 0.39378442E-02 0.45621591E+03</pdfrwt>
<totfact> 0.14073291E+04</totfact>
</mgrwt>
</event>
<event>
 6    0  0.4725730E-002  0.4442143E+03  0.7546771E-02  0.1029462E+00
         21   -1    0    0  502  501  0.00000000000E+00  0.00000000000E+00  0.10684011919E+04  0.10684011919E+04  0.00000000000E+00 0. -1.
         21   -1    0    0  501  502 -0.00000000000E+00 -0.00000000000E+00 -0.46173270716E+02  0.46173270716E+02  0.00000000000E+00 0. -1.
      99926    2    1    2    0    0  0.00000000000E+00  0.00000000000E+00  0.10222279212E+04  0.11145744626E+04  0.44421426122E+03 0.  0.
         25    1    3    3    0    0 -0.35532208045E+02 -0.55681584075E+02  0.46446738691E+03  0.48553108882E+03  0.12509000000E+03 0.  0.
         25    1    3    3    0    0  0.54820222116E+02  0.83483644945E+02  0.33640894787E+03  0.37254967995E+03  0.12509000000E+03 0.  0.
         25    1    3    3    0    0 -0.19288014071E+02 -0.27802060870E+02  0.22135158642E+03  0.25649369385E+03  0.12509000000E+03 0.  0.
<mgrwt>
<rscale>  2 0.44421426E+03</rscale>
<asrwt>0</asrwt>
<pdfrwt beam="1">  1       21 0.15711781E+00 0.44421426E+03</pdfrwt>
<pdfrwt beam="2">  1       21 0.67901876E-02 0.44421426E+03</pdfrwt>
<totfact> 0.38091145E+04</totfact>
</mgrwt>
</event>
<event>
 7    0  0.4725730E-002  0.4534452E+03  0.7546771E-02  0.1026700E+00
         21   -1    0    0  502  501  0.00000000000E+00  0.00000000000E+00  0.15340546056E+03  0.15340546056E+03  0.00000000000E+00 0. -1.
         21   -1    0    0  501  502 -0.00000000000E+00 -0.00000000000E+00 -0.33508029097E+03  0.33508029097E+03  0.00000000000E+00 0. -1.
      99926    2    1    2    0    0  0.00000000000E+00  0.00000000000E+00 -0.18167483042E+03  0.48848575153E+03  0.45344523974E+03 0.  0.
      99925    2    3    3    0    0 -0.41283248198E+02 -0.33798280679E+02 -0.22021151980E+03  0.34713790087E+03  0.26299235427E+03 0.  0.
         25    1    4    4    0    0 -0.26741579849E+02 -0.36280398418E+02 -0.15847392989E+03  0.20686438542E+03  0.12509000000E+03 0.  0.
         25    1    3    3    0    0  0.41283248198E+02  0.33798280679E+02  0.38536689385E+02  0.14134785066E+03  0.12509000000E+03 0.  0.
         25    1    4    4    0    0 -0.14541668349E+02  0.24821177393E+01 -0.61737589915E+02  0.14027351545E+03  0.12509000000E+03 0.  0.
<mgrwt>
<rscale>  2 0.45344524E+03</rscale>
<asrwt>0</asrwt>
<pdfrwt beam="1">  1       21 0.22559627E-01 0.45344524E+03</pdfrwt>
<pdfrwt beam="2">  1       21 0.49276513E-01 0.45344524E+03</pdfrwt>
<totfact> 0.66909434E+04</totfact>
</mgrwt>
</event>
<event>
 7    0  0.4725730E-002  0.4579166E+03  0.7546771E-02  0.1025387E+00
         21   -1    0    0  502  501  0.00000000000E+00  0.00000000000E+00  0.70300256064E+02  0.70300256064E+02  0.00000000000E+00 0. -1.
         21   -1    0    0  501  502 -0.00000000000E+00 -0.00000000000E+00 -0.74568572867E+03  0.74568572867E+03  0.00000000000E+00 0. -1.
      99926    2    1    2    0    0  0.00000000000E+00  0.14210854715E-13 -0.67538547261E+03  0.81598598474E+03  0.45791657611E+03 0.  0.
      99925    2    3    3    0    0 -0.57344688616E+02  0.95091853349E+02 -0.48154043272E+03  0.55995028122E+03  0.26331018820E+03 0.  0.
         25    1    4    4    0    0 -0.58257233969E+01  0.82329222581E+02 -0.25568875453E+03  0.29637187322E+03  0.12509000000E+03 0.  0.
         25    1    3    3    0    0  0.57344688616E+02 -0.95091853349E+02 -0.19384503989E+03  0.25603570352E+03  0.12509000000E+03 0.  0.
         25    1    4    4    0    0 -0.51518965220E+02  0.12762630768E+02 -0.22585167819E+03  0.26357840800E+03  0.12509000000E+03 0.  0.
<mgrwt>
<rscale>  2 0.45791658E+03</rscale>
<asrwt>0</asrwt>
<pdfrwt beam="1">  1       21 0.10338273E-01 0.45791658E+03</pdfrwt>
<pdfrwt beam="2">  1       21 0.10965967E+00 0.45791658E+03</pdfrwt>
<totfact> 0.45940828E+04</totfact>
</mgrwt>
</event>
<event>
 7    0  0.4725730E-002  0.4447252E+03  0.7546771E-02  0.1029307E+00
         21   -1    0    0  502  501  0.00000000000E+00  0.00000000000E+00  0.62298400637E+03  0.62298400637E+03  0.00000000000E+00 0.  1.
         21   -1    0    0  501  502 -0.00000000000E+00 -0.00000000000E+00 -0.79368194491E+02  0.79368194491E+02  0.00000000000E+00 0.  1.
      99926    2    1    2    0    0  0.00000000000E+00  0.00000000000E+00  0.54361581188E+03  0.70235220086E+03  0.44472515459E+03 0.  0.
      99925    2    3    3    0    0  0.90780737779E+02 -0.48847563577E+02  0.32525210625E+03  0.43040102353E+03  0.26235259025E+03 0.  0.
         25    1    4    4    0    0  0.39510550789E+02 -0.60256282894E+02  0.14299506901E+03  0.20319203014E+03  0.12509000000E+03 0.  0.
         25    1    3    3    0    0 -0.90780737779E+02  0.48847563577E+02  0.21836370562E+03  0.27195117733E+03  0.12509000000E+03 0.  0.
         25    1    4    4    0    0  0.51270186990E+02  0.11408719317E+02  0.18225703724E+03  0.22720899338E+03  0.12509000000E+03 0.  0.
<mgrwt>
<rscale>  2 0.44472515E+03</rscale>
<asrwt>0</asrwt>
<pdfrwt beam="1">  1       21 0.91615292E-01 0.44472515E+03</pdfrwt>
<pdfrwt beam="2">  1       21 0.11671794E-01 0.44472515E+03</pdfrwt>
<totfact> 0.57267148E+04</totfact>
</mgrwt>
</event>
<event>
 7    0  0.4725730E-002  0.4580916E+03  0.7546771E-02  0.1025336E+00
         21   -1    0    0  502  501  0.00000000000E+00  0.00000000000E+00  0.11579123229E+03  0.11579123229E+03  0.00000000000E+00 0. -1.
         21   -1    0    0  501  502 -0.00000000000E+00 -0.00000000000E+00 -0.45307392427E+03  0.45307392427E+03  0.00000000000E+00 0. -1.
      99926    2    1    2    0    0  0.35527136788E-14  0.00000000000E+00 -0.33728269198E+03  0.56886515656E+03  0.45809164152E+03 0.  0.
      99925    2    3    3    0    0 -0.19794865683E+02 -0.39381207081E+02 -0.34499309197E+03  0.43601307887E+03  0.26295333285E+03 0.  0.
         25    1    3    3    0    0  0.19794865683E+02  0.39381207081E+02  0.77103999872E+01  0.13285207769E+03  0.12509000000E+03 0.  0.
         25    1    4    4    0    0  0.30503515144E+02 -0.15278764575E+02 -0.16697831643E+03  0.21140759528E+03  0.12509000000E+03 0.  0.
         25    1    4    4    0    0 -0.50298380827E+02 -0.24102442507E+02 -0.17801477554E+03  0.22460548359E+03  0.12509000000E+03 0.  0.
<mgrwt>
<rscale>  2 0.45809164E+03</rscale>
<asrwt>0</asrwt>
<pdfrwt beam="1">  1       21 0.17028122E-01 0.45809164E+03</pdfrwt>
<pdfrwt beam="2">  1       21 0.66628519E-01 0.45809164E+03</pdfrwt>
<totfact> 0.59176689E+04</totfact>
</mgrwt>
</event>
<event>
 7    0  0.4725730E-002  0.4492047E+03  0.7546771E-02  0.1027959E+00
         21   -1    0    0  502  501  0.00000000000E+00  0.00000000000E+00  0.13019637618E+03  0.13019637618E+03  0.00000000000E+00 0.  1.
         21   -1    0    0  501  502 -0.00000000000E+00 -0.00000000000E+00 -0.38746253827E+03  0.38746253827E+03  0.00000000000E+00 0.  1.
      99926    2    1    2    0    0  0.14210854715E-13  0.71054273576E-14 -0.25726616209E+03  0.51765891445E+03  0.44920471230E+03 0.  0.
      99925    2    3    3    0    0  0.93242777314E+02 -0.41830650946E+02 -0.20206142637E+03  0.34695715750E+03  0.26288101915E+03 0.  0.
         25    1    4    4    0    0  0.36119336501E+02 -0.39997107989E+02 -0.58762325423E+02  0.14834046685E+03  0.12509000000E+03 0.  0.
         25    1    3    3    0    0 -0.93242777314E+02  0.41830650946E+02 -0.55204735718E+02  0.17070175695E+03  0.12509000000E+03 0.  0.
         25    1    4    4    0    0  0.57123440814E+02 -0.18335429568E+01 -0.14329910095E+03  0.19861669065E+03  0.12509000000E+03 0.  0.
<mgrwt>
<rscale>  2 0.44920471E+03</rscale>
<asrwt>0</asrwt>
<pdfrwt beam="1">  1       21 0.19146526E-01 0.44920471E+03</pdfrwt>
<pdfrwt beam="2">  1       21 0.56979784E-01 0.44920471E+03</pdfrwt>
<totfact> 0.67078434E+04</totfact>
</mgrwt>
</event>
<event>
 7    0  0.4725730E-002  0.4486099E+03  0.7546771E-02  0.1028137E+00
         21   -1    0    0  502  501  0.00000000000E+00  0.00000000000E+00  0.52788029913E+03  0.52788029913E+03  0.00000000000E+00 0.  1.
         21   -1    0    0  501  502 -0.00000000000E+00 -0.00000000000E+00 -0.95310813949E+02  0.95310813949E+02  0.00000000000E+00 0.  1.
      99926    2    1    2    0    0  0.00000000000E+00  0.00000000000E+00  0.43256948518E+03  0.62319111308E+03  0.44860985712E+03 0.  0.
      99925    2    3    3    0    0  0.71755755343E+01  0.94775929965E+02  0.34225981093E+03  0.44198043141E+03  0.26300372201E+03 0.  0.
         25    1    4    4    0    0  0.12171333552E+02  0.35683542857E+02  0.22669801344E+03  0.26165044236E+03  0.12509000000E+03 0.  0.
         25    1    4    4    0    0 -0.49957580182E+01  0.59092387108E+02  0.11556179749E+03  0.18032998905E+03  0.12509000000E+03 0.  0.
         25    1    3    3    0    0 -0.71755755343E+01 -0.94775929965E+02  0.90309674250E+02  0.18121068166E+03  0.12509000000E+03 0.  0.
<mgrwt>
<rscale>  2 0.44860986E+03</rscale>
<asrwt>0</asrwt>
<pdfrwt beam="1">  1       21 0.77629455E-01 0.44860986E+03</pdfrwt>
<pdfrwt beam="2">  1       21 0.14016296E-01 0.44860986E+03</pdfrwt>
<totfact> 0.60256053E+04</totfact>
</mgrwt>
</event>
<event>
 7    0  0.4725730E-002  0.4683383E+03  0.7546771E-02  0.1022390E+00
         21   -1    0    0  502  501  0.00000000000E+00  0.00000000000E+00  0.11824692986E+03  0.11824692986E+03  0.00000000000E+00 0. -1.
         21   -1    0    0  501  502 -0.00000000000E+00 -0.00000000000E+00 -0.46373468049E+03  0.46373468049E+03  0.00000000000E+00 0. -1.
      99926    2    1    2    0    0 -0.14210854715E-13 -0.71054273576E-14 -0.34548775063E+03  0.58198161036E+03  0.46833834880E+03 0.  0.
      99925    2    3    3    0    0  0.73936711536E+02  0.49546077320E+02 -0.10532006096E+03  0.29693866912E+03  0.26298062074E+03 0.  0.
         25    1    4    4    0    0  0.41949626687E+02 -0.13170299145E+02 -0.35194406856E+02  0.13718375389E+03  0.12509000000E+03 0.  0.
         25    1    4    4    0    0  0.31987084849E+02  0.62716376465E+02 -0.70125654104E+02  0.15975491522E+03  0.12509000000E+03 0.  0.
         25    1    3    3    0    0 -0.73936711536E+02 -0.49546077320E+02 -0.24016768967E+03  0.28504294124E+03  0.12509000000E+03 0.  0.
<mgrwt>
<rscale>  2 0.46833835E+03</rscale>
<asrwt>0</asrwt>
<pdfrwt beam="1">  1       21 0.17389254E-01 0.46833835E+03</pdfrwt>
<pdfrwt beam="2">  1       21 0.68196278E-01 0.46833835E+03</pdfrwt>
<totfact> 0.53889849E+04</totfact>
</mgrwt>
</event>
<event>
 6    0  0.4725730E-002  0.4516468E+03  0.7546771E-02  0.1027232E+00
         21   -1    0    0  502  501  0.00000000000E+00  0.00000000000E+00  0.13871953722E+03  0.13871953722E+03  0.00000000000E+00 0. -1.
         21   -1    0    0  501  502 -0.00000000000E+00 -0.00000000000E+00 -0.36762101099E+03  0.36762101099E+03  0.00000000000E+00 0. -1.
      99926    2    1    2    0    0  0.17763568394E-14  0.14210854715E-13 -0.22890147378E+03  0.50634054821E+03  0.45164683777E+03 0.  0.
         25    1    3    3    0    0 -0.19141807996E+02 -0.90149949694E+02 -0.90108202117E+02  0.17961185493E+03  0.12509000000E+03 0.  0.
         25    1    3    3    0    0  0.10302028731E+02  0.11212653175E+03 -0.84451414766E+02  0.18830305488E+03  0.12509000000E+03 0.  0.
         25    1    3    3    0    0  0.88397792652E+01 -0.21976582060E+02 -0.54341856894E+02  0.13842563840E+03  0.12509000000E+03 0.  0.
<mgrwt>
<rscale>  2 0.45164684E+03</rscale>
<asrwt>0</asrwt>
<pdfrwt beam="1">  1       21 0.20399932E-01 0.45164684E+03</pdfrwt>
<pdfrwt beam="2">  1       21 0.54061913E-01 0.45164684E+03</pdfrwt>
<totfact> 0.66581845E+04</totfact>
</mgrwt>
</event>
<event>
 7    0  0.4725730E-002  0.4495861E+03  0.7546771E-02  0.1027846E+00
         21   -1    0    0  502  501  0.00000000000E+00  0.00000000000E+00  0.16007748010E+03  0.16007748010E+03  0.00000000000E+00 0.  1.
         21   -1    0    0  501  502 -0.00000000000E+00 -0.00000000000E+00 -0.31567166659E+03  0.31567166659E+03  0.00000000000E+00 0.  1.
      99926    2    1    2    0    0  0.00000000000E+00  0.13322676296E-14 -0.15559418648E+03  0.47574914669E+03  0.44958614270E+03 0.  0.
      99925    2    3    3    0    0 -0.92390313888E+02 -0.27951997189E+01 -0.15720702963E+03  0.32020528598E+03  0.26319876854E+03 0.  0.
         25    1    3    3    0    0  0.92390313888E+02  0.27951997189E+01  0.16128431495E+01  0.15554386071E+03  0.12509000000E+03 0.  0.
         25    1    4    4    0    0 -0.37043913237E+02 -0.11010241250E+02 -0.12145596387E+03  0.17858481509E+03  0.12509000000E+03 0.  0.
         25    1    4    4    0    0 -0.55346400651E+02  0.82150415309E+01 -0.35751065764E+02  0.14162047089E+03  0.12509000000E+03 0.  0.
<mgrwt>
<rscale>  2 0.44958614E+03</rscale>
<asrwt>0</asrwt>
<pdfrwt beam="1">  1       21 0.23540806E-01 0.44958614E+03</pdfrwt>
<pdfrwt beam="2">  1       21 0.46422303E-01 0.44958614E+03</pdfrwt>
<totfact> 0.69969480E+04</totfact>
</mgrwt>
</event>
<event>
 6    0  0.4725730E-002  0.4503641E+03  0.7546771E-02  0.1027614E+00
         21   -1    0    0  502  501  0.00000000000E+00  0.00000000000E+00  0.17408558136E+02  0.17408558136E+02  0.00000000000E+00 0. -1.
         21   -1    0    0  501  502 -0.00000000000E+00 -0.00000000000E+00 -0.29127597721E+04  0.29127597721E+04  0.00000000000E+00 0. -1.
      99926    2    1    2    0    0  0.00000000000E+00  0.00000000000E+00 -0.28953512139E+04  0.29301683302E+04  0.45036406530E+03 0.  0.
         25    1    3    3    0    0  0.18515844637E+02 -0.58396178659E+02 -0.99269846036E+03  0.10024224117E+04  0.12509000000E+03 0.  0.
         25    1    3    3    0    0  0.33389255595E+02  0.75195236966E+02 -0.61857671636E+03  0.63643839307E+03  0.12509000000E+03 0.  0.
         25    1    3    3    0    0 -0.51905100232E+02 -0.16799058307E+02 -0.12840760372E+04  0.12913075254E+04  0.12509000000E+03 0.  0.
<mgrwt>
<rscale>  2 0.45036407E+03</rscale>
<asrwt>0</asrwt>
<pdfrwt beam="1">  1       21 0.25600850E-02 0.45036407E+03</pdfrwt>
<pdfrwt beam="2">  1       21 0.42834654E+00 0.45036407E+03</pdfrwt>
<totfact> 0.37900561E+03</totfact>
</mgrwt>
</event>
<event>
 7    0  0.4725730E-002  0.4609621E+03  0.7546771E-02  0.1024503E+00
         21   -1    0    0  502  501  0.00000000000E+00  0.00000000000E+00  0.10842275056E+03  0.10842275056E+03  0.00000000000E+00 0.  1.
         21   -1    0    0  501  502 -0.00000000000E+00 -0.00000000000E+00 -0.48994800472E+03  0.48994800472E+03  0.00000000000E+00 0.  1.
      99926    2    1    2    0    0  0.00000000000E+00  0.00000000000E+00 -0.38152525416E+03  0.59837075527E+03  0.46096208218E+03 0.  0.
      99925    2    3    3    0    0 -0.79318159126E+02  0.33973815772E+02 -0.13311326264E+03  0.30716358476E+03  0.26302991577E+03 0.  0.
         25    1    4    4    0    0 -0.31823754219E+02  0.41683828765E+02 -0.32234460788E+02  0.13941614496E+03  0.12509000000E+03 0.  0.
         25    1    3    3    0    0  0.79318159126E+02 -0.33973815772E+02 -0.24841199152E+03  0.29120717051E+03  0.12509000000E+03 0.  0.
         25    1    4    4    0    0 -0.47494404907E+02 -0.77100129929E+01 -0.10087880185E+03  0.16774743980E+03  0.12509000000E+03 0.  0.
<mgrwt>
<rscale>  2 0.46096208E+03</rscale>
<asrwt>0</asrwt>
<pdfrwt beam="1">  1       21 0.15944522E-01 0.46096208E+03</pdfrwt>
<pdfrwt beam="2">  1       21 0.72051179E-01 0.46096208E+03</pdfrwt>
<totfact> 0.56089143E+04</totfact>
</mgrwt>
</event>
<event>
 7    0  0.4725730E-002  0.4532201E+03  0.7546771E-02  0.1026766E+00
         21   -1    0    0  502  501  0.00000000000E+00  0.00000000000E+00  0.28471161786E+03  0.28471161786E+03  0.00000000000E+00 0.  1.
         21   -1    0    0  501  502 -0.00000000000E+00 -0.00000000000E+00 -0.18036537483E+03  0.18036537483E+03  0.00000000000E+00 0.  1.
      99926    2    1    2    0    0  0.00000000000E+00  0.00000000000E+00  0.10434624302E+03  0.46507699269E+03  0.45322011286E+03 0.  0.
      99925    2    3    3    0    0 -0.19751364463E+02 -0.26632236030E+02 -0.43503895792E+02  0.26859146131E+03  0.26296271931E+03 0.  0.
         25    1    4    4    0    0  0.15645351109E+02 -0.23843967003E+02 -0.51647704526E+02  0.13830511652E+03  0.12509000000E+03 0.  0.
         25    1    3    3    0    0  0.19751364463E+02  0.26632236030E+02  0.14785013882E+03  0.19648553138E+03  0.12509000000E+03 0.  0.
         25    1    4    4    0    0 -0.35396715572E+02 -0.27882690276E+01  0.81438087335E+01  0.13028634479E+03  0.12509000000E+03 0.  0.
<mgrwt>
<rscale>  2 0.45322011E+03</rscale>
<asrwt>0</asrwt>
<pdfrwt beam="1">  1       21 0.41869356E-01 0.45322011E+03</pdfrwt>
<pdfrwt beam="2">  1       21 0.26524320E-01 0.45322011E+03</pdfrwt>
<totfact> 0.68769713E+04</totfact>
</mgrwt>
</event>
<event>
 7    0  0.4725730E-002  0.4545287E+03  0.7546771E-02  0.1026380E+00
         21   -1    0    0  502  501  0.00000000000E+00  0.00000000000E+00  0.35203823667E+03  0.35203823667E+03  0.00000000000E+00 0. -1.
         21   -1    0    0  501  502 -0.00000000000E+00 -0.00000000000E+00 -0.14671440587E+03  0.14671440587E+03  0.00000000000E+00 0. -1.
      99926    2    1    2    0    0 -0.14210854715E-13  0.00000000000E+00  0.20532383080E+03  0.49875264254E+03  0.45452868220E+03 0.  0.
      99925    2    3    3    0    0  0.10741568506E+03  0.19178332088E+02  0.16112564291E+03  0.32697684177E+03  0.26276690133E+03 0.  0.
         25    1    3    3    0    0 -0.10741568506E+03 -0.19178332088E+02  0.44198187895E+02  0.17177580077E+03  0.12509000000E+03 0.  0.
         25    1    4    4    0    0  0.95018984512E+02  0.44513363101E+01  0.10145065383E+03  0.18705123650E+03  0.12509000000E+03 0.  0.
         25    1    4    4    0    0  0.12396700543E+02  0.14726995778E+02  0.59674989075E+02  0.13992560527E+03  0.12509000000E+03 0.  0.
<mgrwt>
<rscale>  2 0.45452868E+03</rscale>
<asrwt>0</asrwt>
<pdfrwt beam="1">  1       21 0.51770329E-01 0.45452868E+03</pdfrwt>
<pdfrwt beam="2">  1       21 0.21575648E-01 0.45452868E+03</pdfrwt>
<totfact> 0.65603485E+04</totfact>
</mgrwt>
</event>
<event>
 7    0  0.4725730E-002  0.4457435E+03  0.7546771E-02  0.1028999E+00
         21   -1    0    0  502  501  0.00000000000E+00  0.00000000000E+00  0.24544532212E+02  0.24544532212E+02  0.00000000000E+00 0.  1.
         21   -1    0    0  501  502 -0.00000000000E+00 -0.00000000000E+00 -0.20237424318E+04  0.20237424318E+04  0.00000000000E+00 0.  1.
      99926    2    1    2    0    0 -0.22204460493E-15  0.00000000000E+00 -0.19991978996E+04  0.20482869641E+04  0.44574347469E+03 0.  0.
      99925    2    3    3    0    0 -0.11158798321E+01 -0.48183884936E+02 -0.83512614881E+03  0.87652185059E+03  0.26178605424E+03 0.  0.
         25    1    3    3    0    0  0.11158798321E+01  0.48183884936E+02 -0.11640717508E+04  0.11717651135E+04  0.12509000000E+03 0.  0.
         25    1    4    4    0    0  0.13079377475E+02 -0.47837838317E+02 -0.52126643026E+03  0.53835464919E+03  0.12509000000E+03 0.  0.
         25    1    4    4    0    0 -0.14195257307E+02 -0.34604661937E+00 -0.31385971855E+03  0.33816720140E+03  0.12509000000E+03 0.  0.
<mgrwt>
<rscale>  2 0.44574347E+03</rscale>
<asrwt>0</asrwt>
<pdfrwt beam="1">  1       21 0.36094891E-02 0.44574347E+03</pdfrwt>
<pdfrwt beam="2">  1       21 0.29760925E+00 0.44574347E+03</pdfrwt>
<totfact> 0.13910437E+04</totfact>
</mgrwt>
</event>
<event>
 7    0  0.4725730E-002  0.4547242E+03  0.7546771E-02  0.1026323E+00
         21   -1    0    0  502  501  0.00000000000E+00  0.00000000000E+00  0.88267429817E+02  0.88267429817E+02  0.00000000000E+00 0. -1.
         21   -1    0    0  501  502 -0.00000000000E+00 -0.00000000000E+00 -0.58564677685E+03  0.58564677685E+03  0.00000000000E+00 0. -1.
      99926    2    1    2    0    0 -0.14210854715E-13 -0.31086244690E-14 -0.49737934703E+03  0.67391420666E+03  0.45472424951E+03 0.  0.
      99925    2    3    3    0    0  0.95600382664E+02 -0.65962667579E+00 -0.22430335920E+03  0.35870337008E+03  0.26308979928E+03 0.  0.
         25    1    4    4    0    0  0.10637851921E+02 -0.21130411220E+02 -0.99918971048E+02  0.16183623527E+03  0.12509000000E+03 0.  0.
         25    1    3    3    0    0 -0.95600382664E+02  0.65962667579E+00 -0.27307598783E+03  0.31521083659E+03  0.12509000000E+03 0.  0.
         25    1    4    4    0    0  0.84962530743E+02  0.20470784544E+02 -0.12438438815E+03  0.19686713481E+03  0.12509000000E+03 0.  0.
<mgrwt>
<rscale>  2 0.45472425E+03</rscale>
<asrwt>0</asrwt>
<pdfrwt beam="1">  1       21 0.12980504E-01 0.45472425E+03</pdfrwt>
<pdfrwt beam="2">  1       21 0.86124526E-01 0.45472425E+03</pdfrwt>
<totfact> 0.54460859E+04</totfact>
</mgrwt>
</event>
<event>
 7    0  0.4725730E-002  0.4491436E+03  0.7546771E-02  0.1027978E+00
         21   -1    0    0  502  501  0.00000000000E+00  0.00000000000E+00  0.14196357023E+03  0.14196357023E+03  0.00000000000E+00 0.  1.
         21   -1    0    0  501  502 -0.00000000000E+00 -0.00000000000E+00 -0.35524957528E+03  0.35524957528E+03  0.00000000000E+00 0.  1.
      99926    2    1    2    0    0  0.88817841970E-15  0.00000000000E+00 -0.21328600504E+03  0.49721314551E+03  0.44914362082E+03 0.  0.
      99925    2    3    3    0    0 -0.69095223284E+01  0.91372795848E+02 -0.72520697995E+02  0.28778748068E+03  0.26299363696E+03 0.  0.
         25    1    3    3    0    0  0.69095223284E+01 -0.91372795848E+02 -0.14076530705E+03  0.20942566483E+03  0.12509000000E+03 0.  0.
         25    1    4    4    0    0  0.32590536789E+01  0.45069603812E+02 -0.77479899569E+02  0.15392379139E+03  0.12509000000E+03 0.  0.
         25    1    4    4    0    0 -0.10168576007E+02  0.46303192035E+02  0.49592015747E+01  0.13386368929E+03  0.12509000000E+03 0.  0.
<mgrwt>
<rscale>  2 0.44914362E+03</rscale>
<asrwt>0</asrwt>
<pdfrwt beam="1">  1       21 0.20876996E-01 0.44914362E+03</pdfrwt>
<pdfrwt beam="2">  1       21 0.52242584E-01 0.44914362E+03</pdfrwt>
<totfact> 0.68600956E+04</totfact>
</mgrwt>
</event>
<event>
 7    0  0.4725730E-002  0.4564752E+03  0.7546771E-02  0.1025808E+00
         21   -1    0    0  502  501  0.00000000000E+00  0.00000000000E+00  0.16299325038E+04  0.16299325038E+04  0.00000000000E+00 0.  1.
         21   -1    0    0  501  502 -0.00000000000E+00 -0.00000000000E+00 -0.31959858414E+02  0.31959858414E+02  0.00000000000E+00 0.  1.
      99926    2    1    2    0    0  0.00000000000E+00  0.17763568394E-14  0.15979726454E+04  0.16618923622E+04  0.45647524378E+03 0.  0.
      99925    2    3    3    0    0  0.10530101941E+03 -0.10651646809E+02  0.11630187411E+04  0.11970976019E+04  0.26311274016E+03 0.  0.
         25    1    4    4    0    0  0.20353369810E+02 -0.18736903884E+02  0.43374654882E+03  0.45227083472E+03  0.12509000000E+03 0.  0.
         25    1    3    3    0    0 -0.10530101941E+03  0.10651646809E+02  0.43495390428E+03  0.46479476032E+03  0.12509000000E+03 0.  0.
         25    1    4    4    0    0  0.84947649603E+02  0.80852570755E+01  0.72927219229E+03  0.74482676717E+03  0.12509000000E+03 0.  0.
<mgrwt>
<rscale>  2 0.45647524E+03</rscale>
<asrwt>0</asrwt>
<pdfrwt beam="1">  1       21 0.23969590E+00 0.45647524E+03</pdfrwt>
<pdfrwt beam="2">  1       21 0.46999803E-02 0.45647524E+03</pdfrwt>
<totfact> 0.19838437E+04</totfact>
</mgrwt>
</event>
<event>
 7    0  0.4725730E-002  0.4364912E+03  0.7546771E-02  0.1031829E+00
         21   -1    0    0  502  501  0.00000000000E+00  0.00000000000E+00  0.73649289546E+02  0.73649289546E+02  0.00000000000E+00 0. -1.
         21   -1    0    0  501  502 -0.00000000000E+00 -0.00000000000E+00 -0.64672902941E+03  0.64672902941E+03  0.00000000000E+00 0. -1.
      99926    2    1    2    0    0  0.14210854715E-13  0.00000000000E+00 -0.57307973986E+03  0.72037831895E+03  0.43649116163E+03 0.  0.
      99925    2    3    3    0    0 -0.92114211513E+02 -0.21204856145E+02 -0.37851730941E+03  0.47050490835E+03  0.26299209373E+03 0.  0.
         25    1    3    3    0    0  0.92114211513E+02  0.21204856145E+02 -0.19456243045E+03  0.24987341061E+03  0.12509000000E+03 0.  0.
         25    1    4    4    0    0 -0.79846662666E+02 -0.28429861031E+02 -0.23722700310E+03  0.28126127647E+03  0.12509000000E+03 0.  0.
         25    1    4    4    0    0 -0.12267548848E+02  0.72250048866E+01 -0.14129030631E+03  0.18924363188E+03  0.12509000000E+03 0.  0.
<mgrwt>
<rscale>  2 0.43649116E+03</rscale>
<asrwt>0</asrwt>
<pdfrwt beam="1">  1       21 0.10830778E-01 0.43649116E+03</pdfrwt>
<pdfrwt beam="2">  1       21 0.95107207E-01 0.43649116E+03</pdfrwt>
<totfact> 0.60092460E+04</totfact>
</mgrwt>
</event>
<event>
 7    0  0.4725730E-002  0.4542035E+03  0.7546771E-02  0.1026476E+00
         21   -1    0    0  502  501  0.00000000000E+00  0.00000000000E+00  0.21843254467E+03  0.21843254467E+03  0.00000000000E+00 0.  1.
         21   -1    0    0  501  502 -0.00000000000E+00 -0.00000000000E+00 -0.23611505529E+03  0.23611505529E+03  0.00000000000E+00 0.  1.
      99926    2    1    2    0    0  0.00000000000E+00  0.00000000000E+00 -0.17682510619E+02  0.45454759996E+03  0.45420353306E+03 0.  0.
      99925    2    3    3    0    0  0.72905583958E+02  0.64572690447E+02 -0.66952611822E+02  0.28853583081E+03  0.26322123187E+03 0.  0.
         25    1    4    4    0    0  0.81902179472E+01  0.61607423604E+02 -0.29260443483E+02  0.14271032186E+03  0.12509000000E+03 0.  0.
         25    1    3    3    0    0 -0.72905583958E+02 -0.64572690447E+02  0.49270101203E+02  0.16601176915E+03  0.12509000000E+03 0.  0.
         25    1    4    4    0    0  0.64715366011E+02  0.29652668428E+01 -0.37692168339E+02  0.14582550895E+03  0.12509000000E+03 0.  0.
<mgrwt>
<rscale>  2 0.45420353E+03</rscale>
<asrwt>0</asrwt>
<pdfrwt beam="1">  1       21 0.32122433E-01 0.45420353E+03</pdfrwt>
<pdfrwt beam="2">  1       21 0.34722802E-01 0.45420353E+03</pdfrwt>
<totfact> 0.69016519E+04</totfact>
</mgrwt>
</event>
<event>
 7    0  0.4725730E-002  0.4563032E+03  0.7546771E-02  0.1025859E+00
         21   -1    0    0  502  501  0.00000000000E+00  0.00000000000E+00  0.58060207423E+02  0.58060207423E+02  0.00000000000E+00 0. -1.
         21   -1    0    0  501  502 -0.00000000000E+00 -0.00000000000E+00 -0.89653737061E+03  0.89653737061E+03  0.00000000000E+00 0. -1.
      99926    2    1    2    0    0 -0.11102230246E-14  0.00000000000E+00 -0.83847716319E+03  0.95459757803E+03  0.45630316983E+03 0.  0.
      99925    2    3    3    0    0  0.16944404397E+01 -0.73189405230E+02 -0.71028664985E+03  0.76110371256E+03  0.26346190645E+03 0.  0.
         25    1    4    4    0    0 -0.32949910248E+02 -0.16238112246E+02 -0.30300858267E+03  0.32986524846E+03  0.12509000000E+03 0.  0.
         25    1    4    4    0    0  0.34644350688E+02 -0.56951292984E+02 -0.40727806718E+03  0.43123846410E+03  0.12509000000E+03 0.  0.
         25    1    3    3    0    0 -0.16944404397E+01  0.73189405230E+02 -0.12819051334E+03  0.19349386547E+03  0.12509000000E+03 0.  0.
<mgrwt>
<rscale>  2 0.45630317E+03</rscale>
<asrwt>0</asrwt>
<pdfrwt beam="1">  1       21 0.85382668E-02 0.45630317E+03</pdfrwt>
<pdfrwt beam="2">  1       21 0.13184371E+00 0.45630317E+03</pdfrwt>
<totfact> 0.40540525E+04</totfact>
</mgrwt>
</event>
<event>
 7    0  0.4725730E-002  0.4513871E+03  0.7546771E-02  0.1027309E+00
         21   -1    0    0  502  501  0.00000000000E+00  0.00000000000E+00  0.87014463652E+02  0.87014463652E+02  0.00000000000E+00 0. -1.
         21   -1    0    0  501  502 -0.00000000000E+00 -0.00000000000E+00 -0.58539202494E+03  0.58539202494E+03  0.00000000000E+00 0. -1.
      99926    2    1    2    0    0 -0.88817841970E-15  0.00000000000E+00 -0.49837756129E+03  0.67240648859E+03  0.45138707592E+03 0.  0.
      99925    2    3    3    0    0 -0.24815003070E+01 -0.10762828827E+03 -0.29265734442E+03  0.40866737126E+03  0.26414142578E+03 0.  0.
         25    1    3    3    0    0  0.24815003070E+01  0.10762828827E+03 -0.20572021687E+03  0.26373911733E+03  0.12509000000E+03 0.  0.
         25    1    4    4    0    0 -0.11773929851E+02 -0.98016396852E+02 -0.16841999058E+03  0.23185909687E+03  0.12509000000E+03 0.  0.
         25    1    4    4    0    0  0.92924295439E+01 -0.96118914223E+01 -0.12423735384E+03  0.17680827439E+03  0.12509000000E+03 0.  0.
<mgrwt>
<rscale>  2 0.45138708E+03</rscale>
<asrwt>0</asrwt>
<pdfrwt beam="1">  1       21 0.12796245E-01 0.45138708E+03</pdfrwt>
<pdfrwt beam="2">  1       21 0.86087061E-01 0.45138708E+03</pdfrwt>
<totfact> 0.56004382E+04</totfact>
</mgrwt>
</event>
<event>
 7    0  0.4725730E-002  0.4529323E+03  0.7546771E-02  0.1026851E+00
         21   -1    0    0  502  501  0.00000000000E+00  0.00000000000E+00  0.46201843327E+03  0.46201843327E+03  0.00000000000E+00 0.  1.
         21   -1    0    0  501  502 -0.00000000000E+00 -0.00000000000E+00 -0.11100619807E+03  0.11100619807E+03  0.00000000000E+00 0.  1.
      99926    2    1    2    0    0  0.44408920985E-15  0.00000000000E+00  0.35101223520E+03  0.57302463134E+03  0.45293226740E+03 0.  0.
      99925    2    3    3    0    0  0.34280865535E+01  0.70458147356E+02  0.11259169892E+03  0.29469396014E+03  0.26304284284E+03 0.  0.
         25    1    4    4    0    0  0.49561424936E+01  0.24984001065E+02  0.12728936542E+02  0.12828989665E+03  0.12509000000E+03 0.  0.
         25    1    3    3    0    0 -0.34280865535E+01 -0.70458147356E+02  0.23842053628E+03  0.27833067119E+03  0.12509000000E+03 0.  0.
         25    1    4    4    0    0 -0.15280559402E+01  0.45474146290E+02  0.99862762379E+02  0.16640406349E+03  0.12509000000E+03 0.  0.
<mgrwt>
<rscale>  2 0.45293227E+03</rscale>
<asrwt>0</asrwt>
<pdfrwt beam="1">  1       21 0.67943887E-01 0.45293227E+03</pdfrwt>
<pdfrwt beam="2">  1       21 0.16324441E-01 0.45293227E+03</pdfrwt>
<totfact> 0.61367385E+04</totfact>
</mgrwt>
</event>
<event>
 7    0  0.4725730E-002  0.3956323E+03  0.7546771E-02  0.1045303E+00
         21   -1    0    0  502  501  0.00000000000E+00  0.00000000000E+00  0.38927744461E+03  0.38927744461E+03  0.00000000000E+00 0.  1.
         21   -1    0    0  501  502 -0.00000000000E+00 -0.00000000000E+00 -0.10052274310E+03  0.10052274310E+03  0.00000000000E+00 0.  1.
      99926    2    1    2    0    0  0.17763568394E-14  0.71054273576E-14  0.28875470151E+03  0.48980018771E+03  0.39563233720E+03 0.  0.
      99925    2    3    3    0    0 -0.11116693727E+02 -0.34271414202E+02  0.18951179358E+03  0.32610909576E+03  0.26293404443E+03 0.  0.
         25    1    4    4    0    0  0.21203026470E+02 -0.34179963860E+02  0.64671159867E+02  0.14645035090E+03  0.12509000000E+03 0.  0.
         25    1    3    3    0    0  0.11116693727E+02  0.34271414202E+02  0.99242907930E+02  0.16369109195E+03  0.12509000000E+03 0.  0.
         25    1    4    4    0    0 -0.32319720198E+02 -0.91450342784E-01  0.12484063371E+03  0.17965874485E+03  0.12509000000E+03 0.  0.
<mgrwt>
<rscale>  2 0.39563234E+03</rscale>
<asrwt>0</asrwt>
<pdfrwt beam="1">  1       21 0.57246682E-01 0.39563234E+03</pdfrwt>
<pdfrwt beam="2">  1       21 0.14782757E-01 0.39563234E+03</pdfrwt>
<totfact> 0.10892263E+05</totfact>
</mgrwt>
</event>
<event>
 7    0  0.4725730E-002  0.4530222E+03  0.7546771E-02  0.1026825E+00
         21   -1    0    0  502  501  0.00000000000E+00  0.00000000000E+00  0.11863490255E+03  0.11863490255E+03  0.00000000000E+00 0.  1.
         21   -1    0    0  501  502 -0.00000000000E+00 -0.00000000000E+00 -0.43248039208E+03  0.43248039208E+03  0.00000000000E+00 0.  1.
      99926    2    1    2    0    0  0.00000000000E+00  0.00000000000E+00 -0.31384548953E+03  0.55111529463E+03  0.45302215914E+03 0.  0.
      99925    2    3    3    0    0 -0.30536535822E+02 -0.52458456754E+02 -0.31021284517E+03  0.41202872478E+03  0.26429394816E+03 0.  0.
         25    1    4    4    0    0 -0.36276201549E+02 -0.39873306317E+02 -0.21374792496E+03  0.25345912270E+03  0.12509000000E+03 0.  0.
         25    1    4    4    0    0  0.57396657268E+01 -0.12585150438E+02 -0.96464920204E+02  0.15856960208E+03  0.12509000000E+03 0.  0.
         25    1    3    3    0    0  0.30536535822E+02  0.52458456754E+02 -0.36326443600E+01  0.13908656984E+03  0.12509000000E+03 0.  0.
<mgrwt>
<rscale>  2 0.45302216E+03</rscale>
<asrwt>0</asrwt>
<pdfrwt beam="1">  1       21 0.17446310E-01 0.45302216E+03</pdfrwt>
<pdfrwt beam="2">  1       21 0.63600055E-01 0.45302216E+03</pdfrwt>
<totfact> 0.62769335E+04</totfact>
</mgrwt>
</event>
<event>
 7    0  0.4725730E-002  0.4533198E+03  0.7546771E-02  0.1026737E+00
         21   -1    0    0  502  501  0.00000000000E+00  0.00000000000E+00  0.65345665349E+02  0.65345665349E+02  0.00000000000E+00 0.  1.
         21   -1    0    0  501  502 -0.00000000000E+00 -0.00000000000E+00 -0.78619920938E+03  0.78619920938E+03  0.00000000000E+00 0.  1.
      99926    2    1    2    0    0  0.00000000000E+00  0.00000000000E+00 -0.72085354404E+03  0.85154487473E+03  0.45331980073E+03 0.  0.
      99925    2    3    3    0    0  0.56492724179E+02  0.93406894752E+02 -0.49873764818E+03  0.57423772523E+03  0.26285632482E+03 0.  0.
         25    1    3    3    0    0 -0.56492724179E+02 -0.93406894752E+02 -0.22211589586E+03  0.27730714950E+03  0.12509000000E+03 0.  0.
         25    1    4    4    0    0  0.67489145618E+02  0.58842948221E+02 -0.28771290845E+03  0.32625680548E+03  0.12509000000E+03 0.  0.
         25    1    4    4    0    0 -0.10996421439E+02  0.34563946532E+02 -0.21102473973E+03  0.24798091975E+03  0.12509000000E+03 0.  0.
<mgrwt>
<rscale>  2 0.45331980E+03</rscale>
<asrwt>0</asrwt>
<pdfrwt beam="1">  1       21 0.96096574E-02 0.45331980E+03</pdfrwt>
<pdfrwt beam="2">  1       21 0.11561752E+00 0.45331980E+03</pdfrwt>
<totfact> 0.45973293E+04</totfact>
</mgrwt>
</event>
<event>
 7    0  0.4725730E-002  0.4542099E+03  0.7546771E-02  0.1026474E+00
         21   -1    0    0  502  501  0.00000000000E+00  0.00000000000E+00  0.12478399039E+04  0.12478399039E+04  0.00000000000E+00 0.  1.
         21   -1    0    0  501  502 -0.00000000000E+00 -0.00000000000E+00 -0.41332750532E+02  0.41332750532E+02  0.00000000000E+00 0.  1.
      99926    2    1    2    0    0  0.00000000000E+00  0.14210854715E-13  0.12065071533E+04  0.12891726544E+04  0.45420988738E+03 0.  0.
      99925    2    3    3    0    0 -0.75662827537E+02  0.81389282411E+02  0.70743417835E+03  0.76279786281E+03  0.26277059204E+03 0.  0.
         25    1    3    3    0    0  0.75662827537E+02 -0.81389282411E+02  0.49907297497E+03  0.52637479158E+03  0.12509000000E+03 0.  0.
         25    1    4    4    0    0 -0.76763765718E+02  0.50066904609E+02  0.42181753107E+03  0.44941841115E+03  0.12509000000E+03 0.  0.
         25    1    4    4    0    0  0.11009381810E+01  0.31322377802E+02  0.28561664729E+03  0.31337945166E+03  0.12509000000E+03 0.  0.
<mgrwt>
<rscale>  2 0.45420989E+03</rscale>
<asrwt>0</asrwt>
<pdfrwt beam="1">  1       21 0.18350584E+00 0.45420989E+03</pdfrwt>
<pdfrwt beam="2">  1       21 0.60783465E-02 0.45420989E+03</pdfrwt>
<totfact> 0.29612380E+04</totfact>
</mgrwt>
</event>
<event>
 7    0  0.4725730E-002  0.4467240E+03  0.7546771E-02  0.1028704E+00
         21   -1    0    0  502  501  0.00000000000E+00  0.00000000000E+00  0.18517714437E+03  0.18517714437E+03  0.00000000000E+00 0. -1.
         21   -1    0    0  501  502 -0.00000000000E+00 -0.00000000000E+00 -0.26942080257E+03  0.26942080257E+03  0.00000000000E+00 0. -1.
      99926    2    1    2    0    0 -0.88817841970E-15  0.00000000000E+00 -0.84243658208E+02  0.45459794694E+03  0.44672396333E+03 0.  0.
      99925    2    3    3    0    0  0.52965147990E+01 -0.68868130657E+02 -0.13436634307E+03  0.30316920420E+03  0.26284288033E+03 0.  0.
         25    1    4    4    0    0  0.15329480017E+02 -0.48124234525E+02 -0.10908206590E+03  0.17348584988E+03  0.12509000000E+03 0.  0.
         25    1    3    3    0    0 -0.52965147990E+01  0.68868130657E+02  0.50122684858E+02  0.15142874274E+03  0.12509000000E+03 0.  0.
         25    1    4    4    0    0 -0.10032965219E+02 -0.20743896132E+02 -0.25284277165E+02  0.12968335433E+03  0.12509000000E+03 0.  0.
<mgrwt>
<rscale>  2 0.44672396E+03</rscale>
<asrwt>0</asrwt>
<pdfrwt beam="1">  1       21 0.27231933E-01 0.44672396E+03</pdfrwt>
<pdfrwt beam="2">  1       21 0.39620706E-01 0.44672396E+03</pdfrwt>
<totfact> 0.73293931E+04</totfact>
</mgrwt>
</event>
<event>
 7    0  0.4725730E-002  0.4554464E+03  0.7546771E-02  0.1026110E+00
         21   -1    0    0  502  501  0.00000000000E+00  0.00000000000E+00  0.12327057936E+03  0.12327057936E+03  0.00000000000E+00 0. -1.
         21   -1    0    0  501  502 -0.00000000000E+00 -0.00000000000E+00 -0.42068317009E+03  0.42068317009E+03  0.00000000000E+00 0. -1.
      99926    2    1    2    0    0 -0.17763568394E-14  0.00000000000E+00 -0.29741259072E+03  0.54395374945E+03  0.45544641004E+03 0.  0.
      99925    2    3    3    0    0 -0.12610875329E+02  0.67330924020E+02 -0.79191654635E+02  0.28326164647E+03  0.26319831818E+03 0.  0.
         25    1    4    4    0    0  0.14925087207E+02  0.61532902417E+02 -0.64100843128E+02  0.15416057375E+03  0.12509000000E+03 0.  0.
         25    1    4    4    0    0 -0.27535962536E+02  0.57980216025E+01 -0.15090811507E+02  0.12910107273E+03  0.12509000000E+03 0.  0.
         25    1    3    3    0    0  0.12610875329E+02 -0.67330924020E+02 -0.21822093609E+03  0.26069210297E+03  0.12509000000E+03 0.  0.
<mgrwt>
<rscale>  2 0.45544641E+03</rscale>
<asrwt>0</asrwt>
<pdfrwt beam="1">  1       21 0.18128027E-01 0.45544641E+03</pdfrwt>
<pdfrwt beam="2">  1       21 0.61865171E-01 0.45544641E+03</pdfrwt>
<totfact> 0.62048354E+04</totfact>
</mgrwt>
</event>
<event>
 7    0  0.4725730E-002  0.4555017E+03  0.7546771E-02  0.1026094E+00
         21   -1    0    0  502  501  0.00000000000E+00  0.00000000000E+00  0.20121677197E+03  0.20121677197E+03  0.00000000000E+00 0. -1.
         21   -1    0    0  501  502 -0.00000000000E+00 -0.00000000000E+00 -0.25778395114E+03  0.25778395114E+03  0.00000000000E+00 0. -1.
      99926    2    1    2    0    0 -0.14210854715E-13  0.00000000000E+00 -0.56567179175E+02  0.45900072311E+03  0.45550172124E+03 0.  0.
      99925    2    3    3    0    0 -0.10077545406E+03 -0.17017901580E+02  0.14464804200E+02  0.28254009896E+03  0.26301022003E+03 0.  0.
         25    1    4    4    0    0 -0.91460868145E+02 -0.22645224358E+02  0.84408748147E+01  0.15683320138E+03  0.12509000000E+03 0.  0.
         25    1    3    3    0    0  0.10077545406E+03  0.17017901580E+02 -0.71031983375E+02  0.17646062415E+03  0.12509000000E+03 0.  0.
         25    1    4    4    0    0 -0.93145859137E+01  0.56273227775E+01  0.60239293853E+01  0.12570689757E+03  0.12509000000E+03 0.  0.
<mgrwt>
<rscale>  2 0.45550172E+03</rscale>
<asrwt>0</asrwt>
<pdfrwt beam="1">  1       21 0.29590702E-01 0.45550172E+03</pdfrwt>
<pdfrwt beam="2">  1       21 0.37909405E-01 0.45550172E+03</pdfrwt>
<totfact> 0.67981007E+04</totfact>
</mgrwt>
</event>
<event>
 7    0  0.4725730E-002  0.4283150E+03  0.7546771E-02  0.1034394E+00
         21   -1    0    0  502  501  0.00000000000E+00  0.00000000000E+00  0.15218346207E+04  0.15218346207E+04  0.00000000000E+00 0.  1.
         21   -1    0    0  501  502 -0.00000000000E+00 -0.00000000000E+00 -0.30136934366E+02  0.30136934366E+02  0.00000000000E+00 0.  1.
      99926    2    1    2    0    0 -0.71054273576E-14  0.00000000000E+00  0.14916976864E+04  0.15519715551E+04  0.42831497793E+03 0.  0.
      99925    2    3    3    0    0  0.48304278482E+02 -0.46881900367E+02  0.11561353381E+04  0.11875805377E+04  0.26299695353E+03 0.  0.
         25    1    4    4    0    0  0.55186648374E+02 -0.74701333853E+01  0.68094851930E+03  0.69457883864E+03  0.12509000000E+03 0.  0.
         25    1    3    3    0    0 -0.48304278482E+02  0.46881900367E+02  0.33556234825E+03  0.36439101741E+03  0.12509000000E+03 0.  0.
         25    1    4    4    0    0 -0.68823698918E+01 -0.39411766982E+02  0.47518681881E+03  0.49300169904E+03  0.12509000000E+03 0.  0.
<mgrwt>
<rscale>  2 0.42831498E+03</rscale>
<asrwt>0</asrwt>
<pdfrwt beam="1">  1       21 0.22379916E+00 0.42831498E+03</pdfrwt>
<pdfrwt beam="2">  1       21 0.44319031E-02 0.42831498E+03</pdfrwt>
<totfact> 0.27879609E+04</totfact>
</mgrwt>
</event>
<event>
 7    0  0.4725730E-002  0.4529415E+03  0.7546771E-02  0.1026848E+00
         21   -1    0    0  502  501  0.00000000000E+00  0.00000000000E+00  0.48192973259E+02  0.48192973259E+02  0.00000000000E+00 0. -1.
         21   -1    0    0  501  502 -0.00000000000E+00 -0.00000000000E+00 -0.10642421904E+04  0.10642421904E+04  0.00000000000E+00 0. -1.
      99926    2    1    2    0    0  0.14210854715E-13 -0.35527136788E-14 -0.10160492172E+04  0.11124351637E+04  0.45294147712E+03 0.  0.
      99925    2    3    3    0    0 -0.10865455084E+03  0.89501761836E+01 -0.58725352457E+03  0.65265350772E+03  0.26306649720E+03 0.  0.
         25    1    4    4    0    0 -0.31430789539E+02 -0.28325530536E+02 -0.30143779290E+03  0.32909342336E+03  0.12509000000E+03 0.  0.
         25    1    4    4    0    0 -0.77223761300E+02  0.37275706720E+02 -0.28581573168E+03  0.32356008437E+03  0.12509000000E+03 0.  0.
         25    1    3    3    0    0  0.10865455084E+03 -0.89501761836E+01 -0.42879569261E+03  0.45978165597E+03  0.12509000000E+03 0.  0.
<mgrwt>
<rscale>  2 0.45294148E+03</rscale>
<asrwt>0</asrwt>
<pdfrwt beam="1">  1       21 0.70872024E-02 0.45294148E+03</pdfrwt>
<pdfrwt beam="2">  1       21 0.15650619E+00 0.45294148E+03</pdfrwt>
<totfact> 0.35629986E+04</totfact>
</mgrwt>
</event>
<event>
 7    0  0.4725730E-002  0.4563809E+03  0.7546771E-02  0.1025836E+00
         21   -1    0    0  502  501  0.00000000000E+00  0.00000000000E+00  0.82671345539E+02  0.82671345539E+02  0.00000000000E+00 0.  1.
         21   -1    0    0  501  502 -0.00000000000E+00 -0.00000000000E+00 -0.62985394167E+03  0.62985394167E+03  0.00000000000E+00 0.  1.
      99926    2    1    2    0    0 -0.14210854715E-13 -0.11102230246E-15 -0.54718259613E+03  0.71252528721E+03  0.45638086222E+03 0.  0.
      99925    2    3    3    0    0 -0.64732275198E+02  0.90787137655E+00 -0.19658142450E+03  0.33468963335E+03  0.26302433828E+03 0.  0.
         25    1    3    3    0    0  0.64732275198E+02 -0.90787137655E+00 -0.35060117163E+03  0.37783565386E+03  0.12509000000E+03 0.  0.
         25    1    4    4    0    0 -0.28666347607E+02 -0.14829601025E+02 -0.51354865104E+02  0.13901980730E+03  0.12509000000E+03 0.  0.
         25    1    4    4    0    0 -0.36065927591E+02  0.15737472402E+02 -0.14522655940E+03  0.19566982605E+03  0.12509000000E+03 0.  0.
<mgrwt>
<rscale>  2 0.45638086E+03</rscale>
<asrwt>0</asrwt>
<pdfrwt beam="1">  1       21 0.12157551E-01 0.45638086E+03</pdfrwt>
<pdfrwt beam="2">  1       21 0.92625580E-01 0.45638086E+03</pdfrwt>
<totfact> 0.51664656E+04</totfact>
</mgrwt>
</event>
<event>
 7    0  0.4725730E-002  0.4541459E+03  0.7546771E-02  0.1026493E+00
         21   -1    0    0  502  501  0.00000000000E+00  0.00000000000E+00  0.14329665151E+03  0.14329665151E+03  0.00000000000E+00 0. -1.
         21   -1    0    0  501  502 -0.00000000000E+00 -0.00000000000E+00 -0.35982780385E+03  0.35982780385E+03  0.00000000000E+00 0. -1.
      99926    2    1    2    0    0  0.35527136788E-14  0.14210854715E-13 -0.21653115234E+03  0.50312445536E+03  0.45414587706E+03 0.  0.
      99925    2    3    3    0    0 -0.26945391303E+02 -0.10849582729E+03 -0.14957498702E+03  0.32249213592E+03  0.26292794135E+03 0.  0.
         25    1    4    4    0    0  0.71851464665E+01 -0.60322416792E+02 -0.36337081033E+02  0.14372999637E+03  0.12509000000E+03 0.  0.
         25    1    3    3    0    0  0.26945391303E+02  0.10849582729E+03 -0.66956165314E+02  0.18063231943E+03  0.12509000000E+03 0.  0.
         25    1    4    4    0    0 -0.34130537769E+02 -0.48173410494E+02 -0.11323790599E+03  0.17876213956E+03  0.12509000000E+03 0.  0.
<mgrwt>
<rscale>  2 0.45414588E+03</rscale>
<asrwt>0</asrwt>
<pdfrwt beam="1">  1       21 0.21073037E-01 0.45414588E+03</pdfrwt>
<pdfrwt beam="2">  1       21 0.52915854E-01 0.45414588E+03</pdfrwt>
<totfact> 0.65494617E+04</totfact>
</mgrwt>
</event>
<event>
 7    0  0.4725730E-002  0.4607607E+03  0.7546771E-02  0.1024561E+00
         21   -1    0    0  502  501  0.00000000000E+00  0.00000000000E+00  0.18273104969E+03  0.18273104969E+03  0.00000000000E+00 0. -1.
         21   -1    0    0  501  502 -0.00000000000E+00 -0.00000000000E+00 -0.29045483349E+03  0.29045483349E+03  0.00000000000E+00 0. -1.
      99926    2    1    2    0    0  0.00000000000E+00  0.00000000000E+00 -0.10772378381E+03  0.47318588318E+03  0.46076074751E+03 0.  0.
      99925    2    3    3    0    0  0.68688552902E+02 -0.92935207747E+02 -0.40441682261E+02  0.29007537166E+03  0.26296981090E+03 0.  0.
         25    1    3    3    0    0 -0.68688552902E+02  0.92935207747E+02 -0.67282101548E+02  0.18311051152E+03  0.12509000000E+03 0.  0.
         25    1    4    4    0    0  0.20330319056E+02 -0.88610270715E+01 -0.34658872705E+02  0.13168365590E+03  0.12509000000E+03 0.  0.
         25    1    4    4    0    0  0.48358233845E+02 -0.84074180676E+02 -0.57828095554E+01  0.15839171577E+03  0.12509000000E+03 0.  0.
<mgrwt>
<rscale>  2 0.46076075E+03</rscale>
<asrwt>0</asrwt>
<pdfrwt beam="1">  1       21 0.26872214E-01 0.46076075E+03</pdfrwt>
<pdfrwt beam="2">  1       21 0.42713945E-01 0.46076075E+03</pdfrwt>
<totfact> 0.64214546E+04</totfact>
</mgrwt>
</event>
<event>
 7    0  0.4725730E-002  0.4530125E+03  0.7546771E-02  0.1026827E+00
         21   -1    0    0  502  501  0.00000000000E+00  0.00000000000E+00  0.35692156943E+03  0.35692156943E+03  0.00000000000E+00 0. -1.
         21   -1    0    0  501  502 -0.00000000000E+00 -0.00000000000E+00 -0.14374327351E+03  0.14374327351E+03  0.00000000000E+00 0. -1.
      99926    2    1    2    0    0 -0.14210854715E-13 -0.71054273576E-14  0.21317829593E+03  0.50066484294E+03  0.45301247124E+03 0.  0.
      99925    2    3    3    0    0 -0.97019138770E+02 -0.53857604466E+02  0.12436436360E+03  0.31132710892E+03  0.26295383429E+03 0.  0.
         25    1    4    4    0    0 -0.36787839332E+02  0.38065452893E+01  0.30058187190E+02  0.13386126261E+03  0.12509000000E+03 0.  0.
         25    1    3    3    0    0  0.97019138770E+02  0.53857604466E+02  0.88813932330E+02  0.18933773402E+03  0.12509000000E+03 0.  0.
         25    1    4    4    0    0 -0.60231299438E+02 -0.57664149755E+02  0.94306176406E+02  0.17746584631E+03  0.12509000000E+03 0.  0.
<mgrwt>
<rscale>  2 0.45301247E+03</rscale>
<asrwt>0</asrwt>
<pdfrwt beam="1">  1       21 0.52488466E-01 0.45301247E+03</pdfrwt>
<pdfrwt beam="2">  1       21 0.21138717E-01 0.45301247E+03</pdfrwt>
<totfact> 0.66263235E+04</totfact>
</mgrwt>
</event>
<event>
 7    0  0.4725730E-002  0.4522864E+03  0.7546771E-02  0.1027042E+00
         21   -1    0    0  502  501  0.00000000000E+00  0.00000000000E+00  0.53640345048E+03  0.53640345048E+03  0.00000000000E+00 0.  1.
         21   -1    0    0  501  502 -0.00000000000E+00 -0.00000000000E+00 -0.95340090933E+02  0.95340090933E+02  0.00000000000E+00 0.  1.
      99926    2    1    2    0    0  0.14210854715E-13  0.00000000000E+00  0.44106335955E+03  0.63174354142E+03  0.45228643024E+03 0.  0.
      99925    2    3    3    0    0 -0.64751072194E+02  0.88991631848E+02  0.26140646991E+03  0.38672044458E+03  0.26288238407E+03 0.  0.
         25    1    3    3    0    0  0.64751072194E+02 -0.88991631848E+02  0.17965688964E+03  0.24502309684E+03  0.12509000000E+03 0.  0.
         25    1    4    4    0    0  0.54885498321E+00  0.44361294429E+02  0.15709255970E+03  0.20565457957E+03  0.12509000000E+03 0.  0.
         25    1    4    4    0    0 -0.65299927177E+02  0.44630337418E+02  0.10431391021E+03  0.18106586501E+03  0.12509000000E+03 0.  0.
<mgrwt>
<rscale>  2 0.45228643E+03</rscale>
<asrwt>0</asrwt>
<pdfrwt beam="1">  1       21 0.78882859E-01 0.45228643E+03</pdfrwt>
<pdfrwt beam="2">  1       21 0.14020602E-01 0.45228643E+03</pdfrwt>
<totfact> 0.57998039E+04</totfact>
</mgrwt>
</event>
<event>
 7    0  0.4725730E-002  0.4575330E+03  0.7546771E-02  0.1025499E+00
         21   -1    0    0  502  501  0.00000000000E+00  0.00000000000E+00  0.40455293832E+02  0.40455293832E+02  0.00000000000E+00 0. -1.
         21   -1    0    0  501  502 -0.00000000000E+00 -0.00000000000E+00 -0.12936281274E+04  0.12936281274E+04  0.00000000000E+00 0. -1.
      99926    2    1    2    0    0  0.00000000000E+00  0.00000000000E+00 -0.12531728335E+04  0.13340834212E+04  0.45753297587E+03 0.  0.
      99925    2    3    3    0    0  0.51483489796E+02  0.83937123915E+02 -0.61078204386E+03  0.67226061617E+03  0.26302783211E+03 0.  0.
         25    1    3    3    0    0 -0.51483489796E+02 -0.83937123915E+02 -0.64239078967E+03  0.66182280502E+03  0.12509000000E+03 0.  0.
         25    1    4    4    0    0 -0.12492905941E+02  0.38868597064E+02 -0.25106215739E+03  0.28345467982E+03  0.12509000000E+03 0.  0.
         25    1    4    4    0    0  0.63976395737E+02  0.45068526851E+02 -0.35971988647E+03  0.38880593635E+03  0.12509000000E+03 0.  0.
<mgrwt>
<rscale>  2 0.45753298E+03</rscale>
<asrwt>0</asrwt>
<pdfrwt beam="1">  1       21 0.59493087E-02 0.45753298E+03</pdfrwt>
<pdfrwt beam="2">  1       21 0.19023940E+00 0.45753298E+03</pdfrwt>
<totfact> 0.27593288E+04</totfact>
</mgrwt>
</event>
<event>
 7    0  0.4725730E-002  0.4548270E+03  0.7546771E-02  0.1026292E+00
         21   -1    0    0  502  501  0.00000000000E+00  0.00000000000E+00  0.62493305902E+02  0.62493305902E+02  0.00000000000E+00 0.  1.
         21   -1    0    0  501  502 -0.00000000000E+00 -0.00000000000E+00 -0.82755899749E+03  0.82755899749E+03  0.00000000000E+00 0.  1.
      99926    2    1    2    0    0  0.00000000000E+00  0.35527136788E-14 -0.76506569158E+03  0.89005230339E+03  0.45482698945E+03 0.  0.
      99925    2    3    3    0    0 -0.78761444853E+02  0.25191159367E+02 -0.63229819671E+03  0.68977081273E+03  0.26295399755E+03 0.  0.
         25    1    4    4    0    0 -0.24563201640E+02 -0.23023400677E+02 -0.33493013978E+03  0.35910880592E+03  0.12509000000E+03 0.  0.
         25    1    4    4    0    0 -0.54198243213E+02  0.48214560044E+02 -0.29736805693E+03  0.33066200681E+03  0.12509000000E+03 0.  0.
         25    1    3    3    0    0  0.78761444853E+02 -0.25191159367E+02 -0.13276749488E+03  0.20028149066E+03  0.12509000000E+03 0.  0.
<mgrwt>
<rscale>  2 0.45482699E+03</rscale>
<asrwt>0</asrwt>
<pdfrwt beam="1">  1       21 0.91901928E-02 0.45482699E+03</pdfrwt>
<pdfrwt beam="2">  1       21 0.12169984E+00 0.45482699E+03</pdfrwt>
<totfact> 0.43725800E+04</totfact>
</mgrwt>
</event>
<event>
 7    0  0.4725730E-002  0.4563430E+03  0.7546771E-02  0.1025847E+00
         21   -1    0    0  502  501  0.00000000000E+00  0.00000000000E+00  0.20982404808E+03  0.20982404808E+03  0.00000000000E+00 0.  1.
         21   -1    0    0  501  502 -0.00000000000E+00 -0.00000000000E+00 -0.24812330007E+03  0.24812330007E+03  0.00000000000E+00 0.  1.
      99926    2    1    2    0    0  0.00000000000E+00 -0.35527136788E-14 -0.38299251992E+02  0.45794734815E+03  0.45634300802E+03 0.  0.
      99925    2    3    3    0    0  0.35583745493E+02 -0.23545157707E+02 -0.13054075370E+03  0.29677483147E+03  0.26308522349E+03 0.  0.
         25    1    3    3    0    0 -0.35583745493E+02  0.23545157707E+02  0.92241501711E+02  0.16117251668E+03  0.12509000000E+03 0.  0.
         25    1    4    4    0    0  0.36880558936E+01  0.61981653392E+01 -0.10126776056E+03  0.16110458230E+03  0.12509000000E+03 0.  0.
         25    1    4    4    0    0  0.31895689599E+02 -0.29743323046E+02 -0.29272993139E+02  0.13567024916E+03  0.12509000000E+03 0.  0.
<mgrwt>
<rscale>  2 0.45634301E+03</rscale>
<asrwt>0</asrwt>
<pdfrwt beam="1">  1       21 0.30856478E-01 0.45634301E+03</pdfrwt>
<pdfrwt beam="2">  1       21 0.36488720E-01 0.45634301E+03</pdfrwt>
<totfact> 0.67603132E+04</totfact>
</mgrwt>
</event>
<event>
 7    0  0.4725730E-002  0.4693582E+03  0.7546771E-02  0.1022102E+00
         21   -1    0    0  502  501  0.00000000000E+00  0.00000000000E+00  0.54067928788E+03  0.54067928788E+03  0.00000000000E+00 0.  1.
         21   -1    0    0  501  502 -0.00000000000E+00 -0.00000000000E+00 -0.10186126008E+03  0.10186126008E+03  0.00000000000E+00 0.  1.
      99926    2    1    2    0    0  0.00000000000E+00  0.00000000000E+00  0.43881802781E+03  0.64254054796E+03  0.46935817266E+03 0.  0.
      99925    2    3    3    0    0 -0.10256711667E+03 -0.50957863800E+02  0.20041665912E+03  0.34996673164E+03  0.26304592507E+03 0.  0.
         25    1    4    4    0    0 -0.78237597559E+01 -0.20004222361E+02  0.91296890407E+02  0.15634580400E+03  0.12509000000E+03 0.  0.
         25    1    4    4    0    0 -0.94743356914E+02 -0.30953641439E+02  0.10911976871E+03  0.19362092764E+03  0.12509000000E+03 0.  0.
         25    1    3    3    0    0  0.10256711667E+03  0.50957863800E+02  0.23840136868E+03  0.29257381632E+03  0.12509000000E+03 0.  0.
<mgrwt>
<rscale>  2 0.46935817E+03</rscale>
<asrwt>0</asrwt>
<pdfrwt beam="1">  1       21 0.79511659E-01 0.46935817E+03</pdfrwt>
<pdfrwt beam="2">  1       21 0.14979597E-01 0.46935817E+03</pdfrwt>
<totfact> 0.50198732E+04</totfact>
</mgrwt>
</event>
<event>
 7    0  0.4725730E-002  0.4538866E+03  0.7546771E-02  0.1026569E+00
         21   -1    0    0  502  501  0.00000000000E+00  0.00000000000E+00  0.66980327515E+03  0.66980327515E+03  0.00000000000E+00 0. -1.
         21   -1    0    0  501  502 -0.00000000000E+00 -0.00000000000E+00 -0.76893118210E+02  0.76893118210E+02  0.00000000000E+00 0. -1.
      99926    2    1    2    0    0  0.14210854715E-13  0.71054273576E-14  0.59291015694E+03  0.74669639336E+03  0.45388660440E+03 0.  0.
      99925    2    3    3    0    0  0.10111444866E+03  0.43404762304E+02  0.33768405981E+03  0.44190798499E+03  0.26295253912E+03 0.  0.
         25    1    3    3    0    0 -0.10111444866E+03 -0.43404762304E+02  0.25522609712E+03  0.30478840836E+03  0.12509000000E+03 0.  0.
         25    1    4    4    0    0  0.69214991100E+02  0.42107340555E+02  0.22861261140E+03  0.27290103941E+03  0.12509000000E+03 0.  0.
         25    1    4    4    0    0  0.31899457560E+02  0.12974217484E+01  0.10907144841E+03  0.16900694558E+03  0.12509000000E+03 0.  0.
<mgrwt>
<rscale>  2 0.45388660E+03</rscale>
<asrwt>0</asrwt>
<pdfrwt beam="1">  1       21 0.98500479E-01 0.45388660E+03</pdfrwt>
<pdfrwt beam="2">  1       21 0.11307812E-01 0.45388660E+03</pdfrwt>
<totfact> 0.50883729E+04</totfact>
</mgrwt>
</event>
<event>
 7    0  0.4725730E-002  0.4035972E+03  0.7546771E-02  0.1042541E+00
         21   -1    0    0  502  501  0.00000000000E+00  0.00000000000E+00  0.12636986965E+03  0.12636986965E+03  0.00000000000E+00 0.  1.
         21   -1    0    0  501  502 -0.00000000000E+00 -0.00000000000E+00 -0.32224993601E+03  0.32224993601E+03  0.00000000000E+00 0.  1.
      99926    2    1    2    0    0  0.00000000000E+00  0.00000000000E+00 -0.19588006636E+03  0.44861980567E+03  0.40359723691E+03 0.  0.
      99925    2    3    3    0    0  0.23269451944E+02 -0.22779223297E+02 -0.17527940287E+03  0.31772956217E+03  0.26299970570E+03 0.  0.
         25    1    3    3    0    0 -0.23269451944E+02  0.22779223297E+02 -0.20600663490E+02  0.13089024350E+03  0.12509000000E+03 0.  0.
         25    1    4    4    0    0  0.50415741605E+02  0.70265864531E+00 -0.89602339212E+02  0.16192074612E+03  0.12509000000E+03 0.  0.
         25    1    4    4    0    0 -0.27146289661E+02 -0.23481881943E+02 -0.85677063656E+02  0.15580881605E+03  0.12509000000E+03 0.  0.
<mgrwt>
<rscale>  2 0.40359724E+03</rscale>
<asrwt>0</asrwt>
<pdfrwt beam="1">  1       21 0.18583805E-01 0.40359724E+03</pdfrwt>
<pdfrwt beam="2">  1       21 0.47389696E-01 0.40359724E+03</pdfrwt>
<totfact> 0.10621442E+05</totfact>
</mgrwt>
</event>
<event>
 7    0  0.4725730E-002  0.4544765E+03  0.7546771E-02  0.1026395E+00
         21   -1    0    0  502  501  0.00000000000E+00  0.00000000000E+00  0.31588217086E+03  0.31588217086E+03  0.00000000000E+00 0.  1.
         21   -1    0    0  501  502 -0.00000000000E+00 -0.00000000000E+00 -0.16346985290E+03  0.16346985290E+03  0.00000000000E+00 0.  1.
      99926    2    1    2    0    0  0.00000000000E+00 -0.53290705182E-14  0.15241231796E+03  0.47935202376E+03  0.45447645485E+03 0.  0.
      99925    2    3    3    0    0 -0.10919255973E+03 -0.15009738848E+02  0.71379490028E+02  0.29398176006E+03  0.26302459255E+03 0.  0.
         25    1    3    3    0    0  0.10919255973E+03  0.15009738848E+02  0.81032827928E+02  0.18537026370E+03  0.12509000000E+03 0.  0.
         25    1    4    4    0    0 -0.72153319506E+02  0.25954106174E+02  0.53061492966E+02  0.15602162440E+03  0.12509000000E+03 0.  0.
         25    1    4    4    0    0 -0.37039240229E+02 -0.40963845023E+02  0.18317997061E+02  0.13796013566E+03  0.12509000000E+03 0.  0.
<mgrwt>
<rscale>  2 0.45447645E+03</rscale>
<asrwt>0</asrwt>
<pdfrwt beam="1">  1       21 0.46453260E-01 0.45447645E+03</pdfrwt>
<pdfrwt beam="2">  1       21 0.24039684E-01 0.45447645E+03</pdfrwt>
<totfact> 0.67025390E+04</totfact>
</mgrwt>
</event>
<event>
 7    0  0.4725730E-002  0.4535104E+03  0.7546771E-02  0.1026680E+00
         21   -1    0    0  502  501  0.00000000000E+00  0.00000000000E+00  0.25812785823E+03  0.25812785823E+03  0.00000000000E+00 0.  1.
         21   -1    0    0  501  502 -0.00000000000E+00 -0.00000000000E+00 -0.19919558172E+03  0.19919558172E+03  0.00000000000E+00 0.  1.
      99926    2    1    2    0    0  0.00000000000E+00  0.00000000000E+00  0.58932276501E+02  0.45732343995E+03  0.45351043595E+03 0.  0.
      99925    2    3    3    0    0  0.87629248145E+02  0.41753350592E+02 -0.18740409171E+02  0.28096363269E+03  0.26299644968E+03 0.  0.
         25    1    3    3    0    0 -0.87629248145E+02 -0.41753350592E+02  0.77672685672E+02  0.17635980726E+03  0.12509000000E+03 0.  0.
         25    1    4    4    0    0  0.29461099754E+02  0.30872311511E+02 -0.45957662624E+02  0.13993095037E+03  0.12509000000E+03 0.  0.
         25    1    4    4    0    0  0.58168148390E+02  0.10881039081E+02  0.27217253452E+02  0.14103268233E+03  0.12509000000E+03 0.  0.
<mgrwt>
<rscale>  2 0.45351044E+03</rscale>
<asrwt>0</asrwt>
<pdfrwt beam="1">  1       21 0.37959979E-01 0.45351044E+03</pdfrwt>
<pdfrwt beam="2">  1       21 0.29293468E-01 0.45351044E+03</pdfrwt>
<totfact> 0.69194373E+04</totfact>
</mgrwt>
</event>
<event>
 7    0  0.4725730E-002  0.4559326E+03  0.7546771E-02  0.1025968E+00
         21   -1    0    0  502  501  0.00000000000E+00  0.00000000000E+00  0.36583652464E+03  0.36583652464E+03  0.00000000000E+00 0. -1.
         21   -1    0    0  501  502 -0.00000000000E+00 -0.00000000000E+00 -0.14205426232E+03  0.14205426232E+03  0.00000000000E+00 0. -1.
      99926    2    1    2    0    0  0.00000000000E+00  0.00000000000E+00  0.22378226232E+03  0.50789078696E+03  0.45593261624E+03 0.  0.
      99925    2    3    3    0    0  0.10598300395E+03 -0.42671599578E+02  0.14279848859E+03  0.32011660810E+03  0.26273555508E+03 0.  0.
         25    1    3    3    0    0 -0.10598300395E+03  0.42671599578E+02  0.80983773726E+02  0.18777417885E+03  0.12509000000E+03 0.  0.
         25    1    4    4    0    0  0.80682684911E+02  0.73379249957E+01  0.65964609732E+02  0.16297968777E+03  0.12509000000E+03 0.  0.
         25    1    4    4    0    0  0.25300319041E+02 -0.50009524573E+02  0.76833878860E+02  0.15713692033E+03  0.12509000000E+03 0.  0.
<mgrwt>
<rscale>  2 0.45593262E+03</rscale>
<asrwt>0</asrwt>
<pdfrwt beam="1">  1       21 0.53799489E-01 0.45593262E+03</pdfrwt>
<pdfrwt beam="2">  1       21 0.20890333E-01 0.45593262E+03</pdfrwt>
<totfact> 0.64242942E+04</totfact>
</mgrwt>
</event>
<event>
 7    0  0.4725730E-002  0.4462118E+03  0.7546771E-02  0.1028858E+00
         21   -1    0    0  502  501  0.00000000000E+00  0.00000000000E+00  0.11954865251E+03  0.11954865251E+03  0.00000000000E+00 0. -1.
         21   -1    0    0  501  502 -0.00000000000E+00 -0.00000000000E+00 -0.41636801595E+03  0.41636801595E+03  0.00000000000E+00 0. -1.
      99926    2    1    2    0    0 -0.17763568394E-14  0.00000000000E+00 -0.29681936344E+03  0.53591666847E+03  0.44621176702E+03 0.  0.
      99925    2    3    3    0    0 -0.78497017170E+01 -0.91297350534E+02 -0.24933470256E+03  0.37374661837E+03  0.26291047299E+03 0.  0.
         25    1    4    4    0    0 -0.31751078512E+02 -0.54670865269E+02 -0.16577996643E+03  0.21708878337E+03  0.12509000000E+03 0.  0.
         25    1    4    4    0    0  0.23901376795E+02 -0.36626485265E+02 -0.83554736133E+02  0.15665783500E+03  0.12509000000E+03 0.  0.
         25    1    3    3    0    0  0.78497017170E+01  0.91297350534E+02 -0.47484660881E+02  0.16217005010E+03  0.12509000000E+03 0.  0.
<mgrwt>
<rscale>  2 0.44621177E+03</rscale>
<asrwt>0</asrwt>
<pdfrwt beam="1">  1       21 0.17580684E-01 0.44621177E+03</pdfrwt>
<pdfrwt beam="2">  1       21 0.61230591E-01 0.44621177E+03</pdfrwt>
<totfact> 0.67372093E+04</totfact>
</mgrwt>
</event>
<event>
 7    0  0.4725730E-002  0.4565576E+03  0.7546771E-02  0.1025784E+00
         21   -1    0    0  502  501  0.00000000000E+00  0.00000000000E+00  0.15080093268E+03  0.15080093268E+03  0.00000000000E+00 0.  1.
         21   -1    0    0  501  502 -0.00000000000E+00 -0.00000000000E+00 -0.34556292697E+03  0.34556292697E+03  0.00000000000E+00 0.  1.
      99926    2    1    2    0    0  0.00000000000E+00  0.14210854715E-13 -0.19476199429E+03  0.49636385965E+03  0.45655760507E+03 0.  0.
      99925    2    3    3    0    0  0.16332997196E+01 -0.11378134495E+03 -0.14187657216E+03  0.31918248901E+03  0.26229684985E+03 0.  0.
         25    1    4    4    0    0  0.93175616637E+00 -0.54421486012E+02 -0.26539330129E+02  0.13897629457E+03  0.12509000000E+03 0.  0.
         25    1    3    3    0    0 -0.16332997196E+01  0.11378134495E+03 -0.52885422137E+02  0.17718137064E+03  0.12509000000E+03 0.  0.
         25    1    4    4    0    0  0.70154355328E+00 -0.59359858938E+02 -0.11533724203E+03  0.18020619444E+03  0.12509000000E+03 0.  0.
<mgrwt>
<rscale>  2 0.45655761E+03</rscale>
<asrwt>0</asrwt>
<pdfrwt beam="1">  1       21 0.22176608E-01 0.45655761E+03</pdfrwt>
<pdfrwt beam="2">  1       21 0.50818077E-01 0.45655761E+03</pdfrwt>
<totfact> 0.64722858E+04</totfact>
</mgrwt>
</event>
<event>
 7    0  0.4725730E-002  0.4464019E+03  0.7546771E-02  0.1028800E+00
         21   -1    0    0  502  501  0.00000000000E+00  0.00000000000E+00  0.49176539540E+03  0.49176539540E+03  0.00000000000E+00 0.  1.
         21   -1    0    0  501  502 -0.00000000000E+00 -0.00000000000E+00 -0.10130577339E+03  0.10130577339E+03  0.00000000000E+00 0.  1.
      99926    2    1    2    0    0 -0.71054273576E-14 -0.14210854715E-13  0.39045962201E+03  0.59307116879E+03  0.44640194313E+03 0.  0.
      99925    2    3    3    0    0 -0.54231123674E+02 -0.81101537952E+02  0.19637734832E+03  0.34240423581E+03  0.26297932149E+03 0.  0.
         25    1    3    3    0    0  0.54231123674E+02  0.81101537952E+02  0.19408227368E+03  0.25066693298E+03  0.12509000000E+03 0.  0.
         25    1    4    4    0    0 -0.84381673416E+01 -0.32921341065E+01  0.75206681235E+02  0.14623814078E+03  0.12509000000E+03 0.  0.
         25    1    4    4    0    0 -0.45792956332E+02 -0.77809403845E+02  0.12117066709E+03  0.19616609503E+03  0.12509000000E+03 0.  0.
<mgrwt>
<rscale>  2 0.44640194E+03</rscale>
<asrwt>0</asrwt>
<pdfrwt beam="1">  1       21 0.72318439E-01 0.44640194E+03</pdfrwt>
<pdfrwt beam="2">  1       21 0.14897908E-01 0.44640194E+03</pdfrwt>
<totfact> 0.63299368E+04</totfact>
</mgrwt>
</event>
<event>
 7    0  0.4725730E-002  0.4499291E+03  0.7546771E-02  0.1027743E+00
         21   -1    0    0  502  501  0.00000000000E+00  0.00000000000E+00  0.83997841434E+02  0.83997841434E+02  0.00000000000E+00 0. -1.
         21   -1    0    0  501  502 -0.00000000000E+00 -0.00000000000E+00 -0.60250424904E+03  0.60250424904E+03  0.00000000000E+00 0. -1.
      99926    2    1    2    0    0  0.00000000000E+00  0.17763568394E-14 -0.51850640760E+03  0.68650209047E+03  0.44992913386E+03 0.  0.
      99925    2    3    3    0    0  0.97499250485E+02  0.14996926896E+02 -0.25970692193E+03  0.38260129491E+03  0.26306853461E+03 0.  0.
         25    1    3    3    0    0 -0.97499250485E+02 -0.14996926896E+02 -0.25879948567E+03  0.30390079556E+03  0.12509000000E+03 0.  0.
         25    1    4    4    0    0  0.82624232228E+02 -0.18502908771E+01 -0.17206645331E+03  0.22822041930E+03  0.12509000000E+03 0.  0.
         25    1    4    4    0    0  0.14875018257E+02  0.16847217773E+02 -0.87640468620E+02  0.15438087561E+03  0.12509000000E+03 0.  0.
<mgrwt>
<rscale>  2 0.44992913E+03</rscale>
<asrwt>0</asrwt>
<pdfrwt beam="1">  1       21 0.12352624E-01 0.44992913E+03</pdfrwt>
<pdfrwt beam="2">  1       21 0.88603566E-01 0.44992913E+03</pdfrwt>
<totfact> 0.55838081E+04</totfact>
</mgrwt>
</event>
<event>
 7    0  0.4725730E-002  0.4524245E+03  0.7546771E-02  0.1027001E+00
         21   -1    0    0  502  501  0.00000000000E+00  0.00000000000E+00  0.96479252640E+02  0.96479252640E+02  0.00000000000E+00 0. -1.
         21   -1    0    0  501  502 -0.00000000000E+00 -0.00000000000E+00 -0.53039367193E+03  0.53039367193E+03  0.00000000000E+00 0. -1.
      99926    2    1    2    0    0  0.00000000000E+00  0.14210854715E-13 -0.43391441929E+03  0.62687292457E+03  0.45242451336E+03 0.  0.
      99925    2    3    3    0    0  0.60649754362E+01 -0.11000506394E+03 -0.25858770941E+03  0.38495380314E+03  0.26302838073E+03 0.  0.
         25    1    4    4    0    0 -0.35406713189E+00 -0.96350314193E+02 -0.12560715455E+03  0.20176266697E+03  0.12509000000E+03 0.  0.
         25    1    3    3    0    0 -0.60649754362E+01  0.11000506394E+03 -0.17532670988E+03  0.24191912144E+03  0.12509000000E+03 0.  0.
         25    1    4    4    0    0  0.64190425681E+01 -0.13654749747E+02 -0.13298055486E+03  0.18319113617E+03  0.12509000000E+03 0.  0.
<mgrwt>
<rscale>  2 0.45242451E+03</rscale>
<asrwt>0</asrwt>
<pdfrwt beam="1">  1       21 0.14188125E-01 0.45242451E+03</pdfrwt>
<pdfrwt beam="2">  1       21 0.77999069E-01 0.45242451E+03</pdfrwt>
<totfact> 0.58228870E+04</totfact>
</mgrwt>
</event>
<event>
 7    0  0.4725730E-002  0.4414987E+03  0.7546771E-02  0.1030288E+00
         21   -1    0    0  502  501  0.00000000000E+00  0.00000000000E+00  0.56345380353E+02  0.56345380353E+02  0.00000000000E+00 0.  1.
         21   -1    0    0  501  502 -0.00000000000E+00 -0.00000000000E+00 -0.86484938428E+03  0.86484938428E+03  0.00000000000E+00 0.  1.
      99926    2    1    2    0    0  0.00000000000E+00  0.00000000000E+00 -0.80850400393E+03  0.92119476463E+03  0.44149866367E+03 0.  0.
      99925    2    3    3    0    0  0.73259899962E+02  0.63294192386E+02 -0.56797477027E+03  0.63331460194E+03  0.26290469305E+03 0.  0.
         25    1    3    3    0    0 -0.73259899962E+02 -0.63294192386E+02 -0.24052923365E+03  0.28788016270E+03  0.12509000000E+03 0.  0.
         25    1    4    4    0    0  0.64113387206E+01  0.44088277832E+02 -0.32858231626E+03  0.35439910859E+03  0.12509000000E+03 0.  0.
         25    1    4    4    0    0  0.66848561241E+02  0.19205914554E+02 -0.23939245401E+03  0.27891549335E+03  0.12509000000E+03 0.  0.
<mgrwt>
<rscale>  2 0.44149866E+03</rscale>
<asrwt>0</asrwt>
<pdfrwt beam="1">  1       21 0.82860853E-02 0.44149866E+03</pdfrwt>
<pdfrwt beam="2">  1       21 0.12718373E+00 0.44149866E+03</pdfrwt>
<totfact> 0.47111958E+04</totfact>
</mgrwt>
</event>
<event>
 7    0  0.4725730E-002  0.4592814E+03  0.7546771E-02  0.1024990E+00
         21   -1    0    0  502  501  0.00000000000E+00  0.00000000000E+00  0.72924108780E+03  0.72924108780E+03  0.00000000000E+00 0.  1.
         21   -1    0    0  501  502 -0.00000000000E+00 -0.00000000000E+00 -0.72314691057E+02  0.72314691057E+02  0.00000000000E+00 0.  1.
      99926    2    1    2    0    0  0.17763568394E-14  0.00000000000E+00  0.65692639674E+03  0.80155577886E+03  0.45928136897E+03 0.  0.
      99925    2    3    3    0    0 -0.10295486790E+02 -0.99202009146E+02  0.30478326144E+03  0.41477505092E+03  0.26305602206E+03 0.  0.
         25    1    4    4    0    0 -0.13269148321E+02 -0.78592680389E+02  0.20693249133E+03  0.25460055730E+03  0.12509000000E+03 0.  0.
         25    1    4    4    0    0  0.29736615319E+01 -0.20609328757E+02  0.97850770115E+02  0.16017449362E+03  0.12509000000E+03 0.  0.
         25    1    3    3    0    0  0.10295486790E+02  0.99202009146E+02  0.35214313530E+03  0.38678072794E+03  0.12509000000E+03 0.  0.
<mgrwt>
<rscale>  2 0.45928137E+03</rscale>
<asrwt>0</asrwt>
<pdfrwt beam="1">  1       21 0.10724133E+00 0.45928137E+03</pdfrwt>
<pdfrwt beam="2">  1       21 0.10634514E-01 0.45928137E+03</pdfrwt>
<totfact> 0.46120421E+04</totfact>
</mgrwt>
</event>
<event>
 6    0  0.4725730E-002  0.4418162E+03  0.7546771E-02  0.1030191E+00
         21   -1    0    0  502  501  0.00000000000E+00  0.00000000000E+00  0.32361998083E+03  0.32361998083E+03  0.00000000000E+00 0.  1.
         21   -1    0    0  501  502 -0.00000000000E+00 -0.00000000000E+00 -0.15079533848E+03  0.15079533848E+03  0.00000000000E+00 0.  1.
      99926    2    1    2    0    0 -0.13322676296E-14  0.14210854715E-13  0.17282464235E+03  0.47441531931E+03  0.44181618145E+03 0.  0.
         25    1    3    3    0    0 -0.24840795614E+02  0.32517134728E+02 -0.60003422116E+01  0.13174954036E+03  0.12509000000E+03 0.  0.
         25    1    3    3    0    0  0.26263285903E+02  0.38882029822E+02  0.32828420015E+02  0.13757465497E+03  0.12509000000E+03 0.  0.
         25    1    3    3    0    0 -0.14224902884E+01 -0.71399164549E+02  0.14599656455E+03  0.20509112398E+03  0.12509000000E+03 0.  0.
<mgrwt>
<rscale>  2 0.44181618E+03</rscale>
<asrwt>0</asrwt>
<pdfrwt beam="1">  1       21 0.47591174E-01 0.44181618E+03</pdfrwt>
<pdfrwt beam="2">  1       21 0.22175785E-01 0.44181618E+03</pdfrwt>
<totfact> 0.74617164E+04</totfact>
</mgrwt>
</event>
<event>
 7    0  0.4725730E-002  0.4510527E+03  0.7546771E-02  0.1027409E+00
         21   -1    0    0  502  501  0.00000000000E+00  0.00000000000E+00  0.53759758084E+03  0.53759758084E+03  0.00000000000E+00 0.  1.
         21   -1    0    0  501  502 -0.00000000000E+00 -0.00000000000E+00 -0.94610057657E+02  0.94610057657E+02  0.00000000000E+00 0.  1.
      99926    2    1    2    0    0  0.00000000000E+00 -0.17763568394E-14  0.44298752318E+03  0.63220763849E+03  0.45105271585E+03 0.  0.
      99925    2    3    3    0    0  0.43821549662E+02  0.10065924502E+02  0.13989023275E+03  0.30124370297E+03  0.26297688170E+03 0.  0.
         25    1    4    4    0    0  0.38986268868E+02  0.21905536888E+02  0.10880987572E+03  0.17171743901E+03  0.12509000000E+03 0.  0.
         25    1    3    3    0    0 -0.43821549662E+02 -0.10065924502E+02  0.30309729043E+03  0.33096393553E+03  0.12509000000E+03 0.  0.
         25    1    4    4    0    0  0.48352807939E+01 -0.11839612386E+02  0.31080357031E+02  0.12952626396E+03  0.12509000000E+03 0.  0.
<mgrwt>
<rscale>  2 0.45105272E+03</rscale>
<asrwt>0</asrwt>
<pdfrwt beam="1">  1       21 0.79058466E-01 0.45105272E+03</pdfrwt>
<pdfrwt beam="2">  1       21 0.13913244E-01 0.45105272E+03</pdfrwt>
<totfact> 0.58541087E+04</totfact>
</mgrwt>
</event>
<event>
 7    0  0.4725730E-002  0.4627680E+03  0.7546771E-02  0.1023981E+00
         21   -1    0    0  502  501  0.00000000000E+00  0.00000000000E+00  0.42232058473E+03  0.42232058473E+03  0.00000000000E+00 0. -1.
         21   -1    0    0  501  502 -0.00000000000E+00 -0.00000000000E+00 -0.12677232794E+03  0.12677232794E+03  0.00000000000E+00 0. -1.
      99926    2    1    2    0    0  0.00000000000E+00  0.00000000000E+00  0.29554825679E+03  0.54909291267E+03  0.46276803547E+03 0.  0.
      99925    2    3    3    0    0 -0.77411980196E+02  0.82063200929E+02  0.13455527962E+03  0.31608383468E+03  0.26282481552E+03 0.  0.
         25    1    4    4    0    0 -0.20134684569E+02  0.74759583670E+02  0.55448569299E+02  0.15721467110E+03  0.12509000000E+03 0.  0.
         25    1    4    4    0    0 -0.57277295627E+02  0.73036172594E+01  0.79106710316E+02  0.15886916358E+03  0.12509000000E+03 0.  0.
         25    1    3    3    0    0  0.77411980196E+02 -0.82063200929E+02  0.16099297717E+03  0.23300907799E+03  0.12509000000E+03 0.  0.
<mgrwt>
<rscale>  2 0.46276804E+03</rscale>
<asrwt>0</asrwt>
<pdfrwt beam="1">  1       21 0.62105968E-01 0.46276804E+03</pdfrwt>
<pdfrwt beam="2">  1       21 0.18642990E-01 0.46276804E+03</pdfrwt>
<totfact> 0.58262115E+04</totfact>
</mgrwt>
</event>
<event>
 7    0  0.4725730E-002  0.4568912E+03  0.7546771E-02  0.1025687E+00
         21   -1    0    0  502  501  0.00000000000E+00  0.00000000000E+00  0.27815480612E+03  0.27815480612E+03  0.00000000000E+00 0.  1.
         21   -1    0    0  501  502 -0.00000000000E+00 -0.00000000000E+00 -0.18761992571E+03  0.18761992571E+03  0.00000000000E+00 0.  1.
      99926    2    1    2    0    0 -0.71054273576E-14 -0.14210854715E-13  0.90534880412E+02  0.46577473183E+03  0.45689116454E+03 0.  0.
      99925    2    3    3    0    0  0.44597611686E+02  0.10568107573E+03  0.49797234370E+02  0.29123390382E+03  0.26302088405E+03 0.  0.
         25    1    4    4    0    0 -0.11733907140E+02  0.74914242879E+02  0.22168962612E+02  0.14794863759E+03  0.12509000000E+03 0.  0.
         25    1    3    3    0    0 -0.44597611686E+02 -0.10568107573E+03  0.40737646042E+02  0.17454082801E+03  0.12509000000E+03 0.  0.
         25    1    4    4    0    0  0.56331518826E+02  0.30766832853E+02  0.27628271758E+02  0.14328526623E+03  0.12509000000E+03 0.  0.
<mgrwt>
<rscale>  2 0.45689116E+03</rscale>
<asrwt>0</asrwt>
<pdfrwt beam="1">  1       21 0.40905118E-01 0.45689116E+03</pdfrwt>
<pdfrwt beam="2">  1       21 0.27591166E-01 0.45689116E+03</pdfrwt>
<totfact> 0.66743720E+04</totfact>
</mgrwt>
</event>
<event>
 7    0  0.4725730E-002  0.4488713E+03  0.7546771E-02  0.1028059E+00
         21   -1    0    0  502  501  0.00000000000E+00  0.00000000000E+00  0.80848855976E+02  0.80848855976E+02  0.00000000000E+00 0.  1.
         21   -1    0    0  501  502 -0.00000000000E+00 -0.00000000000E+00 -0.62303127248E+03  0.62303127248E+03  0.00000000000E+00 0.  1.
      99926    2    1    2    0    0  0.00000000000E+00  0.00000000000E+00 -0.54218241650E+03  0.70388012846E+03  0.44887132061E+03 0.  0.
      99925    2    3    3    0    0  0.46171037645E+02 -0.93754785399E+02 -0.30379211157E+03  0.41509098377E+03  0.26284815627E+03 0.  0.
         25    1    4    4    0    0 -0.49492229958E+01 -0.17241089621E+02 -0.15544394052E+03  0.20032991969E+03  0.12509000000E+03 0.  0.
         25    1    4    4    0    0  0.51120260641E+02 -0.76513695779E+02 -0.14834817105E+03  0.21476106408E+03  0.12509000000E+03 0.  0.
         25    1    3    3    0    0 -0.46171037645E+02  0.93754785399E+02 -0.23839030493E+03  0.28878914469E+03  0.12509000000E+03 0.  0.
<mgrwt>
<rscale>  2 0.44887132E+03</rscale>
<asrwt>0</asrwt>
<pdfrwt beam="1">  1       21 0.11889537E-01 0.44887132E+03</pdfrwt>
<pdfrwt beam="2">  1       21 0.91622251E-01 0.44887132E+03</pdfrwt>
<totfact> 0.55312395E+04</totfact>
</mgrwt>
</event>
<event>
 7    0  0.4725730E-002  0.4455243E+03  0.7546771E-02  0.1029065E+00
         21   -1    0    0  502  501  0.00000000000E+00  0.00000000000E+00  0.48727927255E+03  0.48727927255E+03  0.00000000000E+00 0.  1.
         21   -1    0    0  501  502 -0.00000000000E+00 -0.00000000000E+00 -0.10183680697E+03  0.10183680697E+03  0.00000000000E+00 0.  1.
      99926    2    1    2    0    0  0.00000000000E+00  0.00000000000E+00  0.38544246558E+03  0.58911607952E+03  0.44552425397E+03 0.  0.
      99925    2    3    3    0    0  0.25342552543E+02  0.10062273548E+03  0.24936538075E+03  0.37714518298E+03  0.26322654894E+03 0.  0.
         25    1    3    3    0    0 -0.25342552543E+02 -0.10062273548E+03  0.13607708482E+03  0.21197089654E+03  0.12509000000E+03 0.  0.
         25    1    4    4    0    0  0.18434304142E+01  0.87782536336E+02  0.11225973137E+03  0.18962839268E+03  0.12509000000E+03 0.  0.
         25    1    4    4    0    0  0.23499122129E+02  0.12840199142E+02  0.13710564938E+03  0.18751679031E+03  0.12509000000E+03 0.  0.
<mgrwt>
<rscale>  2 0.44552425E+03</rscale>
<asrwt>0</asrwt>
<pdfrwt beam="1">  1       21 0.71658715E-01 0.44552425E+03</pdfrwt>
<pdfrwt beam="2">  1       21 0.14976001E-01 0.44552425E+03</pdfrwt>
<totfact> 0.64014317E+04</totfact>
</mgrwt>
</event>
<event>
 7    0  0.4725730E-002  0.4569888E+03  0.7546771E-02  0.1025658E+00
         21   -1    0    0  502  501  0.00000000000E+00  0.00000000000E+00  0.11410639971E+03  0.11410639971E+03  0.00000000000E+00 0.  1.
         21   -1    0    0  501  502 -0.00000000000E+00 -0.00000000000E+00 -0.45755271675E+03  0.45755271675E+03  0.00000000000E+00 0.  1.
      99926    2    1    2    0    0  0.00000000000E+00  0.00000000000E+00 -0.34344631705E+03  0.57165911646E+03  0.45698881030E+03 0.  0.
      99925    2    3    3    0    0 -0.76847004094E+02  0.23494493535E+02 -0.31871373716E+03  0.42093864050E+03  0.26297041573E+03 0.  0.
         25    1    3    3    0    0  0.76847004094E+02 -0.23494493535E+02 -0.24732579886E+02  0.15072047596E+03  0.12509000000E+03 0.  0.
         25    1    4    4    0    0 -0.70064928729E+02  0.23914192239E+02 -0.20797283496E+03  0.25373448920E+03  0.12509000000E+03 0.  0.
         25    1    4    4    0    0 -0.67820753649E+01 -0.41969870425E+00 -0.11074090220E+03  0.16720415131E+03  0.12509000000E+03 0.  0.
<mgrwt>
<rscale>  2 0.45698881E+03</rscale>
<asrwt>0</asrwt>
<pdfrwt beam="1">  1       21 0.16780353E-01 0.45698881E+03</pdfrwt>
<pdfrwt beam="2">  1       21 0.67287164E-01 0.45698881E+03</pdfrwt>
<totfact> 0.59516022E+04</totfact>
</mgrwt>
</event>
<event>
 7    0  0.4725730E-002  0.4531835E+03  0.7546771E-02  0.1026777E+00
         21   -1    0    0  502  501  0.00000000000E+00  0.00000000000E+00  0.78163979112E+03  0.78163979112E+03  0.00000000000E+00 0. -1.
         21   -1    0    0  501  502 -0.00000000000E+00 -0.00000000000E+00 -0.65687304697E+02  0.65687304697E+02  0.00000000000E+00 0. -1.
      99926    2    1    2    0    0  0.00000000000E+00  0.00000000000E+00  0.71595248642E+03  0.84732709582E+03  0.45318345567E+03 0.  0.
      99925    2    3    3    0    0 -0.37792099955E+02 -0.85151872927E+02  0.56635552626E+03  0.63121174960E+03  0.26266062975E+03 0.  0.
         25    1    3    3    0    0  0.37792099955E+02  0.85151872927E+02  0.14959696016E+03  0.21611534622E+03  0.12509000000E+03 0.  0.
         25    1    4    4    0    0  0.21426520329E+02 -0.41919982362E+02  0.26614143936E+03  0.29781731740E+03  0.12509000000E+03 0.  0.
         25    1    4    4    0    0 -0.59218620284E+02 -0.43231890565E+02  0.30021408690E+03  0.33339443220E+03  0.12509000000E+03 0.  0.
<mgrwt>
<rscale>  2 0.45318346E+03</rscale>
<asrwt>0</asrwt>
<pdfrwt beam="1">  1       21 0.11494702E+00 0.45318346E+03</pdfrwt>
<pdfrwt beam="2">  1       21 0.96598982E-02 0.45318346E+03</pdfrwt>
<totfact> 0.46214241E+04</totfact>
</mgrwt>
</event>
<event>
 7    0  0.4725730E-002  0.4702379E+03  0.7546771E-02  0.1021853E+00
         21   -1    0    0  502  501  0.00000000000E+00  0.00000000000E+00  0.54536713811E+03  0.54536713811E+03  0.00000000000E+00 0.  1.
         21   -1    0    0  501  502 -0.00000000000E+00 -0.00000000000E+00 -0.10136458735E+03  0.10136458735E+03  0.00000000000E+00 0.  1.
      99926    2    1    2    0    0  0.00000000000E+00  0.00000000000E+00  0.44400255076E+03  0.64673172546E+03  0.47023787559E+03 0.  0.
      99925    2    3    3    0    0  0.12553916342E+03  0.19034327840E+02  0.27553216498E+03  0.40147233997E+03  0.26294425005E+03 0.  0.
         25    1    4    4    0    0  0.98347742794E+02  0.11289672611E+02  0.11846269296E+03  0.19869739038E+03  0.12509000000E+03 0.  0.
         25    1    3    3    0    0 -0.12553916342E+03 -0.19034327840E+02  0.16847038578E+03  0.24525938549E+03  0.12509000000E+03 0.  0.
         25    1    4    4    0    0  0.27191420625E+02  0.77446552295E+01  0.15706947202E+03  0.20277494959E+03  0.12509000000E+03 0.  0.
<mgrwt>
<rscale>  2 0.47023788E+03</rscale>
<asrwt>0</asrwt>
<pdfrwt beam="1">  1       21 0.80201049E-01 0.47023788E+03</pdfrwt>
<pdfrwt beam="2">  1       21 0.14906557E-01 0.47023788E+03</pdfrwt>
<totfact> 0.49646012E+04</totfact>
</mgrwt>
</event>
<event>
 7    0  0.4725730E-002  0.4515388E+03  0.7546771E-02  0.1027264E+00
         21   -1    0    0  502  501  0.00000000000E+00  0.00000000000E+00  0.75340323904E+02  0.75340323904E+02  0.00000000000E+00 0.  1.
         21   -1    0    0  501  502 -0.00000000000E+00 -0.00000000000E+00 -0.67655443451E+03  0.67655443451E+03  0.00000000000E+00 0.  1.
      99926    2    1    2    0    0  0.00000000000E+00  0.00000000000E+00 -0.60121411060E+03  0.75189475841E+03  0.45153883658E+03 0.  0.
      99925    2    3    3    0    0 -0.22306457466E+02 -0.10336477891E+03 -0.33031125495E+03  0.43532293265E+03  0.26309442218E+03 0.  0.
         25    1    4    4    0    0 -0.12229121144E+02 -0.86553857675E+02 -0.21778558602E+03  0.26593080164E+03  0.12509000000E+03 0.  0.
         25    1    3    3    0    0  0.22306457466E+02  0.10336477891E+03 -0.27090285566E+03  0.31657182576E+03  0.12509000000E+03 0.  0.
         25    1    4    4    0    0 -0.10077336323E+02 -0.16810921239E+02 -0.11252566893E+03  0.16939213101E+03  0.12509000000E+03 0.  0.
<mgrwt>
<rscale>  2 0.45153884E+03</rscale>
<asrwt>0</asrwt>
<pdfrwt beam="1">  1       21 0.11079459E-01 0.45153884E+03</pdfrwt>
<pdfrwt beam="2">  1       21 0.99493303E-01 0.45153884E+03</pdfrwt>
<totfact> 0.51562661E+04</totfact>
</mgrwt>
</event>
<event>
 7    0  0.4725730E-002  0.4544667E+03  0.7546771E-02  0.1026398E+00
         21   -1    0    0  502  501  0.00000000000E+00  0.00000000000E+00  0.12441535449E+04  0.12441535449E+04  0.00000000000E+00 0.  1.
         21   -1    0    0  501  502 -0.00000000000E+00 -0.00000000000E+00 -0.41502104535E+02  0.41502104535E+02  0.00000000000E+00 0.  1.
      99926    2    1    2    0    0 -0.14210854715E-13  0.00000000000E+00  0.12026514404E+04  0.12856556494E+04  0.45446667855E+03 0.  0.
      99925    2    3    3    0    0  0.66524790393E+02  0.23548270417E+02  0.50878874726E+03  0.57708454238E+03  0.26302188299E+03 0.  0.
         25    1    4    4    0    0  0.67911518037E+02  0.30377804879E+02  0.30336374063E+03  0.33646969038E+03  0.12509000000E+03 0.  0.
         25    1    3    3    0    0 -0.66524790393E+02 -0.23548270417E+02  0.69386269309E+03  0.70857110705E+03  0.12509000000E+03 0.  0.
         25    1    4    4    0    0 -0.13867276439E+01 -0.68295344612E+01  0.20542500663E+03  0.24061485200E+03  0.12509000000E+03 0.  0.
<mgrwt>
<rscale>  2 0.45446668E+03</rscale>
<asrwt>0</asrwt>
<pdfrwt beam="1">  1       21 0.18296373E+00 0.45446668E+03</pdfrwt>
<pdfrwt beam="2">  1       21 0.61032515E-02 0.45446668E+03</pdfrwt>
<totfact> 0.29657058E+04</totfact>
</mgrwt>
</event>
<event>
 7    0  0.4725730E-002  0.4527127E+03  0.7546771E-02  0.1026916E+00
         21   -1    0    0  502  501  0.00000000000E+00  0.00000000000E+00  0.11851345024E+03  0.11851345024E+03  0.00000000000E+00 0.  1.
         21   -1    0    0  501  502 -0.00000000000E+00 -0.00000000000E+00 -0.43233238588E+03  0.43233238588E+03  0.00000000000E+00 0.  1.
      99926    2    1    2    0    0  0.71054273576E-14  0.00000000000E+00 -0.31381893563E+03  0.55084583612E+03  0.45271272437E+03 0.  0.
      99925    2    3    3    0    0 -0.54539083645E+02  0.78803216570E+02 -0.26557858073E+03  0.38604565855E+03  0.26327705817E+03 0.  0.
         25    1    3    3    0    0  0.54539083645E+02 -0.78803216570E+02 -0.48240354906E+02  0.16480017757E+03  0.12509000000E+03 0.  0.
         25    1    4    4    0    0  0.41660101894E+01  0.43912357889E+02 -0.91836274404E+02  0.16132904330E+03  0.12509000000E+03 0.  0.
         25    1    4    4    0    0 -0.58705093834E+02  0.34890858681E+02 -0.17374230632E+03  0.22471661525E+03  0.12509000000E+03 0.  0.
<mgrwt>
<rscale>  2 0.45271272E+03</rscale>
<asrwt>0</asrwt>
<pdfrwt beam="1">  1       21 0.17428448E-01 0.45271272E+03</pdfrwt>
<pdfrwt beam="2">  1       21 0.63578293E-01 0.45271272E+03</pdfrwt>
<totfact> 0.62941955E+04</totfact>
</mgrwt>
</event>
<event>
 7    0  0.4725730E-002  0.4553327E+03  0.7546771E-02  0.1026144E+00
         21   -1    0    0  502  501  0.00000000000E+00  0.00000000000E+00  0.18362459406E+03  0.18362459406E+03  0.00000000000E+00 0. -1.
         21   -1    0    0  501  502 -0.00000000000E+00 -0.00000000000E+00 -0.28227140311E+03  0.28227140311E+03  0.00000000000E+00 0. -1.
      99926    2    1    2    0    0  0.00000000000E+00 -0.71054273576E-14 -0.98646809054E+02  0.46589599717E+03  0.45533272147E+03 0.  0.
      99925    2    3    3    0    0  0.69408093498E+02 -0.45219323388E+02  0.16840439845E+02  0.27656273699E+03  0.26332693829E+03 0.  0.
         25    1    4    4    0    0  0.24333998085E+02 -0.52015915046E+02  0.35444770547E+02  0.14213246899E+03  0.12509000000E+03 0.  0.
         25    1    3    3    0    0 -0.69408093498E+02  0.45219323388E+02 -0.11548724890E+03  0.18933326018E+03  0.12509000000E+03 0.  0.
         25    1    4    4    0    0  0.45074095413E+02  0.67965916586E+01 -0.18604330702E+02  0.13443026801E+03  0.12509000000E+03 0.  0.
<mgrwt>
<rscale>  2 0.45533272E+03</rscale>
<asrwt>0</asrwt>
<pdfrwt beam="1">  1       21 0.27003617E-01 0.45533272E+03</pdfrwt>
<pdfrwt beam="2">  1       21 0.41510500E-01 0.45533272E+03</pdfrwt>
<totfact> 0.67564227E+04</totfact>
</mgrwt>
</event>
<event>
 7    0  0.4725730E-002  0.4585105E+03  0.7546771E-02  0.1025214E+00
         21   -1    0    0  502  501  0.00000000000E+00  0.00000000000E+00  0.16928744594E+03  0.16928744594E+03  0.00000000000E+00 0.  1.
         21   -1    0    0  501  502 -0.00000000000E+00 -0.00000000000E+00 -0.31046585676E+03  0.31046585676E+03  0.00000000000E+00 0.  1.
      99926    2    1    2    0    0  0.00000000000E+00 -0.71054273576E-14 -0.14117841082E+03  0.47975330269E+03  0.45851050998E+03 0.  0.
      99925    2    3    3    0    0 -0.27979779585E+02 -0.49883141205E+02 -0.19441110966E+03  0.33226627219E+03  0.26331350180E+03 0.  0.
         25    1    4    4    0    0  0.20186262195E+02 -0.43120070178E+02 -0.80185463609E+02  0.15602577450E+03  0.12509000000E+03 0.  0.
         25    1    3    3    0    0  0.27979779585E+02  0.49883141205E+02  0.53232698839E+02  0.14748703051E+03  0.12509000000E+03 0.  0.
         25    1    4    4    0    0 -0.48166041780E+02 -0.67630710273E+01 -0.11422564605E+03  0.17624049769E+03  0.12509000000E+03 0.  0.
<mgrwt>
<rscale>  2 0.45851051E+03</rscale>
<asrwt>0</asrwt>
<pdfrwt beam="1">  1       21 0.24895213E-01 0.45851051E+03</pdfrwt>
<pdfrwt beam="2">  1       21 0.45656743E-01 0.45851051E+03</pdfrwt>
<totfact> 0.64891116E+04</totfact>
</mgrwt>
</event>
<event>
 7    0  0.4725730E-002  0.4566388E+03  0.7546771E-02  0.1025761E+00
         21   -1    0    0  502  501  0.00000000000E+00  0.00000000000E+00  0.26262242771E+03  0.26262242771E+03  0.00000000000E+00 0.  1.
         21   -1    0    0  501  502 -0.00000000000E+00 -0.00000000000E+00 -0.19849695534E+03  0.19849695534E+03  0.00000000000E+00 0.  1.
      99926    2    1    2    0    0  0.35527136788E-14  0.00000000000E+00  0.64125472369E+02  0.46111938305E+03  0.45663881703E+03 0.  0.
      99925    2    3    3    0    0  0.26676422285E+02 -0.10659284881E+03  0.73247321885E+02  0.29437291934E+03  0.26309043797E+03 0.  0.
         25    1    3    3    0    0 -0.26676422285E+02  0.10659284881E+03 -0.91218495158E+01  0.16674646372E+03  0.12509000000E+03 0.  0.
         25    1    4    4    0    0  0.46471858583E+02 -0.48553106183E+02  0.13015169766E+02  0.14259712656E+03  0.12509000000E+03 0.  0.
         25    1    4    4    0    0 -0.19795436298E+02 -0.58039742630E+02  0.60232152119E+02  0.15177579277E+03  0.12509000000E+03 0.  0.
<mgrwt>
<rscale>  2 0.45663882E+03</rscale>
<asrwt>0</asrwt>
<pdfrwt beam="1">  1       21 0.38620946E-01 0.45663882E+03</pdfrwt>
<pdfrwt beam="2">  1       21 0.29190729E-01 0.45663882E+03</pdfrwt>
<totfact> 0.67216309E+04</totfact>
</mgrwt>
</event>
<event>
 7    0  0.4725730E-002  0.4028252E+03  0.7546771E-02  0.1042806E+00
         21   -1    0    0  502  501  0.00000000000E+00  0.00000000000E+00  0.69866926190E+02  0.69866926190E+02  0.00000000000E+00 0. -1.
         21   -1    0    0  501  502 -0.00000000000E+00 -0.00000000000E+00 -0.58063290064E+03  0.58063290064E+03  0.00000000000E+00 0. -1.
      99926    2    1    2    0    0  0.71054273576E-14  0.35527136788E-14 -0.51076597445E+03  0.65049982683E+03  0.40282520285E+03 0.  0.
      99925    2    3    3    0    0  0.44541067872E+02  0.21607851462E+02 -0.32199380642E+03  0.41869550096E+03  0.26301160654E+03 0.  0.
         25    1    3    3    0    0 -0.44541067872E+02 -0.21607851462E+02 -0.18877216803E+03  0.23180432588E+03  0.12509000000E+03 0.  0.
         25    1    4    4    0    0 -0.60018271212E+01  0.31431846974E+02 -0.18980612230E+03  0.22956013394E+03  0.12509000000E+03 0.  0.
         25    1    4    4    0    0  0.50542894993E+02 -0.98239955126E+01 -0.13218768412E+03  0.18913536701E+03  0.12509000000E+03 0.  0.
<mgrwt>
<rscale>  2 0.40282520E+03</rscale>
<asrwt>0</asrwt>
<pdfrwt beam="1">  1       21 0.10274548E-01 0.40282520E+03</pdfrwt>
<pdfrwt beam="2">  1       21 0.85387193E-01 0.40282520E+03</pdfrwt>
<totfact> 0.85923680E+04</totfact>
</mgrwt>
</event>
<event>
 7    0  0.4725730E-002  0.4537416E+03  0.7546771E-02  0.1026612E+00
         21   -1    0    0  502  501  0.00000000000E+00  0.00000000000E+00  0.66254811100E+03  0.66254811100E+03  0.00000000000E+00 0. -1.
         21   -1    0    0  501  502 -0.00000000000E+00 -0.00000000000E+00 -0.77685467730E+02  0.77685467730E+02  0.00000000000E+00 0. -1.
      99926    2    1    2    0    0  0.00000000000E+00  0.00000000000E+00  0.58486264327E+03  0.74023357872E+03  0.45374160002E+03 0.  0.
      99925    2    3    3    0    0  0.68822241086E+02 -0.88234369914E+02  0.37209432310E+03  0.46923603064E+03  0.26307121140E+03 0.  0.
         25    1    4    4    0    0  0.30600679923E+02 -0.47017147914E+02  0.11972696007E+03  0.18201391946E+03  0.12509000000E+03 0.  0.
         25    1    3    3    0    0 -0.68822241086E+02  0.88234369914E+02  0.21276832016E+03  0.27099754808E+03  0.12509000000E+03 0.  0.
         25    1    4    4    0    0  0.38221561163E+02 -0.41217222000E+02  0.25236736304E+03  0.28722211118E+03  0.12509000000E+03 0.  0.
<mgrwt>
<rscale>  2 0.45374160E+03</rscale>
<asrwt>0</asrwt>
<pdfrwt beam="1">  1       21 0.97433543E-01 0.45374160E+03</pdfrwt>
<pdfrwt beam="2">  1       21 0.11424334E-01 0.45374160E+03</pdfrwt>
<totfact> 0.51277779E+04</totfact>
</mgrwt>
</event>
<event>
 7    0  0.4725730E-002  0.4562403E+03  0.7546771E-02  0.1025877E+00
         21   -1    0    0  502  501  0.00000000000E+00  0.00000000000E+00  0.32725801948E+03  0.32725801948E+03  0.00000000000E+00 0. -1.
         21   -1    0    0  501  502 -0.00000000000E+00 -0.00000000000E+00 -0.15901458479E+03  0.15901458479E+03  0.00000000000E+00 0. -1.
      99926    2    1    2    0    0  0.14210854715E-13  0.88817841970E-15  0.16824343469E+03  0.48627260426E+03  0.45624027917E+03 0.  0.
      99925    2    3    3    0    0 -0.10079514949E+03 -0.34563675945E+01  0.16293553590E+03  0.32550167863E+03  0.26311926059E+03 0.  0.
         25    1    4    4    0    0 -0.13878284482E+02  0.12850090672E+02  0.54153691236E+02  0.13761490466E+03  0.12509000000E+03 0.  0.
         25    1    3    3    0    0  0.10079514949E+03  0.34563675945E+01  0.53078987887E+01  0.16077092563E+03  0.12509000000E+03 0.  0.
         25    1    4    4    0    0 -0.86916865013E+02 -0.16306458267E+02  0.10878184467E+03  0.18788677397E+03  0.12509000000E+03 0.  0.
<mgrwt>
<rscale>  2 0.45624028E+03</rscale>
<asrwt>0</asrwt>
<pdfrwt beam="1">  1       21 0.48126179E-01 0.45624028E+03</pdfrwt>
<pdfrwt beam="2">  1       21 0.23384498E-01 0.45624028E+03</pdfrwt>
<totfact> 0.65598010E+04</totfact>
</mgrwt>
</event>
<event>
 7    0  0.4725730E-002  0.4536376E+03  0.7546771E-02  0.1026643E+00
         21   -1    0    0  502  501  0.00000000000E+00  0.00000000000E+00  0.15436059758E+03  0.15436059758E+03  0.00000000000E+00 0.  1.
         21   -1    0    0  501  502 -0.00000000000E+00 -0.00000000000E+00 -0.33328945133E+03  0.33328945133E+03  0.00000000000E+00 0.  1.
      99926    2    1    2    0    0  0.35527136788E-14  0.00000000000E+00 -0.17892885375E+03  0.48765004891E+03  0.45363755962E+03 0.  0.
      99925    2    3    3    0    0 -0.22769868401E+02 -0.56924928567E+02 -0.12083253221E+02  0.27029348261E+03  0.26297081080E+03 0.  0.
         25    1    4    4    0    0  0.97611036193E+01 -0.14619823726E+02 -0.37866914548E+02  0.13187277849E+03  0.12509000000E+03 0.  0.
         25    1    4    4    0    0 -0.32530972020E+02 -0.42305104841E+02  0.25783661327E+02  0.13842070411E+03  0.12509000000E+03 0.  0.
         25    1    3    3    0    0  0.22769868401E+02  0.56924928567E+02 -0.16684560053E+03  0.21735656630E+03  0.12509000000E+03 0.  0.
<mgrwt>
<rscale>  2 0.45363756E+03</rscale>
<asrwt>0</asrwt>
<pdfrwt beam="1">  1       21 0.22700088E-01 0.45363756E+03</pdfrwt>
<pdfrwt beam="2">  1       21 0.49013154E-01 0.45363756E+03</pdfrwt>
<totfact> 0.66867622E+04</totfact>
</mgrwt>
</event>
<event>
 7    0  0.4725730E-002  0.4398946E+03  0.7546771E-02  0.1030779E+00
         21   -1    0    0  502  501  0.00000000000E+00  0.00000000000E+00  0.13967573372E+04  0.13967573372E+04  0.00000000000E+00 0.  1.
         21   -1    0    0  501  502 -0.00000000000E+00 -0.00000000000E+00 -0.34635084445E+02  0.34635084445E+02  0.00000000000E+00 0.  1.
      99926    2    1    2    0    0 -0.17763568394E-14  0.00000000000E+00  0.13621222527E+04  0.14313924216E+04  0.43989457065E+03 0.  0.
      99925    2    3    3    0    0 -0.84437523096E+01  0.23011368058E+02  0.11792928668E+04  0.12085137271E+04  0.26300749585E+03 0.  0.
         25    1    4    4    0    0 -0.16607332754E+02  0.69363955601E+01  0.76513731547E+03  0.77550405332E+03  0.12509000000E+03 0.  0.
         25    1    3    3    0    0  0.84437523096E+01 -0.23011368058E+02  0.18282938591E+03  0.22287869451E+03  0.12509000000E+03 0.  0.
         25    1    4    4    0    0  0.81635804443E+01  0.16074972498E+02  0.41415555133E+03  0.43300967378E+03  0.12509000000E+03 0.  0.
<mgrwt>
<rscale>  2 0.43989457E+03</rscale>
<asrwt>0</asrwt>
<pdfrwt beam="1">  1       21 0.20540545E+00 0.43989457E+03</pdfrwt>
<pdfrwt beam="2">  1       21 0.50933957E-02 0.43989457E+03</pdfrwt>
<totfact> 0.28735014E+04</totfact>
</mgrwt>
</event>
<event>
 7    0  0.4725730E-002  0.4534370E+03  0.7546771E-02  0.1026702E+00
         21   -1    0    0  502  501  0.00000000000E+00  0.00000000000E+00  0.20651790714E+02  0.20651790714E+02  0.00000000000E+00 0.  1.
         21   -1    0    0  501  502 -0.00000000000E+00 -0.00000000000E+00 -0.24889498358E+04  0.24889498358E+04  0.00000000000E+00 0.  1.
      99926    2    1    2    0    0  0.00000000000E+00 -0.17763568394E-14 -0.24682980451E+04  0.25096016266E+04  0.45343696853E+03 0.  0.
      99925    2    3    3    0    0 -0.46705809858E+02  0.12919597061E+02 -0.99142043329E+03  0.10266439950E+04  0.26217373663E+03 0.  0.
         25    1    4    4    0    0  0.14219646005E+02 -0.16591410181E+01 -0.50965945914E+03  0.52498116487E+03  0.12509000000E+03 0.  0.
         25    1    4    4    0    0 -0.60925455863E+02  0.14578738079E+02 -0.48176097416E+03  0.50166283009E+03  0.12509000000E+03 0.  0.
         25    1    3    3    0    0  0.46705809858E+02 -0.12919597061E+02 -0.14768776118E+04  0.14829576316E+04  0.12509000000E+03 0.  0.
<mgrwt>
<rscale>  2 0.45343697E+03</rscale>
<asrwt>0</asrwt>
<pdfrwt beam="1">  1       21 0.30370282E-02 0.45343697E+03</pdfrwt>
<pdfrwt beam="2">  1       21 0.36602201E+00 0.45343697E+03</pdfrwt>
<totfact> 0.71201638E+03</totfact>
</mgrwt>
</event>
<event>
 7    0  0.4725730E-002  0.4381827E+03  0.7546771E-02  0.1031306E+00
         21   -1    0    0  502  501  0.00000000000E+00  0.00000000000E+00  0.25869782574E+03  0.25869782574E+03  0.00000000000E+00 0. -1.
         21   -1    0    0  501  502 -0.00000000000E+00 -0.00000000000E+00 -0.18554863882E+03  0.18554863882E+03  0.00000000000E+00 0. -1.
      99926    2    1    2    0    0  0.00000000000E+00  0.00000000000E+00  0.73149186924E+02  0.44424646456E+03  0.43818274467E+03 0.  0.
      99925    2    3    3    0    0  0.26562161973E+02  0.44913346892E+02 -0.35592443538E+02  0.27047935757E+03  0.26300095752E+03 0.  0.
         25    1    4    4    0    0 -0.12077930174E+02 -0.47560597154E+01  0.93933697402E+00  0.12576520566E+03  0.12509000000E+03 0.  0.
         25    1    3    3    0    0 -0.26562161973E+02 -0.44913346892E+02  0.10874163046E+03  0.17376710699E+03  0.12509000000E+03 0.  0.
         25    1    4    4    0    0  0.38640092147E+02  0.49669406608E+02 -0.36531780512E+02  0.14471415190E+03  0.12509000000E+03 0.  0.
<mgrwt>
<rscale>  2 0.43818274E+03</rscale>
<asrwt>0</asrwt>
<pdfrwt beam="1">  1       21 0.38043798E-01 0.43818274E+03</pdfrwt>
<pdfrwt beam="2">  1       21 0.27286564E-01 0.43818274E+03</pdfrwt>
<totfact> 0.79480086E+04</totfact>
</mgrwt>
</event>
<event>
 7    0  0.4725730E-002  0.4485236E+03  0.7546771E-02  0.1028163E+00
         21   -1    0    0  502  501  0.00000000000E+00  0.00000000000E+00  0.40141691262E+02  0.40141691262E+02  0.00000000000E+00 0. -1.
         21   -1    0    0  501  502 -0.00000000000E+00 -0.00000000000E+00 -0.12528958464E+04  0.12528958464E+04  0.00000000000E+00 0. -1.
      99926    2    1    2    0    0  0.00000000000E+00  0.00000000000E+00 -0.12127541552E+04  0.12930375377E+04  0.44852361477E+03 0.  0.
      99925    2    3    3    0    0  0.98918048180E+02 -0.38886495332E+02 -0.75296259700E+03  0.80482372711E+03  0.26361263147E+03 0.  0.
         25    1    4    4    0    0  0.71030809293E+02 -0.35821753107E+02 -0.49565321440E+03  0.51734726336E+03  0.12509000000E+03 0.  0.
         25    1    3    3    0    0 -0.98918048180E+02  0.38886495332E+02 -0.45979155816E+03  0.48821381057E+03  0.12509000000E+03 0.  0.
         25    1    4    4    0    0  0.27887238887E+02 -0.30647422246E+01 -0.25730938259E+03  0.28747646375E+03  0.12509000000E+03 0.  0.
<mgrwt>
<rscale>  2 0.44852361E+03</rscale>
<asrwt>0</asrwt>
<pdfrwt beam="1">  1       21 0.59031887E-02 0.44852361E+03</pdfrwt>
<pdfrwt beam="2">  1       21 0.18424943E+00 0.44852361E+03</pdfrwt>
<totfact> 0.30842077E+04</totfact>
</mgrwt>
</event>
<event>
 7    0  0.4725730E-002  0.4639782E+03  0.7546771E-02  0.1023634E+00
         21   -1    0    0  502  501  0.00000000000E+00  0.00000000000E+00  0.23577576702E+03  0.23577576702E+03  0.00000000000E+00 0.  1.
         21   -1    0    0  501  502 -0.00000000000E+00 -0.00000000000E+00 -0.22826329072E+03  0.22826329072E+03  0.00000000000E+00 0.  1.
      99926    2    1    2    0    0  0.00000000000E+00  0.00000000000E+00  0.75124763001E+01  0.46403905774E+03  0.46397824282E+03 0.  0.
      99925    2    3    3    0    0  0.42435075497E+02 -0.24887784468E+02  0.11559209048E+03  0.29156051255E+03  0.26310808359E+03 0.  0.
         25    1    4    4    0    0 -0.34934621272E+01 -0.35984143129E+02  0.81337082121E+02  0.15352619276E+03  0.12509000000E+03 0.  0.
         25    1    4    4    0    0  0.45928537624E+02  0.11096358660E+02  0.34255008363E+02  0.13803431980E+03  0.12509000000E+03 0.  0.
         25    1    3    3    0    0 -0.42435075497E+02  0.24887784468E+02 -0.10807961418E+03  0.17247854519E+03  0.12509000000E+03 0.  0.
<mgrwt>
<rscale>  2 0.46397824E+03</rscale>
<asrwt>0</asrwt>
<pdfrwt beam="1">  1       21 0.34672907E-01 0.46397824E+03</pdfrwt>
<pdfrwt beam="2">  1       21 0.33568131E-01 0.46397824E+03</pdfrwt>
<totfact> 0.63235726E+04</totfact>
</mgrwt>
</event>
<event>
 7    0  0.4725730E-002  0.4565556E+03  0.7546771E-02  0.1025785E+00
         21   -1    0    0  502  501  0.00000000000E+00  0.00000000000E+00  0.51938960211E+02  0.51938960211E+02  0.00000000000E+00 0.  1.
         21   -1    0    0  501  502 -0.00000000000E+00 -0.00000000000E+00 -0.10033073905E+04  0.10033073905E+04  0.00000000000E+00 0.  1.
      99926    2    1    2    0    0 -0.71054273576E-14  0.00000000000E+00 -0.95136843030E+03  0.10552463507E+04  0.45655555033E+03 0.  0.
      99925    2    3    3    0    0  0.63598821445E+02  0.90207553538E+02 -0.66925889462E+03  0.72750329431E+03  0.26300449122E+03 0.  0.
         25    1    4    4    0    0 -0.46975027915E+01  0.22116809862E+02 -0.28642716912E+03  0.31336759743E+03  0.12509000000E+03 0.  0.
         25    1    4    4    0    0  0.68296324237E+02  0.68090743676E+02 -0.38283172550E+03  0.41413569687E+03  0.12509000000E+03 0.  0.
         25    1    3    3    0    0 -0.63598821445E+02 -0.90207553538E+02 -0.28210953568E+03  0.32774305641E+03  0.12509000000E+03 0.  0.
<mgrwt>
<rscale>  2 0.45655555E+03</rscale>
<asrwt>0</asrwt>
<pdfrwt beam="1">  1       21 0.76380827E-02 0.45655555E+03</pdfrwt>
<pdfrwt beam="2">  1       21 0.14754520E+00 0.45655555E+03</pdfrwt>
<totfact> 0.36638623E+04</totfact>
</mgrwt>
</event>
<event>
 7    0  0.4725730E-002  0.4800805E+03  0.7546771E-02  0.1019113E+00
         21   -1    0    0  502  501  0.00000000000E+00  0.00000000000E+00  0.70125271871E+03  0.70125271871E+03  0.00000000000E+00 0.  1.
         21   -1    0    0  501  502 -0.00000000000E+00 -0.00000000000E+00 -0.82166273936E+02  0.82166273936E+02  0.00000000000E+00 0.  1.
      99926    2    1    2    0    0  0.00000000000E+00 -0.71054273576E-14  0.61908644477E+03  0.78341899264E+03  0.48008050568E+03 0.  0.
      99925    2    3    3    0    0  0.12187400926E+03  0.58791737813E+02  0.37435056374E+03  0.47706478240E+03  0.26295003227E+03 0.  0.
         25    1    4    4    0    0  0.45429355800E+02  0.10671570505E+02  0.11968109694E+03  0.17930081386E+03  0.12509000000E+03 0.  0.
         25    1    3    3    0    0 -0.12187400926E+03 -0.58791737813E+02  0.24473588104E+03  0.30635421024E+03  0.12509000000E+03 0.  0.
         25    1    4    4    0    0  0.76444653459E+02  0.48120167308E+02  0.25466946679E+03  0.29776396854E+03  0.12509000000E+03 0.  0.
<mgrwt>
<rscale>  2 0.48008051E+03</rscale>
<asrwt>0</asrwt>
<pdfrwt beam="1">  1       21 0.10312540E+00 0.48008051E+03</pdfrwt>
<pdfrwt beam="2">  1       21 0.12083276E-01 0.48008051E+03</pdfrwt>
<totfact> 0.40084613E+04</totfact>
</mgrwt>
</event>
<event>
 7    0  0.4725730E-002  0.4457424E+03  0.7546771E-02  0.1028999E+00
         21   -1    0    0  502  501  0.00000000000E+00  0.00000000000E+00  0.58104941212E+02  0.58104941212E+02  0.00000000000E+00 0. -1.
         21   -1    0    0  501  502 -0.00000000000E+00 -0.00000000000E+00 -0.85485960928E+03  0.85485960928E+03  0.00000000000E+00 0. -1.
      99926    2    1    2    0    0  0.14210854715E-13  0.00000000000E+00 -0.79675466807E+03  0.91296455049E+03  0.44574238004E+03 0.  0.
      99925    2    3    3    0    0 -0.65722763268E+02  0.71507624873E+02 -0.58396792865E+03  0.64771273316E+03  0.26283154487E+03 0.  0.
         25    1    4    4    0    0 -0.32701362038E+02  0.75323375019E+02 -0.28389157504E+03  0.32091264291E+03  0.12509000000E+03 0.  0.
         25    1    4    4    0    0 -0.33021401230E+02 -0.38157501457E+01 -0.30007635361E+03  0.32680009025E+03  0.12509000000E+03 0.  0.
         25    1    3    3    0    0  0.65722763268E+02 -0.71507624873E+02 -0.21278673942E+03  0.26525181733E+03  0.12509000000E+03 0.  0.
<mgrwt>
<rscale>  2 0.44574238E+03</rscale>
<asrwt>0</asrwt>
<pdfrwt beam="1">  1       21 0.85448442E-02 0.44574238E+03</pdfrwt>
<pdfrwt beam="2">  1       21 0.12571465E+00 0.44574238E+03</pdfrwt>
<totfact> 0.45914185E+04</totfact>
</mgrwt>
</event>
<event>
 7    0  0.4725730E-002  0.4560446E+03  0.7546771E-02  0.1025935E+00
         21   -1    0    0  502  501  0.00000000000E+00  0.00000000000E+00  0.12867873599E+03  0.12867873599E+03  0.00000000000E+00 0. -1.
         21   -1    0    0  501  502 -0.00000000000E+00 -0.00000000000E+00 -0.40406191466E+03  0.40406191466E+03  0.00000000000E+00 0. -1.
      99926    2    1    2    0    0  0.00000000000E+00  0.00000000000E+00 -0.27538317866E+03  0.53274065065E+03  0.45604463133E+03 0.  0.
      99925    2    3    3    0    0  0.58293169801E+02 -0.65381019242E+02 -0.25856736118E+03  0.37910780540E+03  0.26304538871E+03 0.  0.
         25    1    3    3    0    0 -0.58293169801E+02  0.65381019242E+02 -0.16815817484E+02  0.15363284525E+03  0.12509000000E+03 0.  0.
         25    1    4    4    0    0  0.17227535034E+02 -0.47408278379E+02 -0.81014552955E+02  0.15733784895E+03  0.12509000000E+03 0.  0.
         25    1    4    4    0    0  0.41065634768E+02 -0.17972740863E+02 -0.17755280822E+03  0.22176995644E+03  0.12509000000E+03 0.  0.
<mgrwt>
<rscale>  2 0.45604463E+03</rscale>
<asrwt>0</asrwt>
<pdfrwt beam="1">  1       21 0.18923344E-01 0.45604463E+03</pdfrwt>
<pdfrwt beam="2">  1       21 0.59420869E-01 0.45604463E+03</pdfrwt>
<totfact> 0.62502276E+04</totfact>
</mgrwt>
</event>
<event>
 7    0  0.4725730E-002  0.4540943E+03  0.7546771E-02  0.1026508E+00
         21   -1    0    0  502  501  0.00000000000E+00  0.00000000000E+00  0.25185868317E+03  0.25185868317E+03  0.00000000000E+00 0.  1.
         21   -1    0    0  501  502 -0.00000000000E+00 -0.00000000000E+00 -0.20467990299E+03  0.20467990299E+03  0.00000000000E+00 0.  1.
      99926    2    1    2    0    0  0.35527136788E-14  0.00000000000E+00  0.47178780185E+02  0.45653858616E+03  0.45409431107E+03 0.  0.
      99925    2    3    3    0    0 -0.27592418096E+02  0.41200245964E+02 -0.71612768250E+02  0.27704557269E+03  0.26299630980E+03 0.  0.
         25    1    3    3    0    0  0.27592418096E+02 -0.41200245964E+02  0.11879154843E+03  0.17949301347E+03  0.12509000000E+03 0.  0.
         25    1    4    4    0    0  0.20574601674E+02  0.42015545942E+02 -0.33582646157E+02  0.13770955870E+03  0.12509000000E+03 0.  0.
         25    1    4    4    0    0 -0.48167019771E+02 -0.81529997807E+00 -0.38030122093E+02  0.13933601399E+03  0.12509000000E+03 0.  0.
<mgrwt>
<rscale>  2 0.45409431E+03</rscale>
<asrwt>0</asrwt>
<pdfrwt beam="1">  1       21 0.37038042E-01 0.45409431E+03</pdfrwt>
<pdfrwt beam="2">  1       21 0.30099986E-01 0.45409431E+03</pdfrwt>
<totfact> 0.68929947E+04</totfact>
</mgrwt>
</event>
<event>
 7    0  0.4725730E-002  0.4554083E+03  0.7546771E-02  0.1026121E+00
         21   -1    0    0  502  501  0.00000000000E+00  0.00000000000E+00  0.41062532026E+02  0.41062532026E+02  0.00000000000E+00 0. -1.
         21   -1    0    0  501  502 -0.00000000000E+00 -0.00000000000E+00 -0.12626884128E+04  0.12626884128E+04  0.00000000000E+00 0. -1.
      99926    2    1    2    0    0  0.00000000000E+00  0.00000000000E+00 -0.12216258807E+04  0.13037509448E+04  0.45540831520E+03 0.  0.
      99925    2    3    3    0    0  0.66143862408E+02  0.68583484359E+02 -0.59226991536E+03  0.65504828245E+03  0.26310814288E+03 0.  0.
         25    1    3    3    0    0 -0.66143862408E+02 -0.68583484359E+02 -0.62935596539E+03  0.64870266234E+03  0.12509000000E+03 0.  0.
         25    1    4    4    0    0  0.38992238322E+02 -0.21806663335E+01 -0.23635028974E+03  0.27024825164E+03  0.12509000000E+03 0.  0.
         25    1    4    4    0    0  0.27151624086E+02  0.70764150692E+02 -0.35591962562E+03  0.38480003081E+03  0.12509000000E+03 0.  0.
<mgrwt>
<rscale>  2 0.45540832E+03</rscale>
<asrwt>0</asrwt>
<pdfrwt beam="1">  1       21 0.60386071E-02 0.45540832E+03</pdfrwt>
<pdfrwt beam="2">  1       21 0.18568949E+00 0.45540832E+03</pdfrwt>
<totfact> 0.28914014E+04</totfact>
</mgrwt>
</event>
<event>
 7    0  0.4725730E-002  0.4511196E+03  0.7546771E-02  0.1027389E+00
         21   -1    0    0  502  501  0.00000000000E+00  0.00000000000E+00  0.27296701455E+03  0.27296701455E+03  0.00000000000E+00 0. -1.
         21   -1    0    0  501  502 -0.00000000000E+00 -0.00000000000E+00 -0.18638596270E+03  0.18638596270E+03  0.00000000000E+00 0. -1.
      99926    2    1    2    0    0 -0.88817841970E-15 -0.71054273576E-14  0.86581051851E+02  0.45935297725E+03  0.45111958411E+03 0.  0.
      99925    2    3    3    0    0 -0.73058256681E+01  0.53428421224E+02 -0.42326089526E+02  0.27180956766E+03  0.26302275934E+03 0.  0.
         25    1    4    4    0    0  0.86989606274E+01 -0.10500667822E+02 -0.33147932753E+02  0.13012390052E+03  0.12509000000E+03 0.  0.
         25    1    4    4    0    0 -0.16004786296E+02  0.63929089046E+02 -0.91781567736E+01  0.14168566714E+03  0.12509000000E+03 0.  0.
         25    1    3    3    0    0  0.73058256681E+01 -0.53428421224E+02  0.12890714138E+03  0.18754340959E+03  0.12509000000E+03 0.  0.
<mgrwt>
<rscale>  2 0.45111958E+03</rscale>
<asrwt>0</asrwt>
<pdfrwt beam="1">  1       21 0.40142208E-01 0.45111958E+03</pdfrwt>
<pdfrwt beam="2">  1       21 0.27409700E-01 0.45111958E+03</pdfrwt>
<totfact> 0.70377413E+04</totfact>
</mgrwt>
</event>
<event>
 7    0  0.4725730E-002  0.4456061E+03  0.7546771E-02  0.1029041E+00
         21   -1    0    0  502  501  0.00000000000E+00  0.00000000000E+00  0.47152247183E+03  0.47152247183E+03  0.00000000000E+00 0. -1.
         21   -1    0    0  501  502 -0.00000000000E+00 -0.00000000000E+00 -0.10527853427E+03  0.10527853427E+03  0.00000000000E+00 0. -1.
      99926    2    1    2    0    0  0.00000000000E+00  0.00000000000E+00  0.36624393756E+03  0.57680100610E+03  0.44560608034E+03 0.  0.
      99925    2    3    3    0    0  0.53961062719E+02  0.80733959474E+02  0.28108280266E+03  0.39699640243E+03  0.26299968269E+03 0.  0.
         25    1    4    4    0    0  0.33585282576E+02  0.35665482008E+02  0.19672731749E+03  0.23822078700E+03  0.12509000000E+03 0.  0.
         25    1    4    4    0    0  0.20375780143E+02  0.45068477466E+02  0.84355485162E+02  0.15877561543E+03  0.12509000000E+03 0.  0.
         25    1    3    3    0    0 -0.53961062719E+02 -0.80733959474E+02  0.85161134907E+02  0.17980460367E+03  0.12509000000E+03 0.  0.
<mgrwt>
<rscale>  2 0.44560608E+03</rscale>
<asrwt>0</asrwt>
<pdfrwt beam="1">  1       21 0.69341539E-01 0.44560608E+03</pdfrwt>
<pdfrwt beam="2">  1       21 0.15482138E-01 0.44560608E+03</pdfrwt>
<totfact> 0.64810449E+04</totfact>
</mgrwt>
</event>
<event>
 7    0  0.4725730E-002  0.4548986E+03  0.7546771E-02  0.1026271E+00
         21   -1    0    0  502  501  0.00000000000E+00  0.00000000000E+00  0.29027487735E+03  0.29027487735E+03  0.00000000000E+00 0. -1.
         21   -1    0    0  501  502 -0.00000000000E+00 -0.00000000000E+00 -0.17822135947E+03  0.17822135947E+03  0.00000000000E+00 0. -1.
      99926    2    1    2    0    0 -0.35527136788E-14  0.14210854715E-13  0.11205351788E+03  0.46849623682E+03  0.45489859644E+03 0.  0.
      99925    2    3    3    0    0  0.25235724565E+02 -0.86676489756E+02  0.14036819115E+03  0.31165592155E+03  0.26320434776E+03 0.  0.
         25    1    3    3    0    0 -0.25235724565E+02  0.86676489756E+02 -0.28314673267E+02  0.15684031527E+03  0.12509000000E+03 0.  0.
         25    1    4    4    0    0  0.51426287553E+02 -0.37962786139E+02  0.57860622248E+02  0.15192496796E+03  0.12509000000E+03 0.  0.
         25    1    4    4    0    0 -0.26190562988E+02 -0.48713703617E+02  0.82507568897E+02  0.15973095359E+03  0.12509000000E+03 0.  0.
<mgrwt>
<rscale>  2 0.45489860E+03</rscale>
<asrwt>0</asrwt>
<pdfrwt beam="1">  1       21 0.42687482E-01 0.45489860E+03</pdfrwt>
<pdfrwt beam="2">  1       21 0.26209023E-01 0.45489860E+03</pdfrwt>
<totfact> 0.67602151E+04</totfact>
</mgrwt>
</event>
<event>
 7    0  0.4725730E-002  0.4568488E+03  0.7546771E-02  0.1025699E+00
         21   -1    0    0  502  501  0.00000000000E+00  0.00000000000E+00  0.69597830661E+03  0.69597830661E+03  0.00000000000E+00 0.  1.
         21   -1    0    0  501  502 -0.00000000000E+00 -0.00000000000E+00 -0.74970308065E+02  0.74970308065E+02  0.00000000000E+00 0.  1.
      99926    2    1    2    0    0  0.00000000000E+00  0.00000000000E+00  0.62100799854E+03  0.77094861467E+03  0.45684880673E+03 0.  0.
      99925    2    3    3    0    0  0.11284271659E+03 -0.19590739207E+02  0.40473972549E+03  0.49610911646E+03  0.26304511835E+03 0.  0.
         25    1    4    4    0    0  0.69013642657E+02 -0.22782628109E+02  0.14689519925E+03  0.20617380697E+03  0.12509000000E+03 0.  0.
         25    1    3    3    0    0 -0.11284271659E+03  0.19590739207E+02  0.21626827305E+03  0.27483949821E+03  0.12509000000E+03 0.  0.
         25    1    4    4    0    0  0.43829073937E+02  0.31918889026E+01  0.25784452624E+03  0.28993530949E+03  0.12509000000E+03 0.  0.
<mgrwt>
<rscale>  2 0.45684881E+03</rscale>
<asrwt>0</asrwt>
<pdfrwt beam="1">  1       21 0.10234975E+00 0.45684881E+03</pdfrwt>
<pdfrwt beam="2">  1       21 0.11025046E-01 0.45684881E+03</pdfrwt>
<totfact> 0.48494408E+04</totfact>
</mgrwt>
</event>
<event>
 7    0  0.4725730E-002  0.4551650E+03  0.7546771E-02  0.1026193E+00
         21   -1    0    0  502  501  0.00000000000E+00  0.00000000000E+00  0.72587728796E+03  0.72587728796E+03  0.00000000000E+00 0.  1.
         21   -1    0    0  501  502 -0.00000000000E+00 -0.00000000000E+00 -0.71353378395E+02  0.71353378395E+02  0.00000000000E+00 0.  1.
      99926    2    1    2    0    0  0.00000000000E+00  0.00000000000E+00  0.65452390957E+03  0.79723066636E+03  0.45516501094E+03 0.  0.
      99925    2    3    3    0    0 -0.90517432323E+02  0.64667137299E+02  0.44937746976E+03  0.53245186421E+03  0.26303922364E+03 0.  0.
         25    1    3    3    0    0  0.90517432323E+02 -0.64667137299E+02  0.20514643981E+03  0.26477880215E+03  0.12509000000E+03 0.  0.
         25    1    4    4    0    0 -0.38471637192E+02  0.37961016271E+02  0.29724979575E+03  0.32699549661E+03  0.12509000000E+03 0.  0.
         25    1    4    4    0    0 -0.52045795131E+02  0.26706121029E+02  0.15212767401E+03  0.20545636761E+03  0.12509000000E+03 0.  0.
<mgrwt>
<rscale>  2 0.45516501E+03</rscale>
<asrwt>0</asrwt>
<pdfrwt beam="1">  1       21 0.10674666E+00 0.45516501E+03</pdfrwt>
<pdfrwt beam="2">  1       21 0.10493144E-01 0.45516501E+03</pdfrwt>
<totfact> 0.47837074E+04</totfact>
</mgrwt>
</event>
<event>
 7    0  0.4725730E-002  0.4577028E+03  0.7546771E-02  0.1025450E+00
         21   -1    0    0  502  501  0.00000000000E+00  0.00000000000E+00  0.28449377967E+03  0.28449377967E+03  0.00000000000E+00 0. -1.
         21   -1    0    0  501  502 -0.00000000000E+00 -0.00000000000E+00 -0.18409174937E+03  0.18409174937E+03  0.00000000000E+00 0. -1.
      99926    2    1    2    0    0  0.00000000000E+00  0.00000000000E+00  0.10040203029E+03  0.46858552904E+03  0.45770277511E+03 0.  0.
      99925    2    3    3    0    0 -0.11191870630E+03 -0.55804507036E+01  0.33495421912E+02  0.28780682290E+03  0.26297126415E+03 0.  0.
         25    1    4    4    0    0 -0.57270374283E+02 -0.32037987094E+02 -0.11334578850E+02  0.14171206429E+03  0.12509000000E+03 0.  0.
         25    1    3    3    0    0  0.11191870630E+03  0.55804507036E+01  0.66906608381E+02  0.18077870614E+03  0.12509000000E+03 0.  0.
         25    1    4    4    0    0 -0.54648332019E+02  0.26457536390E+02  0.44830000762E+02  0.14609475861E+03  0.12509000000E+03 0.  0.
<mgrwt>
<rscale>  2 0.45770278E+03</rscale>
<asrwt>0</asrwt>
<pdfrwt beam="1">  1       21 0.41837321E-01 0.45770278E+03</pdfrwt>
<pdfrwt beam="2">  1       21 0.27072316E-01 0.45770278E+03</pdfrwt>
<totfact> 0.66112700E+04</totfact>
</mgrwt>
</event>
<event>
 7    0  0.4725730E-002  0.4589361E+03  0.7546771E-02  0.1025090E+00
         21   -1    0    0  502  501  0.00000000000E+00  0.00000000000E+00  0.49227014141E+02  0.49227014141E+02  0.00000000000E+00 0. -1.
         21   -1    0    0  501  502 -0.00000000000E+00 -0.00000000000E+00 -0.10696483561E+04  0.10696483561E+04  0.00000000000E+00 0. -1.
      99926    2    1    2    0    0  0.00000000000E+00  0.00000000000E+00 -0.10204213420E+04  0.11188753702E+04  0.45893613826E+03 0.  0.
      99925    2    3    3    0    0  0.58680078693E+02  0.10095053101E+03 -0.65822511003E+03  0.71829082253E+03  0.26276805152E+03 0.  0.
         25    1    4    4    0    0  0.19629789272E+02  0.82156211499E+02 -0.28885667877E+03  0.32591511270E+03  0.12509000000E+03 0.  0.
         25    1    4    4    0    0  0.39050289421E+02  0.18794319508E+02 -0.36936843126E+03  0.39237570983E+03  0.12509000000E+03 0.  0.
         25    1    3    3    0    0 -0.58680078693E+02 -0.10095053101E+03 -0.36219623193E+03  0.40058454772E+03  0.12509000000E+03 0.  0.
<mgrwt>
<rscale>  2 0.45893614E+03</rscale>
<asrwt>0</asrwt>
<pdfrwt beam="1">  1       21 0.72392673E-02 0.45893614E+03</pdfrwt>
<pdfrwt beam="2">  1       21 0.15730122E+00 0.45893614E+03</pdfrwt>
<totfact> 0.33789799E+04</totfact>
</mgrwt>
</event>
<event>
 7    0  0.4725730E-002  0.4551922E+03  0.7546771E-02  0.1026185E+00
         21   -1    0    0  502  501  0.00000000000E+00  0.00000000000E+00  0.70534579298E+02  0.70534579298E+02  0.00000000000E+00 0.  1.
         21   -1    0    0  501  502 -0.00000000000E+00 -0.00000000000E+00 -0.73439149665E+03  0.73439149665E+03  0.00000000000E+00 0.  1.
      99926    2    1    2    0    0  0.00000000000E+00  0.00000000000E+00 -0.66385691735E+03  0.80492607595E+03  0.45519224623E+03 0.  0.
      99925    2    3    3    0    0  0.10849904066E+03  0.32192323092E+02 -0.43104595772E+03  0.51742505244E+03  0.26290621853E+03 0.  0.
         25    1    4    4    0    0  0.62621453266E+02  0.45736902463E+02 -0.27403336347E+03  0.31105482323E+03  0.12509000000E+03 0.  0.
         25    1    3    3    0    0 -0.10849904066E+03 -0.32192323092E+02 -0.23281095964E+03  0.28750102351E+03  0.12509000000E+03 0.  0.
         25    1    4    4    0    0  0.45877587396E+02 -0.13544579371E+02 -0.15701259424E+03  0.20637022922E+03  0.12509000000E+03 0.  0.
<mgrwt>
<rscale>  2 0.45519225E+03</rscale>
<asrwt>0</asrwt>
<pdfrwt beam="1">  1       21 0.10372732E-01 0.45519225E+03</pdfrwt>
<pdfrwt beam="2">  1       21 0.10799875E+00 0.45519225E+03</pdfrwt>
<totfact> 0.47455825E+04</totfact>
</mgrwt>
</event>
<event>
 7    0  0.4725730E-002  0.4000031E+03  0.7546771E-02  0.1043779E+00
         21   -1    0    0  502  501  0.00000000000E+00  0.00000000000E+00  0.64542173512E+03  0.64542173512E+03  0.00000000000E+00 0.  1.
         21   -1    0    0  501  502 -0.00000000000E+00 -0.00000000000E+00 -0.61975930736E+02  0.61975930736E+02  0.00000000000E+00 0.  1.
      99926    2    1    2    0    0  0.00000000000E+00  0.00000000000E+00  0.58344580438E+03  0.70739766586E+03  0.40000306374E+03 0.  0.
      99925    2    3    3    0    0 -0.22505003010E+02  0.39232997626E+02  0.38262265190E+03  0.46651771663E+03  0.26304559096E+03 0.  0.
         25    1    3    3    0    0  0.22505003010E+02 -0.39232997626E+02  0.20082315249E+03  0.24087994922E+03  0.12509000000E+03 0.  0.
         25    1    4    4    0    0 -0.12846469929E+02  0.50647761688E+01  0.12209983427E+03  0.17534697424E+03  0.12509000000E+03 0.  0.
         25    1    4    4    0    0 -0.96585330805E+01  0.34168221458E+02  0.26052281763E+03  0.29117074239E+03  0.12509000000E+03 0.  0.
<mgrwt>
<rscale>  2 0.40000306E+03</rscale>
<asrwt>0</asrwt>
<pdfrwt beam="1">  1       21 0.94914957E-01 0.40000306E+03</pdfrwt>
<pdfrwt beam="2">  1       21 0.91141078E-02 0.40000306E+03</pdfrwt>
<totfact> 0.83004819E+04</totfact>
</mgrwt>
</event>
<event>
 7    0  0.4725730E-002  0.4557020E+03  0.7546771E-02  0.1026035E+00
         21   -1    0    0  502  501  0.00000000000E+00  0.00000000000E+00  0.30758087117E+03  0.30758087117E+03  0.00000000000E+00 0.  1.
         21   -1    0    0  501  502 -0.00000000000E+00 -0.00000000000E+00 -0.16878838240E+03  0.16878838240E+03  0.00000000000E+00 0.  1.
      99926    2    1    2    0    0  0.00000000000E+00  0.00000000000E+00  0.13879248877E+03  0.47636925357E+03  0.45570199781E+03 0.  0.
      99925    2    3    3    0    0  0.96355222851E+02  0.59596465863E+02  0.85430990879E+02  0.29936353256E+03  0.26359818419E+03 0.  0.
         25    1    4    4    0    0  0.81786244222E+02  0.49468394151E+01  0.40652752141E+02  0.15496327088E+03  0.12509000000E+03 0.  0.
         25    1    4    4    0    0  0.14568978629E+02  0.54649626448E+02  0.44778238739E+02  0.14440026168E+03  0.12509000000E+03 0.  0.
         25    1    3    3    0    0 -0.96355222851E+02 -0.59596465863E+02  0.53361497892E+02  0.17700572101E+03  0.12509000000E+03 0.  0.
<mgrwt>
<rscale>  2 0.45570200E+03</rscale>
<asrwt>0</asrwt>
<pdfrwt beam="1">  1       21 0.45232481E-01 0.45570200E+03</pdfrwt>
<pdfrwt beam="2">  1       21 0.24821821E-01 0.45570200E+03</pdfrwt>
<totfact> 0.66593575E+04</totfact>
</mgrwt>
</event>
<event>
 7    0  0.4725730E-002  0.4565515E+03  0.7546771E-02  0.1025786E+00
         21   -1    0    0  502  501  0.00000000000E+00  0.00000000000E+00  0.83533528004E+03  0.83533528004E+03  0.00000000000E+00 0.  1.
         21   -1    0    0  501  502 -0.00000000000E+00 -0.00000000000E+00 -0.62381908461E+02  0.62381908461E+02  0.00000000000E+00 0.  1.
      99926    2    1    2    0    0  0.00000000000E+00  0.14210854715E-13  0.77295337158E+03  0.89771718850E+03  0.45655146029E+03 0.  0.
      99925    2    3    3    0    0  0.19189948752E+02  0.84759145856E+02  0.33779293503E+03  0.43667003194E+03  0.26272472837E+03 0.  0.
         25    1    4    4    0    0  0.40019744502E+01  0.67681884872E+00  0.14750827107E+03  0.19344940428E+03  0.12509000000E+03 0.  0.
         25    1    4    4    0    0  0.15187974302E+02  0.84082327007E+02  0.19028466396E+03  0.24322062766E+03  0.12509000000E+03 0.  0.
         25    1    3    3    0    0 -0.19189948752E+02 -0.84759145856E+02  0.43516043655E+03  0.46104715657E+03  0.12509000000E+03 0.  0.
<mgrwt>
<rscale>  2 0.45655146E+03</rscale>
<asrwt>0</asrwt>
<pdfrwt beam="1">  1       21 0.12284342E+00 0.45655146E+03</pdfrwt>
<pdfrwt beam="2">  1       21 0.91738106E-02 0.45655146E+03</pdfrwt>
<totfact> 0.42810121E+04</totfact>
</mgrwt>
</event>
<event>
 7    0  0.4725730E-002  0.4570151E+03  0.7546771E-02  0.1025650E+00
         21   -1    0    0  502  501  0.00000000000E+00  0.00000000000E+00  0.59335133963E+03  0.59335133963E+03  0.00000000000E+00 0. -1.
         21   -1    0    0  501  502 -0.00000000000E+00 -0.00000000000E+00 -0.88001302898E+02  0.88001302898E+02  0.00000000000E+00 0. -1.
      99926    2    1    2    0    0  0.00000000000E+00  0.00000000000E+00  0.50535003673E+03  0.68135264253E+03  0.45701505867E+03 0.  0.
      99925    2    3    3    0    0 -0.98190017052E+02 -0.49761767351E+02  0.36756891528E+03  0.46513826172E+03  0.26292428967E+03 0.  0.
         25    1    4    4    0    0 -0.55591243299E+02 -0.66578370714E+01  0.24052461809E+03  0.27682903231E+03  0.12509000000E+03 0.  0.
         25    1    4    4    0    0 -0.42598773753E+02 -0.43103930279E+02  0.12704429720E+03  0.18830922941E+03  0.12509000000E+03 0.  0.
         25    1    3    3    0    0  0.98190017052E+02  0.49761767351E+02  0.13778112145E+03  0.21621438080E+03  0.12509000000E+03 0.  0.
<mgrwt>
<rscale>  2 0.45701506E+03</rscale>
<asrwt>0</asrwt>
<pdfrwt beam="1">  1       21 0.87257548E-01 0.45701506E+03</pdfrwt>
<pdfrwt beam="2">  1       21 0.12941368E-01 0.45701506E+03</pdfrwt>
<totfact> 0.53080138E+04</totfact>
</mgrwt>
</event>
<event>
 7    0  0.4725730E-002  0.4536472E+03  0.7546771E-02  0.1026640E+00
         21   -1    0    0  502  501  0.00000000000E+00  0.00000000000E+00  0.27213481832E+03  0.27213481832E+03  0.00000000000E+00 0. -1.
         21   -1    0    0  501  502 -0.00000000000E+00 -0.00000000000E+00 -0.18905685946E+03  0.18905685946E+03  0.00000000000E+00 0. -1.
      99926    2    1    2    0    0  0.00000000000E+00  0.00000000000E+00  0.83077958861E+02  0.46119167779E+03  0.45364723785E+03 0.  0.
      99925    2    3    3    0    0  0.45235091647E+02 -0.10217817913E+03  0.58751838781E+02  0.29170462216E+03  0.26296998731E+03 0.  0.
         25    1    4    4    0    0  0.59173962927E+02 -0.35213723844E+02  0.22007752864E+02  0.14447634243E+03  0.12509000000E+03 0.  0.
         25    1    4    4    0    0 -0.13938871280E+02 -0.66964455282E+02  0.36744085917E+02  0.14722827973E+03  0.12509000000E+03 0.  0.
         25    1    3    3    0    0 -0.45235091647E+02  0.10217817913E+03  0.24326120080E+02  0.16948705562E+03  0.12509000000E+03 0.  0.
<mgrwt>
<rscale>  2 0.45364724E+03</rscale>
<asrwt>0</asrwt>
<pdfrwt beam="1">  1       21 0.40019826E-01 0.45364724E+03</pdfrwt>
<pdfrwt beam="2">  1       21 0.27802479E-01 0.45364724E+03</pdfrwt>
<totfact> 0.68830974E+04</totfact>
</mgrwt>
</event>
<event>
 7    0  0.4725730E-002  0.4535252E+03  0.7546771E-02  0.1026676E+00
         21   -1    0    0  502  501  0.00000000000E+00  0.00000000000E+00  0.46074295406E+02  0.46074295406E+02  0.00000000000E+00 0. -1.
         21   -1    0    0  501  502 -0.00000000000E+00 -0.00000000000E+00 -0.11160510737E+04  0.11160510737E+04  0.00000000000E+00 0. -1.
      99926    2    1    2    0    0 -0.14210854715E-13  0.00000000000E+00 -0.10699767783E+04  0.11621253691E+04  0.45352515635E+03 0.  0.
      99925    2    3    3    0    0 -0.78769078772E+02 -0.78789573590E+02 -0.69452208504E+03  0.75099753076E+03  0.26310454182E+03 0.  0.
         25    1    4    4    0    0 -0.70243967604E+02 -0.14453689648E+02 -0.32673659722E+03  0.35713783921E+03  0.12509000000E+03 0.  0.
         25    1    4    4    0    0 -0.85251111675E+01 -0.64335883942E+02 -0.36778548782E+03  0.39385969155E+03  0.12509000000E+03 0.  0.
         25    1    3    3    0    0  0.78769078772E+02  0.78789573590E+02 -0.37545469329E+03  0.41112783838E+03  0.12509000000E+03 0.  0.
<mgrwt>
<rscale>  2 0.45352516E+03</rscale>
<asrwt>0</asrwt>
<pdfrwt beam="1">  1       21 0.67756319E-02 0.45352516E+03</pdfrwt>
<pdfrwt beam="2">  1       21 0.16412515E+00 0.45352516E+03</pdfrwt>
<totfact> 0.33766511E+04</totfact>
</mgrwt>
</event>
<event>
 7    0  0.4725730E-002  0.4561313E+03  0.7546771E-02  0.1025909E+00
         21   -1    0    0  502  501  0.00000000000E+00  0.00000000000E+00  0.37770058270E+03  0.37770058270E+03  0.00000000000E+00 0. -1.
         21   -1    0    0  501  502 -0.00000000000E+00 -0.00000000000E+00 -0.13771207878E+03  0.13771207878E+03  0.00000000000E+00 0. -1.
      99926    2    1    2    0    0 -0.35527136788E-14  0.00000000000E+00  0.23998850392E+03  0.51541266148E+03  0.45613126357E+03 0.  0.
      99925    2    3    3    0    0 -0.27805754762E+02 -0.97980078766E+02  0.92295896336E+02  0.29670310461E+03  0.26294665613E+03 0.  0.
         25    1    4    4    0    0 -0.38616082509E+02 -0.77229083171E+02  0.29657263955E+02  0.15486314772E+03  0.12509000000E+03 0.  0.
         25    1    4    4    0    0  0.10810327747E+02 -0.20750995596E+02  0.62638632381E+02  0.14183995689E+03  0.12509000000E+03 0.  0.
         25    1    3    3    0    0  0.27805754762E+02  0.97980078766E+02  0.14769260759E+03  0.21870955688E+03  0.12509000000E+03 0.  0.
<mgrwt>
<rscale>  2 0.45613126E+03</rscale>
<asrwt>0</asrwt>
<pdfrwt beam="1">  1       21 0.55544203E-01 0.45613126E+03</pdfrwt>
<pdfrwt beam="2">  1       21 0.20251776E-01 0.45613126E+03</pdfrwt>
<totfact> 0.63627794E+04</totfact>
</mgrwt>
</event>
<event>
 7    0  0.4725730E-002  0.4391426E+03  0.7546771E-02  0.1031010E+00
         21   -1    0    0  502  501  0.00000000000E+00  0.00000000000E+00  0.13717104395E+03  0.13717104395E+03  0.00000000000E+00 0. -1.
         21   -1    0    0  501  502 -0.00000000000E+00 -0.00000000000E+00 -0.35147030734E+03  0.35147030734E+03  0.00000000000E+00 0. -1.
      99926    2    1    2    0    0  0.00000000000E+00  0.00000000000E+00 -0.21429926338E+03  0.48864135129E+03  0.43914256900E+03 0.  0.
      99925    2    3    3    0    0 -0.35779409910E+02 -0.41612132806E+02 -0.47160053593E+02  0.27278315867E+03  0.26301111237E+03 0.  0.
         25    1    3    3    0    0  0.35779409910E+02  0.41612132806E+02 -0.16713920979E+03  0.21585819262E+03  0.12509000000E+03 0.  0.
         25    1    4    4    0    0 -0.16262058469E+02  0.12174060810E+02  0.18947131694E+01  0.12674289069E+03  0.12509000000E+03 0.  0.
         25    1    4    4    0    0 -0.19517351442E+02 -0.53786193615E+02 -0.49054766763E+02  0.14604026798E+03  0.12509000000E+03 0.  0.
<mgrwt>
<rscale>  2 0.43914257E+03</rscale>
<asrwt>0</asrwt>
<pdfrwt beam="1">  1       21 0.20172213E-01 0.43914257E+03</pdfrwt>
<pdfrwt beam="2">  1       21 0.51686809E-01 0.43914257E+03</pdfrwt>
<totfact> 0.75093013E+04</totfact>
</mgrwt>
</event>
<event>
 7    0  0.4725730E-002  0.4795039E+03  0.7546771E-02  0.1019272E+00
         21   -1    0    0  502  501  0.00000000000E+00  0.00000000000E+00  0.27574663995E+03  0.27574663995E+03  0.00000000000E+00 0. -1.
         21   -1    0    0  501  502 -0.00000000000E+00 -0.00000000000E+00 -0.20845583209E+03  0.20845583209E+03  0.00000000000E+00 0. -1.
      99926    2    1    2    0    0  0.00000000000E+00  0.00000000000E+00  0.67290807865E+02  0.48420247204E+03  0.47950389061E+03 0.  0.
      99925    2    3    3    0    0 -0.91393170419E+02  0.99114756916E+02  0.40378354201E+02  0.29833091720E+03  0.26304843286E+03 0.  0.
         25    1    4    4    0    0 -0.20749912336E+02  0.16525493032E+02  0.41375696999E+00  0.12787231943E+03  0.12509000000E+03 0.  0.
         25    1    3    3    0    0  0.91393170419E+02 -0.99114756916E+02  0.26912453664E+02  0.18587155484E+03  0.12509000000E+03 0.  0.
         25    1    4    4    0    0 -0.70643258083E+02  0.82589263884E+02  0.39964597231E+02  0.17045859777E+03  0.12509000000E+03 0.  0.
<mgrwt>
<rscale>  2 0.47950389E+03</rscale>
<asrwt>0</asrwt>
<pdfrwt beam="1">  1       21 0.40550977E-01 0.47950389E+03</pdfrwt>
<pdfrwt beam="2">  1       21 0.30655269E-01 0.47950389E+03</pdfrwt>
<totfact> 0.54907536E+04</totfact>
</mgrwt>
</event>
<event>
 7    0  0.4725730E-002  0.4553601E+03  0.7546771E-02  0.1026136E+00
         21   -1    0    0  502  501  0.00000000000E+00  0.00000000000E+00  0.93197169908E+02  0.93197169908E+02  0.00000000000E+00 0.  1.
         21   -1    0    0  501  502 -0.00000000000E+00 -0.00000000000E+00 -0.55622080484E+03  0.55622080484E+03  0.00000000000E+00 0.  1.
      99926    2    1    2    0    0  0.00000000000E+00  0.00000000000E+00 -0.46302363494E+03  0.64941797475E+03  0.45536009863E+03 0.  0.
      99925    2    3    3    0    0 -0.91520655088E+02  0.34432050821E+02 -0.20889295047E+03  0.34976566070E+03  0.26294135509E+03 0.  0.
         25    1    3    3    0    0  0.91520655088E+02 -0.34432050821E+02 -0.25413068447E+03  0.29965231406E+03  0.12509000000E+03 0.  0.
         25    1    4    4    0    0 -0.46650868452E+02 -0.19367080458E+02 -0.12346688496E+03  0.18287418384E+03  0.12509000000E+03 0.  0.
         25    1    4    4    0    0 -0.44869786636E+02  0.53799131278E+02 -0.85426065506E+02  0.16689147685E+03  0.12509000000E+03 0.  0.
<mgrwt>
<rscale>  2 0.45536010E+03</rscale>
<asrwt>0</asrwt>
<pdfrwt beam="1">  1       21 0.13705466E-01 0.45536010E+03</pdfrwt>
<pdfrwt beam="2">  1       21 0.81797181E-01 0.45536010E+03</pdfrwt>
<totfact> 0.55576977E+04</totfact>
</mgrwt>
</event>
<event>
 7    0  0.4725730E-002  0.4342980E+03  0.7546771E-02  0.1032511E+00
         21   -1    0    0  502  501  0.00000000000E+00  0.00000000000E+00  0.13815009729E+03  0.13815009729E+03  0.00000000000E+00 0.  1.
         21   -1    0    0  501  502 -0.00000000000E+00 -0.00000000000E+00 -0.34132218312E+03  0.34132218312E+03  0.00000000000E+00 0.  1.
      99926    2    1    2    0    0  0.17763568394E-14  0.00000000000E+00 -0.20317208583E+03  0.47947228042E+03  0.43429802121E+03 0.  0.
      99925    2    3    3    0    0  0.83950588472E+01 -0.53462430735E+02 -0.47652370857E+02  0.27268108535E+03  0.26297436632E+03 0.  0.
         25    1    4    4    0    0  0.39991947819E+02 -0.24807961961E+02 -0.43145898996E+02  0.14044168743E+03  0.12509000000E+03 0.  0.
         25    1    3    3    0    0 -0.83950588472E+01  0.53462430735E+02 -0.15551971498E+03  0.20679119507E+03  0.12509000000E+03 0.  0.
         25    1    4    4    0    0 -0.31596888972E+02 -0.28654468773E+02 -0.45064718611E+01  0.13223939792E+03  0.12509000000E+03 0.  0.
<mgrwt>
<rscale>  2 0.43429802E+03</rscale>
<asrwt>0</asrwt>
<pdfrwt beam="1">  1       21 0.20316191E-01 0.43429802E+03</pdfrwt>
<pdfrwt beam="2">  1       21 0.50194439E-01 0.43429802E+03</pdfrwt>
<totfact> 0.78934811E+04</totfact>
</mgrwt>
</event>
<event>
 7    0  0.4725730E-002  0.4410870E+03  0.7546771E-02  0.1030414E+00
         21   -1    0    0  502  501  0.00000000000E+00  0.00000000000E+00  0.55110422150E+03  0.55110422150E+03  0.00000000000E+00 0.  1.
         21   -1    0    0  501  502 -0.00000000000E+00 -0.00000000000E+00 -0.88258161938E+02  0.88258161938E+02  0.00000000000E+00 0.  1.
      99926    2    1    2    0    0  0.00000000000E+00  0.17763568394E-14  0.46284605956E+03  0.63936238344E+03  0.44108704640E+03 0.  0.
      99925    2    3    3    0    0 -0.51227185871E+02  0.65265384719E+01  0.17185778249E+03  0.31844416057E+03  0.26306798688E+03 0.  0.
         25    1    4    4    0    0 -0.41846878692E+02  0.40371466976E+02  0.94913818276E+02  0.16744299807E+03  0.12509000000E+03 0.  0.
         25    1    4    4    0    0 -0.93803071782E+01 -0.33844928504E+02  0.76943964218E+02  0.15100116250E+03  0.12509000000E+03 0.  0.
         25    1    3    3    0    0  0.51227185871E+02 -0.65265384719E+01  0.29098827706E+03  0.32091822286E+03  0.12509000000E+03 0.  0.
<mgrwt>
<rscale>  2 0.44108705E+03</rscale>
<asrwt>0</asrwt>
<pdfrwt beam="1">  1       21 0.81044737E-01 0.44108705E+03</pdfrwt>
<pdfrwt beam="2">  1       21 0.12979142E-01 0.44108705E+03</pdfrwt>
<totfact> 0.62950003E+04</totfact>
</mgrwt>
</event>
<event>
 7    0  0.4725730E-002  0.4477749E+03  0.7546771E-02  0.1028388E+00
         21   -1    0    0  502  501  0.00000000000E+00  0.00000000000E+00  0.61927129294E+02  0.61927129294E+02  0.00000000000E+00 0. -1.
         21   -1    0    0  501  502 -0.00000000000E+00 -0.00000000000E+00 -0.80942852634E+03  0.80942852634E+03  0.00000000000E+00 0. -1.
      99926    2    1    2    0    0  0.00000000000E+00  0.00000000000E+00 -0.74750139705E+03  0.87135565563E+03  0.44777487649E+03 0.  0.
      99925    2    3    3    0    0  0.65326324907E+02 -0.52748326022E+02 -0.60029624537E+03  0.66072142431E+03  0.26295874908E+03 0.  0.
         25    1    3    3    0    0 -0.65326324907E+02  0.52748326022E+02 -0.14720515167E+03  0.21063423132E+03  0.12509000000E+03 0.  0.
         25    1    4    4    0    0  0.43229512860E+02 -0.20709951431E+02 -0.39586119490E+03  0.41791301319E+03  0.12509000000E+03 0.  0.
         25    1    4    4    0    0  0.22096812048E+02 -0.32038374591E+02 -0.20443505047E+03  0.24280841112E+03  0.12509000000E+03 0.  0.
<mgrwt>
<rscale>  2 0.44777488E+03</rscale>
<asrwt>0</asrwt>
<pdfrwt beam="1">  1       21 0.91069302E-02 0.44777488E+03</pdfrwt>
<pdfrwt beam="2">  1       21 0.11903361E+00 0.44777488E+03</pdfrwt>
<totfact> 0.47105216E+04</totfact>
</mgrwt>
</event>
<event>
 7    0  0.4725730E-002  0.4318458E+03  0.7546771E-02  0.1033278E+00
         21   -1    0    0  502  501  0.00000000000E+00  0.00000000000E+00  0.23727352546E+03  0.23727352546E+03  0.00000000000E+00 0. -1.
         21   -1    0    0  501  502 -0.00000000000E+00 -0.00000000000E+00 -0.19649346856E+03  0.19649346856E+03  0.00000000000E+00 0. -1.
      99926    2    1    2    0    0  0.00000000000E+00  0.71054273576E-14  0.40780056906E+02  0.43376699402E+03  0.43184579662E+03 0.  0.
      99925    2    3    3    0    0 -0.55782568910E+02 -0.51049548137E+02  0.74885644701E+02  0.28367218872E+03  0.26295303670E+03 0.  0.
         25    1    4    4    0    0 -0.17625465951E+02  0.88590427614E+01  0.13782636750E+02  0.12738370722E+03  0.12509000000E+03 0.  0.
         25    1    3    3    0    0  0.55782568910E+02  0.51049548137E+02 -0.34105587796E+02  0.15009480530E+03  0.12509000000E+03 0.  0.
         25    1    4    4    0    0 -0.38157102959E+02 -0.59908590898E+02  0.61103007951E+02  0.15628848150E+03  0.12509000000E+03 0.  0.
<mgrwt>
<rscale>  2 0.43184580E+03</rscale>
<asrwt>0</asrwt>
<pdfrwt beam="1">  1       21 0.34893166E-01 0.43184580E+03</pdfrwt>
<pdfrwt beam="2">  1       21 0.28896098E-01 0.43184580E+03</pdfrwt>
<totfact> 0.84734907E+04</totfact>
</mgrwt>
</event>
<event>
 7    0  0.4725730E-002  0.4915160E+03  0.7546771E-02  0.1016017E+00
         21   -1    0    0  502  501  0.00000000000E+00  0.00000000000E+00  0.24545867248E+03  0.24545867248E+03  0.00000000000E+00 0.  1.
         21   -1    0    0  501  502 -0.00000000000E+00 -0.00000000000E+00 -0.24605766597E+03  0.24605766597E+03  0.00000000000E+00 0.  1.
      99926    2    1    2    0    0  0.00000000000E+00  0.00000000000E+00 -0.59899348777E+00  0.49151633845E+03  0.49151597346E+03 0.  0.
      99925    2    3    3    0    0  0.95528464900E+02 -0.10895413125E+03 -0.14974615611E+01  0.30008748569E+03  0.26278045276E+03 0.  0.
         25    1    4    4    0    0  0.55767431125E+02 -0.60882085178E+02  0.38400856989E+02  0.15472158410E+03  0.12509000000E+03 0.  0.
         25    1    4    4    0    0  0.39761033775E+02 -0.48072046075E+02 -0.39898318550E+02  0.14536590159E+03  0.12509000000E+03 0.  0.
         25    1    3    3    0    0 -0.95528464900E+02  0.10895413125E+03  0.89846807333E+00  0.19142885276E+03  0.12509000000E+03 0.  0.
<mgrwt>
<rscale>  2 0.49151597E+03</rscale>
<asrwt>0</asrwt>
<pdfrwt beam="1">  1       21 0.36096864E-01 0.49151597E+03</pdfrwt>
<pdfrwt beam="2">  1       21 0.36184951E-01 0.49151597E+03</pdfrwt>
<totfact> 0.49784706E+04</totfact>
</mgrwt>
</event>
<event>
 7    0  0.4725730E-002  0.4575212E+03  0.7546771E-02  0.1025503E+00
         21   -1    0    0  502  501  0.00000000000E+00  0.00000000000E+00  0.33090220582E+03  0.33090220582E+03  0.00000000000E+00 0.  1.
         21   -1    0    0  501  502 -0.00000000000E+00 -0.00000000000E+00 -0.15814763702E+03  0.15814763702E+03  0.00000000000E+00 0.  1.
      99926    2    1    2    0    0  0.14210854715E-13 -0.14210854715E-13  0.17275456880E+03  0.48904984283E+03  0.45752115551E+03 0.  0.
      99925    2    3    3    0    0 -0.88792664233E+02  0.70390586455E+02  0.82083446555E+02  0.29745722191E+03  0.26249597099E+03 0.  0.
         25    1    4    4    0    0 -0.85596868085E+02  0.34909994371E+02  0.51508707582E+02  0.16384805946E+03  0.12509000000E+03 0.  0.
         25    1    3    3    0    0  0.88792664233E+02 -0.70390586455E+02  0.90671122240E+02  0.19159262092E+03  0.12509000000E+03 0.  0.
         25    1    4    4    0    0 -0.31957961480E+01  0.35480592084E+02  0.30574738973E+02  0.13360916245E+03  0.12509000000E+03 0.  0.
<mgrwt>
<rscale>  2 0.45752116E+03</rscale>
<asrwt>0</asrwt>
<pdfrwt beam="1">  1       21 0.48662089E-01 0.45752116E+03</pdfrwt>
<pdfrwt beam="2">  1       21 0.23257005E-01 0.45752116E+03</pdfrwt>
<totfact> 0.64741508E+04</totfact>
</mgrwt>
</event>
<event>
 7    0  0.4725730E-002  0.4537364E+03  0.7546771E-02  0.1026614E+00
         21   -1    0    0  502  501  0.00000000000E+00  0.00000000000E+00  0.60738386192E+03  0.60738386192E+03  0.00000000000E+00 0. -1.
         21   -1    0    0  501  502 -0.00000000000E+00 -0.00000000000E+00 -0.84739148201E+02  0.84739148201E+02  0.00000000000E+00 0. -1.
      99926    2    1    2    0    0  0.35527136788E-14  0.14210854715E-13  0.52264471372E+03  0.69212301012E+03  0.45373644813E+03 0.  0.
      99925    2    3    3    0    0  0.27719905333E+02 -0.77814148019E+02  0.44459016202E+03  0.52311574423E+03  0.26299474312E+03 0.  0.
         25    1    4    4    0    0  0.25539072104E+02  0.55107978220E+00  0.19280926164E+03  0.23124763213E+03  0.12509000000E+03 0.  0.
         25    1    3    3    0    0 -0.27719905333E+02  0.77814148019E+02  0.78054551697E+02  0.16900726589E+03  0.12509000000E+03 0.  0.
         25    1    4    4    0    0  0.21808332285E+01 -0.78365227801E+02  0.25178090039E+03  0.29186811210E+03  0.12509000000E+03 0.  0.
<mgrwt>
<rscale>  2 0.45373645E+03</rscale>
<asrwt>0</asrwt>
<pdfrwt beam="1">  1       21 0.89321154E-01 0.45373645E+03</pdfrwt>
<pdfrwt beam="2">  1       21 0.12461640E-01 0.45373645E+03</pdfrwt>
<totfact> 0.53866546E+04</totfact>
</mgrwt>
</event>
<event>
 7    0  0.4725730E-002  0.4518283E+03  0.7546771E-02  0.1027178E+00
         21   -1    0    0  502  501  0.00000000000E+00  0.00000000000E+00  0.77858096873E+02  0.77858096873E+02  0.00000000000E+00 0. -1.
         21   -1    0    0  501  502 -0.00000000000E+00 -0.00000000000E+00 -0.65551570616E+03  0.65551570616E+03  0.00000000000E+00 0. -1.
      99926    2    1    2    0    0  0.00000000000E+00  0.00000000000E+00 -0.57765760929E+03  0.73337380304E+03  0.45182830966E+03 0.  0.
      99925    2    3    3    0    0  0.88441654450E+02  0.63508885667E+02 -0.39139959602E+03  0.48398482893E+03  0.26304441843E+03 0.  0.
         25    1    3    3    0    0 -0.88441654450E+02 -0.63508885667E+02 -0.18625801327E+03  0.24938897411E+03  0.12509000000E+03 0.  0.
         25    1    4    4    0    0  0.43065265607E+02  0.24243577335E+02 -0.12496502660E+03  0.18359230408E+03  0.12509000000E+03 0.  0.
         25    1    4    4    0    0  0.45376388843E+02  0.39265308332E+02 -0.26643456942E+03  0.30039252485E+03  0.12509000000E+03 0.  0.
<mgrwt>
<rscale>  2 0.45182831E+03</rscale>
<asrwt>0</asrwt>
<pdfrwt beam="1">  1       21 0.11449721E-01 0.45182831E+03</pdfrwt>
<pdfrwt beam="2">  1       21 0.96399364E-01 0.45182831E+03</pdfrwt>
<totfact> 0.52423348E+04</totfact>
</mgrwt>
</event>
<event>
 7    0  0.4725730E-002  0.4528990E+03  0.7546771E-02  0.1026861E+00
         21   -1    0    0  502  501  0.00000000000E+00  0.00000000000E+00  0.80951539210E+03  0.80951539210E+03  0.00000000000E+00 0. -1.
         21   -1    0    0  501  502 -0.00000000000E+00 -0.00000000000E+00 -0.63345779085E+02  0.63345779085E+02  0.00000000000E+00 0. -1.
      99926    2    1    2    0    0  0.00000000000E+00 -0.13322676296E-14  0.74616961301E+03  0.87286117118E+03  0.45289903154E+03 0.  0.
      99925    2    3    3    0    0 -0.10833727007E+03 -0.27876034803E+01  0.42270580151E+03  0.50951411908E+03  0.26302035680E+03 0.  0.
         25    1    3    3    0    0  0.10833727007E+03  0.27876034803E+01  0.32346381150E+03  0.36334705210E+03  0.12509000000E+03 0.  0.
         25    1    4    4    0    0 -0.52818392527E+02 -0.41863647709E+02  0.20617547600E+03  0.25039605147E+03  0.12509000000E+03 0.  0.
         25    1    4    4    0    0 -0.55518877541E+02  0.39076044228E+02  0.21653032551E+03  0.25911806761E+03  0.12509000000E+03 0.  0.
<mgrwt>
<rscale>  2 0.45289903E+03</rscale>
<asrwt>0</asrwt>
<pdfrwt beam="1">  1       21 0.11904638E+00 0.45289903E+03</pdfrwt>
<pdfrwt beam="2">  1       21 0.93155562E-02 0.45289903E+03</pdfrwt>
<totfact> 0.45166619E+04</totfact>
</mgrwt>
</event>
<event>
 7    0  0.4725730E-002  0.4553665E+03  0.7546771E-02  0.1026134E+00
         21   -1    0    0  502  501  0.00000000000E+00  0.00000000000E+00  0.12432758827E+04  0.12432758827E+04  0.00000000000E+00 0.  1.
         21   -1    0    0  501  502 -0.00000000000E+00 -0.00000000000E+00 -0.41696019691E+02  0.41696019691E+02  0.00000000000E+00 0.  1.
      99926    2    1    2    0    0  0.00000000000E+00  0.71054273576E-14  0.12015798630E+04  0.12849719024E+04  0.45536647083E+03 0.  0.
      99925    2    3    3    0    0  0.79842951584E+02 -0.54578641239E+02  0.92290435064E+03  0.96456392139E+03  0.26320598972E+03 0.  0.
         25    1    3    3    0    0 -0.79842951584E+02  0.54578641239E+02  0.27867551241E+03  0.32040798104E+03  0.12509000000E+03 0.  0.
         25    1    4    4    0    0  0.49915090111E+02 -0.43310351324E+02  0.35465368319E+03  0.38182986506E+03  0.12509000000E+03 0.  0.
         25    1    4    4    0    0  0.29927861474E+02 -0.11268289916E+02  0.56825066745E+03  0.58273405633E+03  0.12509000000E+03 0.  0.
<mgrwt>
<rscale>  2 0.45536647E+03</rscale>
<asrwt>0</asrwt>
<pdfrwt beam="1">  1       21 0.18283466E+00 0.45536647E+03</pdfrwt>
<pdfrwt beam="2">  1       21 0.61317684E-02 0.45536647E+03</pdfrwt>
<totfact> 0.29470282E+04</totfact>
</mgrwt>
</event>
<event>
 7    0  0.4725730E-002  0.4192773E+03  0.7546771E-02  0.1037302E+00
         21   -1    0    0  502  501  0.00000000000E+00  0.00000000000E+00  0.91054692484E+03  0.91054692484E+03  0.00000000000E+00 0.  1.
         21   -1    0    0  501  502 -0.00000000000E+00 -0.00000000000E+00 -0.48265893002E+02  0.48265893002E+02  0.00000000000E+00 0.  1.
      99926    2    1    2    0    0  0.00000000000E+00  0.00000000000E+00  0.86228103184E+03  0.95881281784E+03  0.41927728509E+03 0.  0.
      99925    2    3    3    0    0 -0.39189873526E+02  0.59327146439E+02  0.50989564849E+03  0.57818370310E+03  0.26314875202E+03 0.  0.
         25    1    4    4    0    0 -0.27858533173E+02  0.70487929847E+02  0.26200677322E+03  0.30006616510E+03  0.12509000000E+03 0.  0.
         25    1    4    4    0    0 -0.11331340353E+02 -0.11160783408E+02  0.24788887527E+03  0.27811753800E+03  0.12509000000E+03 0.  0.
         25    1    3    3    0    0  0.39189873526E+02 -0.59327146439E+02  0.35238538335E+03  0.38062911475E+03  0.12509000000E+03 0.  0.
<mgrwt>
<rscale>  2 0.41927729E+03</rscale>
<asrwt>0</asrwt>
<pdfrwt beam="1">  1       21 0.13390395E+00 0.41927729E+03</pdfrwt>
<pdfrwt beam="2">  1       21 0.70979260E-02 0.41927729E+03</pdfrwt>
<totfact> 0.54485934E+04</totfact>
</mgrwt>
</event>
<event>
 7    0  0.4725730E-002  0.4484402E+03  0.7546771E-02  0.1028188E+00
         21   -1    0    0  502  501  0.00000000000E+00  0.00000000000E+00  0.46930928828E+02  0.46930928828E+02  0.00000000000E+00 0. -1.
         21   -1    0    0  501  502 -0.00000000000E+00 -0.00000000000E+00 -0.10712475571E+04  0.10712475571E+04  0.00000000000E+00 0. -1.
      99926    2    1    2    0    0 -0.71054273576E-14  0.00000000000E+00 -0.10243166282E+04  0.11181784859E+04  0.44844015368E+03 0.  0.
      99925    2    3    3    0    0  0.61694551859E+02 -0.10461192314E+02 -0.86459557691E+03  0.90587215859E+03  0.26298897664E+03 0.  0.
         25    1    4    4    0    0  0.30194883742E+02  0.13687357393E+02 -0.30932295132E+03  0.33530176121E+03  0.12509000000E+03 0.  0.
         25    1    3    3    0    0 -0.61694551859E+02  0.10461192314E+02 -0.15972105133E+03  0.21230632730E+03  0.12509000000E+03 0.  0.
         25    1    4    4    0    0  0.31499668116E+02 -0.24148549707E+02 -0.55527262559E+03  0.57057039739E+03  0.12509000000E+03 0.  0.
<mgrwt>
<rscale>  2 0.44844015E+03</rscale>
<asrwt>0</asrwt>
<pdfrwt beam="1">  1       21 0.69016077E-02 0.44844015E+03</pdfrwt>
<pdfrwt beam="2">  1       21 0.15753639E+00 0.44844015E+03</pdfrwt>
<totfact> 0.36704263E+04</totfact>
</mgrwt>
</event>
<event>
 7    0  0.4725730E-002  0.4275726E+03  0.7546771E-02  0.1034630E+00
         21   -1    0    0  502  501  0.00000000000E+00  0.00000000000E+00  0.77454940013E+03  0.77454940013E+03  0.00000000000E+00 0. -1.
         21   -1    0    0  501  502 -0.00000000000E+00 -0.00000000000E+00 -0.59007951213E+02  0.59007951213E+02  0.00000000000E+00 0. -1.
      99926    2    1    2    0    0 -0.71054273576E-14 -0.71054273576E-14  0.71554144892E+03  0.83355735134E+03  0.42757255859E+03 0.  0.
      99925    2    3    3    0    0 -0.55577092581E+02 -0.24878222426E+02  0.35138515145E+03  0.44373039453E+03  0.26404052568E+03 0.  0.
         25    1    3    3    0    0  0.55577092581E+02  0.24878222426E+02  0.36415629747E+03  0.38982695681E+03  0.12509000000E+03 0.  0.
         25    1    4    4    0    0 -0.20535530299E+02  0.41769015429E+00  0.23713995215E+03  0.26889542107E+03  0.12509000000E+03 0.  0.
         25    1    4    4    0    0 -0.35041562283E+02 -0.25295912580E+02  0.11424519930E+03  0.17483497345E+03  0.12509000000E+03 0.  0.
<mgrwt>
<rscale>  2 0.42757256E+03</rscale>
<asrwt>0</asrwt>
<pdfrwt beam="1">  1       21 0.11390432E+00 0.42757256E+03</pdfrwt>
<pdfrwt beam="2">  1       21 0.86776403E-02 0.42757256E+03</pdfrwt>
<totfact> 0.57616037E+04</totfact>
</mgrwt>
</event>
<event>
 7    0  0.4725730E-002  0.4566598E+03  0.7546771E-02  0.1025754E+00
         21   -1    0    0  502  501  0.00000000000E+00  0.00000000000E+00  0.65360559475E+02  0.65360559475E+02  0.00000000000E+00 0. -1.
         21   -1    0    0  501  502 -0.00000000000E+00 -0.00000000000E+00 -0.79764532848E+03  0.79764532848E+03  0.00000000000E+00 0. -1.
      99926    2    1    2    0    0  0.00000000000E+00  0.00000000000E+00 -0.73228476901E+03  0.86300588796E+03  0.45665980744E+03 0.  0.
      99925    2    3    3    0    0 -0.84188662865E+02  0.74997892834E+02 -0.41889655905E+03  0.50723616872E+03  0.26287219098E+03 0.  0.
         25    1    4    4    0    0 -0.73289466741E+02  0.35810155870E+02 -0.27010484845E+03  0.30863870538E+03  0.12509000000E+03 0.  0.
         25    1    3    3    0    0  0.84188662865E+02 -0.74997892834E+02 -0.31338820996E+03  0.35576971924E+03  0.12509000000E+03 0.  0.
         25    1    4    4    0    0 -0.10899196124E+02  0.39187736964E+02 -0.14879171059E+03  0.19859746334E+03  0.12509000000E+03 0.  0.
<mgrwt>
<rscale>  2 0.45665981E+03</rscale>
<asrwt>0</asrwt>
<pdfrwt beam="1">  1       21 0.96118477E-02 0.45665981E+03</pdfrwt>
<pdfrwt beam="2">  1       21 0.11730077E+00 0.45665981E+03</pdfrwt>
<totfact> 0.44283693E+04</totfact>
</mgrwt>
</event>
<event>
 7    0  0.4725730E-002  0.4484510E+03  0.7546771E-02  0.1028185E+00
         21   -1    0    0  502  501  0.00000000000E+00  0.00000000000E+00  0.33433452855E+02  0.33433452855E+02  0.00000000000E+00 0. -1.
         21   -1    0    0  501  502 -0.00000000000E+00 -0.00000000000E+00 -0.15037954256E+04  0.15037954256E+04  0.00000000000E+00 0. -1.
      99926    2    1    2    0    0 -0.35527136788E-14  0.00000000000E+00 -0.14703619727E+04  0.15372288784E+04  0.44845099382E+03 0.  0.
      99925    2    3    3    0    0  0.10602417265E+02  0.75734873482E+02 -0.67514728845E+03  0.72861148776E+03  0.26306397831E+03 0.  0.
         25    1    4    4    0    0  0.35905936960E+02  0.49486753139E+02 -0.28321703418E+03  0.31559082939E+03  0.12509000000E+03 0.  0.
         25    1    4    4    0    0 -0.25303519694E+02  0.26248120343E+02 -0.39193025427E+03  0.41302065837E+03  0.12509000000E+03 0.  0.
         25    1    3    3    0    0 -0.10602417265E+02 -0.75734873482E+02 -0.79521468428E+03  0.80861739068E+03  0.12509000000E+03 0.  0.
<mgrwt>
<rscale>  2 0.44845099E+03</rscale>
<asrwt>0</asrwt>
<pdfrwt beam="1">  1       21 0.49166842E-02 0.44845099E+03</pdfrwt>
<pdfrwt beam="2">  1       21 0.22114639E+00 0.44845099E+03</pdfrwt>
<totfact> 0.24083161E+04</totfact>
</mgrwt>
</event>
<event>
 7    0  0.4725730E-002  0.4511929E+03  0.7546771E-02  0.1027367E+00
         21   -1    0    0  502  501  0.00000000000E+00  0.00000000000E+00  0.19338400045E+03  0.19338400045E+03  0.00000000000E+00 0. -1.
         21   -1    0    0  501  502 -0.00000000000E+00 -0.00000000000E+00 -0.26317457163E+03  0.26317457163E+03  0.00000000000E+00 0. -1.
      99926    2    1    2    0    0  0.00000000000E+00  0.00000000000E+00 -0.69790571182E+02  0.45655857208E+03  0.45119286997E+03 0.  0.
      99925    2    3    3    0    0 -0.23319903154E+02 -0.15528572741E+02 -0.15130377051E+03  0.30464786074E+03  0.26293066316E+03 0.  0.
         25    1    4    4    0    0  0.27324151637E+02 -0.10522762218E+00 -0.83225086529E+02  0.15271065275E+03  0.12509000000E+03 0.  0.
         25    1    4    4    0    0 -0.50644054791E+02 -0.15423345118E+02 -0.68078683981E+02  0.15193720799E+03  0.12509000000E+03 0.  0.
         25    1    3    3    0    0  0.23319903154E+02  0.15528572741E+02  0.81513199329E+02  0.15191071134E+03  0.12509000000E+03 0.  0.
<mgrwt>
<rscale>  2 0.45119287E+03</rscale>
<asrwt>0</asrwt>
<pdfrwt beam="1">  1       21 0.28438824E-01 0.45119287E+03</pdfrwt>
<pdfrwt beam="2">  1       21 0.38702143E-01 0.45119287E+03</pdfrwt>
<totfact> 0.70549794E+04</totfact>
</mgrwt>
</event>
<event>
 7    0  0.4725730E-002  0.4591520E+03  0.7546771E-02  0.1025027E+00
         21   -1    0    0  502  501  0.00000000000E+00  0.00000000000E+00  0.13688880599E+04  0.13688880599E+04  0.00000000000E+00 0. -1.
         21   -1    0    0  501  502 -0.00000000000E+00 -0.00000000000E+00 -0.38502151248E+02  0.38502151248E+02  0.00000000000E+00 0. -1.
      99926    2    1    2    0    0  0.00000000000E+00  0.00000000000E+00  0.13303859087E+04  0.14073902112E+04  0.45915197974E+03 0.  0.
      99925    2    3    3    0    0 -0.25490682384E+02 -0.55615779922E+02  0.52841199025E+03  0.59341689232E+03  0.26302373807E+03 0.  0.
         25    1    3    3    0    0  0.25490682384E+02  0.55615779922E+02  0.80197391844E+03  0.81397331886E+03  0.12509000000E+03 0.  0.
         25    1    4    4    0    0  0.23563141985E+02 -0.37519083347E+02  0.29526332233E+03  0.32371413453E+03  0.12509000000E+03 0.  0.
         25    1    4    4    0    0 -0.49053824369E+02 -0.18096696575E+02  0.23314866791E+03  0.26970275779E+03  0.12509000000E+03 0.  0.
<mgrwt>
<rscale>  2 0.45915198E+03</rscale>
<asrwt>0</asrwt>
<pdfrwt beam="1">  1       21 0.20130704E+00 0.45915198E+03</pdfrwt>
<pdfrwt beam="2">  1       21 0.56620820E-02 0.45915198E+03</pdfrwt>
<totfact> 0.25309242E+04</totfact>
</mgrwt>
</event>
<event>
 7    0  0.4725730E-002  0.4492394E+03  0.7546771E-02  0.1027949E+00
         21   -1    0    0  502  501  0.00000000000E+00  0.00000000000E+00  0.22478199884E+03  0.22478199884E+03  0.00000000000E+00 0.  1.
         21   -1    0    0  501  502 -0.00000000000E+00 -0.00000000000E+00 -0.22445751279E+03  0.22445751279E+03  0.00000000000E+00 0.  1.
      99926    2    1    2    0    0  0.14210854715E-13  0.00000000000E+00  0.32448604818E+00  0.44923951163E+03  0.44923939444E+03 0.  0.
      99925    2    3    3    0    0  0.64013059969E+02 -0.76725920861E+02  0.40137520546E+02  0.28426337822E+03  0.26307814212E+03 0.  0.
         25    1    4    4    0    0 -0.59970445042E+01 -0.25720617629E+02  0.32526280997E+02  0.13192036147E+03  0.12509000000E+03 0.  0.
         25    1    3    3    0    0 -0.64013059969E+02  0.76725920861E+02 -0.39813034498E+02  0.16497613341E+03  0.12509000000E+03 0.  0.
         25    1    4    4    0    0  0.70010104474E+02 -0.51005303231E+02  0.76112395488E+01  0.15234301675E+03  0.12509000000E+03 0.  0.
<mgrwt>
<rscale>  2 0.44923939E+03</rscale>
<asrwt>0</asrwt>
<pdfrwt beam="1">  1       21 0.33056176E-01 0.44923939E+03</pdfrwt>
<pdfrwt beam="2">  1       21 0.33008458E-01 0.44923939E+03</pdfrwt>
<totfact> 0.72233325E+04</totfact>
</mgrwt>
</event>
<event>
 7    0  0.4725730E-002  0.4248562E+03  0.7546771E-02  0.1035497E+00
         21   -1    0    0  502  501  0.00000000000E+00  0.00000000000E+00  0.19068615030E+03  0.19068615030E+03  0.00000000000E+00 0. -1.
         21   -1    0    0  501  502 -0.00000000000E+00 -0.00000000000E+00 -0.23664906246E+03  0.23664906246E+03  0.00000000000E+00 0. -1.
      99926    2    1    2    0    0  0.00000000000E+00 -0.71054273576E-14 -0.45962912165E+02  0.42733521276E+03  0.42485620482E+03 0.  0.
      99925    2    3    3    0    0 -0.22642170676E+02  0.49662605169E+02  0.31828086661E+02  0.27024291555E+03  0.26275304767E+03 0.  0.
         25    1    4    4    0    0 -0.15000243709E+02 -0.11873945040E+02  0.32396873526E+02  0.13062566132E+03  0.12509000000E+03 0.  0.
         25    1    3    3    0    0  0.22642170676E+02 -0.49662605169E+02 -0.77790998826E+02  0.15709229721E+03  0.12509000000E+03 0.  0.
         25    1    4    4    0    0 -0.76419269668E+01  0.61536550209E+02 -0.56878686535E+00  0.13961725423E+03  0.12509000000E+03 0.  0.
<mgrwt>
<rscale>  2 0.42485620E+03</rscale>
<asrwt>0</asrwt>
<pdfrwt beam="1">  1       21 0.28042081E-01 0.42485620E+03</pdfrwt>
<pdfrwt beam="2">  1       21 0.34801333E-01 0.42485620E+03</pdfrwt>
<totfact> 0.90507876E+04</totfact>
</mgrwt>
</event>
<event>
 7    0  0.4725730E-002  0.4573451E+03  0.7546771E-02  0.1025554E+00
         21   -1    0    0  502  501  0.00000000000E+00  0.00000000000E+00  0.14609478031E+03  0.14609478031E+03  0.00000000000E+00 0.  1.
         21   -1    0    0  501  502 -0.00000000000E+00 -0.00000000000E+00 -0.35792610819E+03  0.35792610819E+03  0.00000000000E+00 0.  1.
      99926    2    1    2    0    0  0.00000000000E+00 -0.17763568394E-14 -0.21183132788E+03  0.50402088851E+03  0.45734510447E+03 0.  0.
      99925    2    3    3    0    0  0.11278404617E+03 -0.88070891405E+01 -0.15766420261E+03  0.32687859698E+03  0.26304716400E+03 0.  0.
         25    1    4    4    0    0  0.30704892120E+02 -0.23165770527E+02 -0.42732993309E+02  0.13767011346E+03  0.12509000000E+03 0.  0.
         25    1    4    4    0    0  0.82079154048E+02  0.14358681387E+02 -0.11493120930E+03  0.18920848351E+03  0.12509000000E+03 0.  0.
         25    1    3    3    0    0 -0.11278404617E+03  0.88070891405E+01 -0.54167125262E+02  0.17714229153E+03  0.12509000000E+03 0.  0.
<mgrwt>
<rscale>  2 0.45734510E+03</rscale>
<asrwt>0</asrwt>
<pdfrwt beam="1">  1       21 0.21484527E-01 0.45734510E+03</pdfrwt>
<pdfrwt beam="2">  1       21 0.52636192E-01 0.45734510E+03</pdfrwt>
<totfact> 0.63793309E+04</totfact>
</mgrwt>
</event>
<event>
 7    0  0.4725730E-002  0.3899085E+03  0.7546771E-02  0.1047331E+00
         21   -1    0    0  502  501  0.00000000000E+00  0.00000000000E+00  0.16408128434E+03  0.16408128434E+03  0.00000000000E+00 0.  1.
         21   -1    0    0  501  502 -0.00000000000E+00 -0.00000000000E+00 -0.23163618982E+03  0.23163618982E+03  0.00000000000E+00 0.  1.
      99926    2    1    2    0    0 -0.53290705182E-14  0.17763568394E-14 -0.67554905481E+02  0.39571747416E+03  0.38990852017E+03 0.  0.
      99925    2    3    3    0    0  0.15955828656E+02 -0.54645739976E+00 -0.39012878382E+02  0.26642307175E+03  0.26306721840E+03 0.  0.
         25    1    3    3    0    0 -0.15955828656E+02  0.54645739976E+00 -0.28542027099E+02  0.12929440241E+03  0.12509000000E+03 0.  0.
         25    1    4    4    0    0 -0.20841041096E+02 -0.27480652009E+02 -0.28612456784E+02  0.13287481331E+03  0.12509000000E+03 0.  0.
         25    1    4    4    0    0  0.36796869752E+02  0.26934194609E+02 -0.10400421598E+02  0.13354825844E+03  0.12509000000E+03 0.  0.
<mgrwt>
<rscale>  2 0.38990852E+03</rscale>
<asrwt>0</asrwt>
<pdfrwt beam="1">  1       21 0.24129601E-01 0.38990852E+03</pdfrwt>
<pdfrwt beam="2">  1       21 0.34064145E-01 0.38990852E+03</pdfrwt>
<totfact> 0.12756306E+05</totfact>
</mgrwt>
</event>
<event>
 7    0  0.4725730E-002  0.4037004E+03  0.7546771E-02  0.1042506E+00
         21   -1    0    0  502  501  0.00000000000E+00  0.00000000000E+00  0.13481260706E+04  0.13481260706E+04  0.00000000000E+00 0.  1.
         21   -1    0    0  501  502 -0.00000000000E+00 -0.00000000000E+00 -0.30222321090E+02  0.30222321090E+02  0.00000000000E+00 0.  1.
      99926    2    1    2    0    0  0.88817841970E-15  0.00000000000E+00  0.13179037495E+04  0.13783483917E+04  0.40370037887E+03 0.  0.
      99925    2    3    3    0    0 -0.79368116746E+01  0.38356022901E+02  0.99329537512E+03  0.10282737107E+04  0.26301510285E+03 0.  0.
         25    1    4    4    0    0 -0.23070636268E+02 -0.16619711553E+02  0.49740103490E+03  0.51367671418E+03  0.12509000000E+03 0.  0.
         25    1    4    4    0    0  0.15133824593E+02  0.54975734454E+02  0.49589434022E+03  0.51459699648E+03  0.12509000000E+03 0.  0.
         25    1    3    3    0    0  0.79368116746E+01 -0.38356022901E+02  0.32460837437E+03  0.35007468101E+03  0.12509000000E+03 0.  0.
<mgrwt>
<rscale>  2 0.40370038E+03</rscale>
<asrwt>0</asrwt>
<pdfrwt beam="1">  1       21 0.19825379E+00 0.40370038E+03</pdfrwt>
<pdfrwt beam="2">  1       21 0.44444599E-02 0.40370038E+03</pdfrwt>
<totfact> 0.40980461E+04</totfact>
</mgrwt>
</event>
<event>
 7    0  0.4725730E-002  0.4557242E+03  0.7546771E-02  0.1026029E+00
         21   -1    0    0  502  501  0.00000000000E+00  0.00000000000E+00  0.71942038848E+03  0.71942038848E+03  0.00000000000E+00 0.  1.
         21   -1    0    0  501  502 -0.00000000000E+00 -0.00000000000E+00 -0.72170776100E+02  0.72170776100E+02  0.00000000000E+00 0.  1.
      99926    2    1    2    0    0 -0.35527136788E-14  0.71054273576E-14  0.64724961238E+03  0.79159116458E+03  0.45572416122E+03 0.  0.
      99925    2    3    3    0    0 -0.30864073627E+02  0.21164303811E+02  0.22026045660E+03  0.34508498763E+03  0.26299897557E+03 0.  0.
         25    1    4    4    0    0 -0.15152634141E+02 -0.28679912151E+02  0.12131910532E+03  0.17725115824E+03  0.12509000000E+03 0.  0.
         25    1    4    4    0    0 -0.15711439486E+02  0.49844215962E+02  0.98941351278E+02  0.16783382939E+03  0.12509000000E+03 0.  0.
         25    1    3    3    0    0  0.30864073627E+02 -0.21164303811E+02  0.42698915578E+03  0.44650617695E+03  0.12509000000E+03 0.  0.
<mgrwt>
<rscale>  2 0.45572416E+03</rscale>
<asrwt>0</asrwt>
<pdfrwt beam="1">  1       21 0.10579711E+00 0.45572416E+03</pdfrwt>
<pdfrwt beam="2">  1       21 0.10613350E-01 0.45572416E+03</pdfrwt>
<totfact> 0.47901414E+04</totfact>
</mgrwt>
</event>
<event>
 7    0  0.4725730E-002  0.4668842E+03  0.7546771E-02  0.1022803E+00
         21   -1    0    0  502  501  0.00000000000E+00  0.00000000000E+00  0.58061170138E+02  0.58061170138E+02  0.00000000000E+00 0. -1.
         21   -1    0    0  501  502 -0.00000000000E+00 -0.00000000000E+00 -0.93858271627E+03  0.93858271627E+03  0.00000000000E+00 0. -1.
      99926    2    1    2    0    0 -0.88817841970E-15 -0.14210854715E-13 -0.88052154613E+03  0.99664388641E+03  0.46688418598E+03 0.  0.
      99925    2    3    3    0    0 -0.36090974486E+01  0.88210676591E+02 -0.73417672452E+03  0.78484571843E+03  0.26300796538E+03 0.  0.
         25    1    4    4    0    0  0.19981243068E+02  0.22315680170E+02 -0.27061236907E+03  0.29962610375E+03  0.12509000000E+03 0.  0.
         25    1    4    4    0    0 -0.23590340516E+02  0.65894996421E+02 -0.46356435545E+03  0.48521961468E+03  0.12509000000E+03 0.  0.
         25    1    3    3    0    0  0.36090974486E+01 -0.88210676591E+02 -0.14634482161E+03  0.21179816799E+03  0.12509000000E+03 0.  0.
<mgrwt>
<rscale>  2 0.46688419E+03</rscale>
<asrwt>0</asrwt>
<pdfrwt beam="1">  1       21 0.85384077E-02 0.46688419E+03</pdfrwt>
<pdfrwt beam="2">  1       21 0.13802686E+00 0.46688419E+03</pdfrwt>
<totfact> 0.35852366E+04</totfact>
</mgrwt>
</event>
<event>
 7    0  0.4725730E-002  0.4512762E+03  0.7546771E-02  0.1027342E+00
         21   -1    0    0  502  501  0.00000000000E+00  0.00000000000E+00  0.50155770063E+03  0.50155770063E+03  0.00000000000E+00 0.  1.
         21   -1    0    0  501  502 -0.00000000000E+00 -0.00000000000E+00 -0.10150884367E+03  0.10150884367E+03  0.00000000000E+00 0.  1.
      99926    2    1    2    0    0  0.00000000000E+00  0.00000000000E+00  0.40004885696E+03  0.60306654430E+03  0.45127615592E+03 0.  0.
      99925    2    3    3    0    0 -0.57182565848E+02  0.21694459970E+02  0.37427163493E+03  0.46145980468E+03  0.26291709566E+03 0.  0.
         25    1    4    4    0    0 -0.60161052030E+01  0.29435432414E+02  0.13454273346E+03  0.18615019052E+03  0.12509000000E+03 0.  0.
         25    1    4    4    0    0 -0.51166460645E+02 -0.77409724440E+01  0.23972890147E+03  0.27530961416E+03  0.12509000000E+03 0.  0.
         25    1    3    3    0    0  0.57182565848E+02 -0.21694459970E+02  0.25777222026E+02  0.14160673962E+03  0.12509000000E+03 0.  0.
<mgrwt>
<rscale>  2 0.45127616E+03</rscale>
<asrwt>0</asrwt>
<pdfrwt beam="1">  1       21 0.73758485E-01 0.45127616E+03</pdfrwt>
<pdfrwt beam="2">  1       21 0.14927771E-01 0.45127616E+03</pdfrwt>
<totfact> 0.60242779E+04</totfact>
</mgrwt>
</event>
<event>
 7    0  0.4725730E-002  0.4550982E+03  0.7546771E-02  0.1026213E+00
         21   -1    0    0  502  501  0.00000000000E+00  0.00000000000E+00  0.95760498590E+02  0.95760498590E+02  0.00000000000E+00 0. -1.
         21   -1    0    0  501  502 -0.00000000000E+00 -0.00000000000E+00 -0.54070928746E+03  0.54070928746E+03  0.00000000000E+00 0. -1.
      99926    2    1    2    0    0  0.14210854715E-13  0.14210854715E-13 -0.44494878886E+03  0.63646978605E+03  0.45509819142E+03 0.  0.
      99925    2    3    3    0    0 -0.67539835518E+02 -0.69117108803E+02 -0.19728018327E+03  0.34265683465E+03  0.26297420312E+03 0.  0.
         25    1    4    4    0    0 -0.42921765045E+02 -0.55220619618E+02 -0.14586705092E+03  0.20449034058E+03  0.12509000000E+03 0.  0.
         25    1    3    3    0    0  0.67539835518E+02  0.69117108803E+02 -0.24766860559E+03  0.29381295140E+03  0.12509000000E+03 0.  0.
         25    1    4    4    0    0 -0.24618070474E+02 -0.13896489185E+02 -0.51413132348E+02  0.13816649407E+03  0.12509000000E+03 0.  0.
<mgrwt>
<rscale>  2 0.45509819E+03</rscale>
<asrwt>0</asrwt>
<pdfrwt beam="1">  1       21 0.14082426E-01 0.45509819E+03</pdfrwt>
<pdfrwt beam="2">  1       21 0.79516072E-01 0.45509819E+03</pdfrwt>
<totfact> 0.56444019E+04</totfact>
</mgrwt>
</event>
<event>
 7    0  0.4725730E-002  0.4620966E+03  0.7546771E-02  0.1024175E+00
         21   -1    0    0  502  501  0.00000000000E+00  0.00000000000E+00  0.20411682803E+03  0.20411682803E+03  0.00000000000E+00 0.  1.
         21   -1    0    0  501  502 -0.00000000000E+00 -0.00000000000E+00 -0.26153316222E+03  0.26153316222E+03  0.00000000000E+00 0.  1.
      99926    2    1    2    0    0  0.00000000000E+00  0.00000000000E+00 -0.57416334195E+02  0.46564999025E+03  0.46209661109E+03 0.  0.
      99925    2    3    3    0    0 -0.70217986069E+02 -0.80175448881E+02 -0.90720185476E+02  0.29797374631E+03  0.26305804163E+03 0.  0.
         25    1    4    4    0    0 -0.36295753387E+02 -0.35216415468E+02 -0.26493407363E+01  0.13495223132E+03  0.12509000000E+03 0.  0.
         25    1    4    4    0    0 -0.33922232682E+02 -0.44959033413E+02 -0.88070844740E+02  0.16302151499E+03  0.12509000000E+03 0.  0.
         25    1    3    3    0    0  0.70217986069E+02  0.80175448881E+02  0.33303851281E+02  0.16767624394E+03  0.12509000000E+03 0.  0.
<mgrwt>
<rscale>  2 0.46209661E+03</rscale>
<asrwt>0</asrwt>
<pdfrwt beam="1">  1       21 0.30017181E-01 0.46209661E+03</pdfrwt>
<pdfrwt beam="2">  1       21 0.38460759E-01 0.46209661E+03</pdfrwt>
<totfact> 0.64067339E+04</totfact>
</mgrwt>
</event>
<event>
 7    0  0.4725730E-002  0.4557094E+03  0.7546771E-02  0.1026033E+00
         21   -1    0    0  502  501  0.00000000000E+00  0.00000000000E+00  0.11334061975E+03  0.11334061975E+03  0.00000000000E+00 0.  1.
         21   -1    0    0  501  502 -0.00000000000E+00 -0.00000000000E+00 -0.45806849240E+03  0.45806849240E+03  0.00000000000E+00 0.  1.
      99926    2    1    2    0    0  0.00000000000E+00  0.14210854715E-13 -0.34472787266E+03  0.57140911215E+03  0.45570941099E+03 0.  0.
      99925    2    3    3    0    0  0.42490449016E+02 -0.83244574474E+02 -0.13478230182E+03  0.30976097390E+03  0.26277460804E+03 0.  0.
         25    1    4    4    0    0  0.10840848749E+02 -0.62231988572E+02 -0.10648345063E+03  0.17600164136E+03  0.12509000000E+03 0.  0.
         25    1    4    4    0    0  0.31649600266E+02 -0.21012585902E+02 -0.28298851192E+02  0.13375933254E+03  0.12509000000E+03 0.  0.
         25    1    3    3    0    0 -0.42490449016E+02  0.83244574474E+02 -0.20994557084E+03  0.26164813825E+03  0.12509000000E+03 0.  0.
<mgrwt>
<rscale>  2 0.45570941E+03</rscale>
<asrwt>0</asrwt>
<pdfrwt beam="1">  1       21 0.16667738E-01 0.45570941E+03</pdfrwt>
<pdfrwt beam="2">  1       21 0.67363015E-01 0.45570941E+03</pdfrwt>
<totfact> 0.60135502E+04</totfact>
</mgrwt>
</event>
<event>
 7    0  0.4725730E-002  0.4556989E+03  0.7546771E-02  0.1026036E+00
         21   -1    0    0  502  501  0.00000000000E+00  0.00000000000E+00  0.41679591647E+03  0.41679591647E+03  0.00000000000E+00 0. -1.
         21   -1    0    0  501  502 -0.00000000000E+00 -0.00000000000E+00 -0.12455824300E+03  0.12455824300E+03  0.00000000000E+00 0. -1.
      99926    2    1    2    0    0  0.71054273576E-14  0.00000000000E+00  0.29223767347E+03  0.54135415947E+03  0.45569887884E+03 0.  0.
      99925    2    3    3    0    0 -0.43520903267E+02 -0.80879695856E+02  0.26366795607E+03  0.38355894067E+03  0.26298493434E+03 0.  0.
         25    1    4    4    0    0  0.14456599819E+02 -0.57847476487E+02  0.12392104614E+03  0.18590120385E+03  0.12509000000E+03 0.  0.
         25    1    3    3    0    0  0.43520903267E+02  0.80879695856E+02  0.28569717405E+02  0.15779521880E+03  0.12509000000E+03 0.  0.
         25    1    4    4    0    0 -0.57977503086E+02 -0.23032219369E+02  0.13974690993E+03  0.19765773683E+03  0.12509000000E+03 0.  0.
<mgrwt>
<rscale>  2 0.45569888E+03</rscale>
<asrwt>0</asrwt>
<pdfrwt beam="1">  1       21 0.61293517E-01 0.45569888E+03</pdfrwt>
<pdfrwt beam="2">  1       21 0.18317389E-01 0.45569888E+03</pdfrwt>
<totfact> 0.62097323E+04</totfact>
</mgrwt>
</event>
<event>
 7    0  0.4725730E-002  0.4531829E+03  0.7546771E-02  0.1026777E+00
         21   -1    0    0  502  501  0.00000000000E+00  0.00000000000E+00  0.26211153903E+03  0.26211153903E+03  0.00000000000E+00 0. -1.
         21   -1    0    0  501  502 -0.00000000000E+00 -0.00000000000E+00 -0.19588486996E+03  0.19588486996E+03  0.00000000000E+00 0. -1.
      99926    2    1    2    0    0  0.00000000000E+00  0.00000000000E+00  0.66226669078E+02  0.45799640899E+03  0.45318289790E+03 0.  0.
      99925    2    3    3    0    0 -0.55055676773E+02  0.73436822671E+02  0.10574724331E+03  0.29789182331E+03  0.26293148243E+03 0.  0.
         25    1    3    3    0    0  0.55055676773E+02 -0.73436822671E+02 -0.39520574233E+02  0.16010458568E+03  0.12509000000E+03 0.  0.
         25    1    4    4    0    0 -0.29879548006E+02  0.26938058625E+02  0.10107562046E+02  0.13178815312E+03  0.12509000000E+03 0.  0.
         25    1    4    4    0    0 -0.25176128767E+02  0.46498764046E+02  0.95639681265E+02  0.16610367019E+03  0.12509000000E+03 0.  0.
<mgrwt>
<rscale>  2 0.45318290E+03</rscale>
<asrwt>0</asrwt>
<pdfrwt beam="1">  1       21 0.38545815E-01 0.45318290E+03</pdfrwt>
<pdfrwt beam="2">  1       21 0.28806598E-01 0.45318290E+03</pdfrwt>
<totfact> 0.69325995E+04</totfact>
</mgrwt>
</event>
<event>
 7    0  0.4725730E-002  0.4402183E+03  0.7546771E-02  0.1030680E+00
         21   -1    0    0  502  501  0.00000000000E+00  0.00000000000E+00  0.60643304430E+02  0.60643304430E+02  0.00000000000E+00 0.  1.
         21   -1    0    0  501  502 -0.00000000000E+00 -0.00000000000E+00 -0.79890182067E+03  0.79890182067E+03  0.00000000000E+00 0.  1.
      99926    2    1    2    0    0  0.00000000000E+00  0.00000000000E+00 -0.73825851624E+03  0.85954512510E+03  0.44021833820E+03 0.  0.
      99925    2    3    3    0    0 -0.71062880142E+02 -0.36466658893E+02 -0.35792051419E+03  0.45127529515E+03  0.26298773239E+03 0.  0.
         25    1    3    3    0    0  0.71062880142E+02  0.36466658893E+02 -0.38033800206E+03  0.40826982996E+03  0.12509000000E+03 0.  0.
         25    1    4    4    0    0 -0.64036401115E+02 -0.47051293874E+02 -0.21192446999E+03  0.25860002708E+03  0.12509000000E+03 0.  0.
         25    1    4    4    0    0 -0.70264790266E+01  0.10584634981E+02 -0.14599604420E+03  0.19267526807E+03  0.12509000000E+03 0.  0.
<mgrwt>
<rscale>  2 0.44021834E+03</rscale>
<asrwt>0</asrwt>
<pdfrwt beam="1">  1       21 0.89181335E-02 0.44021834E+03</pdfrwt>
<pdfrwt beam="2">  1       21 0.11748555E+00 0.44021834E+03</pdfrwt>
<totfact> 0.50635448E+04</totfact>
</mgrwt>
</event>
<event>
 7    0  0.4725730E-002  0.4543177E+03  0.7546771E-02  0.1026442E+00
         21   -1    0    0  502  501  0.00000000000E+00  0.00000000000E+00  0.69814774142E+02  0.69814774142E+02  0.00000000000E+00 0. -1.
         21   -1    0    0  501  502 -0.00000000000E+00 -0.00000000000E+00 -0.73911508283E+03  0.73911508283E+03  0.00000000000E+00 0. -1.
      99926    2    1    2    0    0  0.00000000000E+00  0.14210854715E-13 -0.66930030868E+03  0.80892985697E+03  0.45431774155E+03 0.  0.
      99925    2    3    3    0    0  0.43748805548E+02 -0.92946634635E+02 -0.33810964822E+03  0.44030023722E+03  0.26266543320E+03 0.  0.
         25    1    3    3    0    0 -0.43748805548E+02  0.92946634635E+02 -0.33119066047E+03  0.36862961975E+03  0.12509000000E+03 0.  0.
         25    1    4    4    0    0  0.46652572434E+02 -0.70985908710E+02 -0.21922118096E+03  0.26630977457E+03  0.12509000000E+03 0.  0.
         25    1    4    4    0    0 -0.29037668860E+01 -0.21960725926E+02 -0.11888846726E+03  0.17399046265E+03  0.12509000000E+03 0.  0.
<mgrwt>
<rscale>  2 0.45431774E+03</rscale>
<asrwt>0</asrwt>
<pdfrwt beam="1">  1       21 0.10266878E-01 0.45431774E+03</pdfrwt>
<pdfrwt beam="2">  1       21 0.10869340E+00 0.45431774E+03</pdfrwt>
<totfact> 0.47590193E+04</totfact>
</mgrwt>
</event>
<event>
 7    0  0.4725730E-002  0.4471254E+03  0.7546771E-02  0.1028583E+00
         21   -1    0    0  502  501  0.00000000000E+00  0.00000000000E+00  0.74374495898E+02  0.74374495898E+02  0.00000000000E+00 0.  1.
         21   -1    0    0  501  502 -0.00000000000E+00 -0.00000000000E+00 -0.67200823422E+03  0.67200823422E+03  0.00000000000E+00 0.  1.
      99926    2    1    2    0    0 -0.17763568394E-14  0.00000000000E+00 -0.59763373832E+03  0.74638273011E+03  0.44712536792E+03 0.  0.
      99925    2    3    3    0    0 -0.11512011969E+02 -0.10459793352E+03 -0.39416303922E+03  0.48538256228E+03  0.26297999194E+03 0.  0.
         25    1    4    4    0    0 -0.27883525933E+01 -0.41673666852E+02 -0.12427759865E+03  0.18120954458E+03  0.12509000000E+03 0.  0.
         25    1    4    4    0    0 -0.87236593754E+01 -0.62924266672E+02 -0.26988544057E+03  0.30417301770E+03  0.12509000000E+03 0.  0.
         25    1    3    3    0    0  0.11512011969E+02  0.10459793352E+03 -0.20347069910E+03  0.26100016783E+03  0.12509000000E+03 0.  0.
<mgrwt>
<rscale>  2 0.44712537E+03</rscale>
<asrwt>0</asrwt>
<pdfrwt beam="1">  1       21 0.10937426E-01 0.44712537E+03</pdfrwt>
<pdfrwt beam="2">  1       21 0.98824741E-01 0.44712537E+03</pdfrwt>
<totfact> 0.53703585E+04</totfact>
</mgrwt>
</event>
<event>
 7    0  0.4725730E-002  0.4563105E+03  0.7546771E-02  0.1025857E+00
         21   -1    0    0  502  501  0.00000000000E+00  0.00000000000E+00  0.15308935135E+03  0.15308935135E+03  0.00000000000E+00 0. -1.
         21   -1    0    0  501  502 -0.00000000000E+00 -0.00000000000E+00 -0.34002899675E+03  0.34002899675E+03  0.00000000000E+00 0. -1.
      99926    2    1    2    0    0  0.00000000000E+00  0.00000000000E+00 -0.18693964540E+03  0.49311834810E+03  0.45631050197E+03 0.  0.
      99925    2    3    3    0    0 -0.77742603032E+02 -0.82872162206E+02 -0.10201310761E+03  0.30398418271E+03  0.26284596558E+03 0.  0.
         25    1    4    4    0    0 -0.12297569396E+02 -0.55472529691E+02 -0.21177337109E+02  0.13901229971E+03  0.12509000000E+03 0.  0.
         25    1    4    4    0    0 -0.65445033636E+02 -0.27399632516E+02 -0.80835770503E+02  0.16497188301E+03  0.12509000000E+03 0.  0.
         25    1    3    3    0    0  0.77742603032E+02  0.82872162206E+02 -0.84926537791E+02  0.18913416539E+03  0.12509000000E+03 0.  0.
<mgrwt>
<rscale>  2 0.45631050E+03</rscale>
<asrwt>0</asrwt>
<pdfrwt beam="1">  1       21 0.22513140E-01 0.45631050E+03</pdfrwt>
<pdfrwt beam="2">  1       21 0.50004264E-01 0.45631050E+03</pdfrwt>
<totfact> 0.65077189E+04</totfact>
</mgrwt>
</event>
<event>
 7    0  0.4725730E-002  0.4585400E+03  0.7546771E-02  0.1025206E+00
         21   -1    0    0  502  501  0.00000000000E+00  0.00000000000E+00  0.34944262326E+03  0.34944262326E+03  0.00000000000E+00 0. -1.
         21   -1    0    0  501  502 -0.00000000000E+00 -0.00000000000E+00 -0.15042451388E+03  0.15042451388E+03  0.00000000000E+00 0. -1.
      99926    2    1    2    0    0  0.00000000000E+00  0.00000000000E+00  0.19901810938E+03  0.49986713714E+03  0.45854001672E+03 0.  0.
      99925    2    3    3    0    0 -0.66958871510E+02  0.38070626127E+02  0.29600649596E+02  0.27562921254E+03  0.26298745465E+03 0.  0.
         25    1    4    4    0    0 -0.36967443078E+02  0.26652468294E+02  0.54943516474E+02  0.14402515064E+03  0.12509000000E+03 0.  0.
         25    1    3    3    0    0  0.66958871510E+02 -0.38070626127E+02  0.16941745979E+03  0.22423792460E+03  0.12509000000E+03 0.  0.
         25    1    4    4    0    0 -0.29991428432E+02  0.11418157833E+02 -0.25342866878E+02  0.13160406190E+03  0.12509000000E+03 0.  0.
<mgrwt>
<rscale>  2 0.45854002E+03</rscale>
<asrwt>0</asrwt>
<pdfrwt beam="1">  1       21 0.51388621E-01 0.45854002E+03</pdfrwt>
<pdfrwt beam="2">  1       21 0.22121252E-01 0.45854002E+03</pdfrwt>
<totfact> 0.63477333E+04</totfact>
</mgrwt>
</event>
<event>
 7    0  0.4725730E-002  0.4561954E+03  0.7546771E-02  0.1025890E+00
         21   -1    0    0  502  501  0.00000000000E+00  0.00000000000E+00  0.15443976785E+03  0.15443976785E+03  0.00000000000E+00 0.  1.
         21   -1    0    0  501  502 -0.00000000000E+00 -0.00000000000E+00 -0.33688583831E+03  0.33688583831E+03  0.00000000000E+00 0.  1.
      99926    2    1    2    0    0  0.71054273576E-14  0.00000000000E+00 -0.18244607047E+03  0.49132560616E+03  0.45619544347E+03 0.  0.
      99925    2    3    3    0    0  0.47192581362E+02 -0.49982199914E+02 -0.21300549795E+03  0.34535729881E+03  0.26301133368E+03 0.  0.
         25    1    4    4    0    0  0.36418113063E+02 -0.42495565777E+00 -0.14247099819E+03  0.19305945450E+03  0.12509000000E+03 0.  0.
         25    1    3    3    0    0 -0.47192581362E+02  0.49982199914E+02  0.30559427480E+02  0.14596830735E+03  0.12509000000E+03 0.  0.
         25    1    4    4    0    0  0.10774468299E+02 -0.49557244256E+02 -0.70534499755E+02  0.15229784431E+03  0.12509000000E+03 0.  0.
<mgrwt>
<rscale>  2 0.45619544E+03</rscale>
<asrwt>0</asrwt>
<pdfrwt beam="1">  1       21 0.22711731E-01 0.45619544E+03</pdfrwt>
<pdfrwt beam="2">  1       21 0.49542034E-01 0.45619544E+03</pdfrwt>
<totfact> 0.65262897E+04</totfact>
</mgrwt>
</event>
<event>
 7    0  0.4725730E-002  0.4530325E+03  0.7546771E-02  0.1026822E+00
         21   -1    0    0  502  501  0.00000000000E+00  0.00000000000E+00  0.23946808285E+03  0.23946808285E+03  0.00000000000E+00 0. -1.
         21   -1    0    0  501  502 -0.00000000000E+00 -0.00000000000E+00 -0.21426496778E+03  0.21426496778E+03  0.00000000000E+00 0. -1.
      99926    2    1    2    0    0  0.00000000000E+00 -0.71054273576E-14  0.25203115067E+02  0.45373305063E+03  0.45303254213E+03 0.  0.
      99925    2    3    3    0    0 -0.84656712287E+02  0.43071715807E+02 -0.42151327635E+02  0.28283524289E+03  0.26305343291E+03 0.  0.
         25    1    4    4    0    0 -0.63259840678E+02  0.54460385666E+02 -0.64968234251E+01  0.15052394449E+03  0.12509000000E+03 0.  0.
         25    1    4    4    0    0 -0.21396871610E+02 -0.11388669858E+02 -0.35654504210E+02  0.13231129841E+03  0.12509000000E+03 0.  0.
         25    1    3    3    0    0  0.84656712287E+02 -0.43071715807E+02  0.67354442702E+02  0.17089780774E+03  0.12509000000E+03 0.  0.
<mgrwt>
<rscale>  2 0.45303254E+03</rscale>
<asrwt>0</asrwt>
<pdfrwt beam="1">  1       21 0.35215895E-01 0.45303254E+03</pdfrwt>
<pdfrwt beam="2">  1       21 0.31509554E-01 0.45303254E+03</pdfrwt>
<totfact> 0.69726902E+04</totfact>
</mgrwt>
</event>
<event>
 7    0  0.4725730E-002  0.4289951E+03  0.7546771E-02  0.1034178E+00
         21   -1    0    0  502  501  0.00000000000E+00  0.00000000000E+00  0.12088530420E+03  0.12088530420E+03  0.00000000000E+00 0. -1.
         21   -1    0    0  501  502 -0.00000000000E+00 -0.00000000000E+00 -0.38060209822E+03  0.38060209822E+03  0.00000000000E+00 0. -1.
      99926    2    1    2    0    0  0.14210854715E-13  0.00000000000E+00 -0.25971679402E+03  0.50148740241E+03  0.42899510683E+03 0.  0.
      99925    2    3    3    0    0 -0.74195794186E+02 -0.33330876699E+02 -0.20123998997E+03  0.34122821257E+03  0.26329298562E+03 0.  0.
         25    1    4    4    0    0 -0.37759670513E+01 -0.64525443167E+01 -0.63530058296E+02  0.14049722297E+03  0.12509000000E+03 0.  0.
         25    1    4    4    0    0 -0.70419827134E+02 -0.26878332382E+02 -0.13770993167E+03  0.20073098960E+03  0.12509000000E+03 0.  0.
         25    1    3    3    0    0  0.74195794186E+02  0.33330876699E+02 -0.58476804049E+02  0.16025918984E+03  0.12509000000E+03 0.  0.
<mgrwt>
<rscale>  2 0.42899511E+03</rscale>
<asrwt>0</asrwt>
<pdfrwt beam="1">  1       21 0.17777250E-01 0.42899511E+03</pdfrwt>
<pdfrwt beam="2">  1       21 0.55970897E-01 0.42899511E+03</pdfrwt>
<totfact> 0.80540385E+04</totfact>
</mgrwt>
</event>
<event>
 7    0  0.4725730E-002  0.4461675E+03  0.7546771E-02  0.1028871E+00
         21   -1    0    0  502  501  0.00000000000E+00  0.00000000000E+00  0.97847678749E+03  0.97847678749E+03  0.00000000000E+00 0.  1.
         21   -1    0    0  501  502 -0.00000000000E+00 -0.00000000000E+00 -0.50861048432E+02  0.50861048432E+02  0.00000000000E+00 0.  1.
      99926    2    1    2    0    0  0.00000000000E+00  0.00000000000E+00  0.92761573906E+03  0.10293378359E+04  0.44616748101E+03 0.  0.
      99925    2    3    3    0    0 -0.88136367714E+02 -0.29828933906E+02  0.69904795051E+03  0.75266379183E+03  0.26301513609E+03 0.  0.
         25    1    4    4    0    0 -0.15564185622E+02 -0.30411255977E+02  0.39979324681E+03  0.42029660558E+03  0.12509000000E+03 0.  0.
         25    1    3    3    0    0  0.88136367714E+02  0.29828933906E+02  0.22856778855E+03  0.27667404409E+03  0.12509000000E+03 0.  0.
         25    1    4    4    0    0 -0.72572182092E+02  0.58232207109E+00  0.29925470370E+03  0.33236718625E+03  0.12509000000E+03 0.  0.
<mgrwt>
<rscale>  2 0.44616748E+03</rscale>
<asrwt>0</asrwt>
<pdfrwt beam="1">  1       21 0.14389363E+00 0.44616748E+03</pdfrwt>
<pdfrwt beam="2">  1       21 0.74795666E-02 0.44616748E+03</pdfrwt>
<totfact> 0.40785413E+04</totfact>
</mgrwt>
</event>
<event>
 7    0  0.4725730E-002  0.4540274E+03  0.7546771E-02  0.1026528E+00
         21   -1    0    0  502  501  0.00000000000E+00  0.00000000000E+00  0.13313849756E+03  0.13313849756E+03  0.00000000000E+00 0.  1.
         21   -1    0    0  501  502 -0.00000000000E+00 -0.00000000000E+00 -0.38707984145E+03  0.38707984145E+03  0.00000000000E+00 0.  1.
      99926    2    1    2    0    0  0.00000000000E+00  0.00000000000E+00 -0.25394134389E+03  0.52021833901E+03  0.45402743761E+03 0.  0.
      99925    2    3    3    0    0 -0.26677699452E+02  0.68449003842E+02 -0.25718575840E+03  0.37511492726E+03  0.26300138509E+03 0.  0.
         25    1    3    3    0    0  0.26677699452E+02 -0.68449003842E+02  0.32444145104E+01  0.14510341175E+03  0.12509000000E+03 0.  0.
         25    1    4    4    0    0  0.13623293589E+02  0.51758568424E+02 -0.16428008617E+03  0.21330728620E+03  0.12509000000E+03 0.  0.
         25    1    4    4    0    0 -0.40300993041E+02  0.16690435418E+02 -0.92905672227E+02  0.16180764106E+03  0.12509000000E+03 0.  0.
<mgrwt>
<rscale>  2 0.45402744E+03</rscale>
<asrwt>0</asrwt>
<pdfrwt beam="1">  1       21 0.19579191E-01 0.45402744E+03</pdfrwt>
<pdfrwt beam="2">  1       21 0.56923506E-01 0.45402744E+03</pdfrwt>
<totfact> 0.64367609E+04</totfact>
</mgrwt>
</event>
<event>
 7    0  0.4725730E-002  0.4716444E+03  0.7546771E-02  0.1021457E+00
         21   -1    0    0  502  501  0.00000000000E+00  0.00000000000E+00  0.77146210150E+03  0.77146210150E+03  0.00000000000E+00 0.  1.
         21   -1    0    0  501  502 -0.00000000000E+00 -0.00000000000E+00 -0.72086644121E+02  0.72086644121E+02  0.00000000000E+00 0.  1.
      99926    2    1    2    0    0  0.00000000000E+00  0.00000000000E+00  0.69937545738E+03  0.84354874562E+03  0.47164441675E+03 0.  0.
      99925    2    3    3    0    0  0.38255259353E+02 -0.11813616239E+03  0.48893354901E+03  0.56904387749E+03  0.26331597260E+03 0.  0.
         25    1    4    4    0    0 -0.14911103929E+02 -0.38406713084E+02  0.25475855443E+03  0.28678710882E+03  0.12509000000E+03 0.  0.
         25    1    3    3    0    0 -0.38255259353E+02  0.11813616239E+03  0.21044190836E+03  0.27450486813E+03  0.12509000000E+03 0.  0.
         25    1    4    4    0    0  0.53166363283E+02 -0.79729449301E+02  0.23417499458E+03  0.28225676866E+03  0.12509000000E+03 0.  0.
<mgrwt>
<rscale>  2 0.47164442E+03</rscale>
<asrwt>0</asrwt>
<pdfrwt beam="1">  1       21 0.11345030E+00 0.47164442E+03</pdfrwt>
<pdfrwt beam="2">  1       21 0.10600978E-01 0.47164442E+03</pdfrwt>
<totfact> 0.40215115E+04</totfact>
</mgrwt>
</event>
<event>
 7    0  0.4725730E-002  0.4623881E+03  0.7546771E-02  0.1024091E+00
         21   -1    0    0  502  501  0.00000000000E+00  0.00000000000E+00  0.63982166061E+03  0.63982166061E+03  0.00000000000E+00 0. -1.
         21   -1    0    0  501  502 -0.00000000000E+00 -0.00000000000E+00 -0.83539964690E+02  0.83539964690E+02  0.00000000000E+00 0. -1.
      99926    2    1    2    0    0  0.00000000000E+00  0.00000000000E+00  0.55628169592E+03  0.72336162530E+03  0.46238805752E+03 0.  0.
      99925    2    3    3    0    0  0.69834062083E+02 -0.78591817333E+02  0.43831350868E+03  0.52182385891E+03  0.26292192351E+03 0.  0.
         25    1    4    4    0    0  0.64950471473E+02 -0.15176966963E+02  0.24292409103E+03  0.28126237959E+03  0.12509000000E+03 0.  0.
         25    1    4    4    0    0  0.48835906096E+01 -0.63414850371E+02  0.19538941765E+03  0.24056147932E+03  0.12509000000E+03 0.  0.
         25    1    3    3    0    0 -0.69834062083E+02  0.78591817333E+02  0.11796818724E+03  0.20153776639E+03  0.12509000000E+03 0.  0.
<mgrwt>
<rscale>  2 0.46238806E+03</rscale>
<asrwt>0</asrwt>
<pdfrwt beam="1">  1       21 0.94091418E-01 0.46238806E+03</pdfrwt>
<pdfrwt beam="2">  1       21 0.12285289E-01 0.46238806E+03</pdfrwt>
<totfact> 0.48757373E+04</totfact>
</mgrwt>
</event>
<event>
 7    0  0.4725730E-002  0.4502828E+03  0.7546771E-02  0.1027638E+00
         21   -1    0    0  502  501  0.00000000000E+00  0.00000000000E+00  0.49735678162E+02  0.49735678162E+02  0.00000000000E+00 0.  1.
         21   -1    0    0  501  502 -0.00000000000E+00 -0.00000000000E+00 -0.10191608827E+04  0.10191608827E+04  0.00000000000E+00 0.  1.
      99926    2    1    2    0    0  0.00000000000E+00  0.00000000000E+00 -0.96942520452E+03  0.10688965608E+04  0.45028283403E+03 0.  0.
      99925    2    3    3    0    0 -0.10770289983E+03  0.15911907013E+00 -0.57884891356E+03  0.64487145886E+03  0.26304599174E+03 0.  0.
         25    1    4    4    0    0 -0.12459347689E+02 -0.11748088112E+01 -0.28808343916E+03  0.31431861469E+03  0.12509000000E+03 0.  0.
         25    1    4    4    0    0 -0.95243552145E+02  0.13339278814E+01 -0.29076547440E+03  0.33055284417E+03  0.12509000000E+03 0.  0.
         25    1    3    3    0    0  0.10770289983E+03 -0.15911907013E+00 -0.39057629096E+03  0.42402510199E+03  0.12509000000E+03 0.  0.
<mgrwt>
<rscale>  2 0.45028283E+03</rscale>
<asrwt>0</asrwt>
<pdfrwt beam="1">  1       21 0.73140706E-02 0.45028283E+03</pdfrwt>
<pdfrwt beam="2">  1       21 0.14987659E+00 0.45028283E+03</pdfrwt>
<totfact> 0.37970159E+04</totfact>
</mgrwt>
</event>
<event>
 7    0  0.4725730E-002  0.4564204E+03  0.7546771E-02  0.1025825E+00
         21   -1    0    0  502  501  0.00000000000E+00  0.00000000000E+00  0.86264252538E+03  0.86264252538E+03  0.00000000000E+00 0.  1.
         21   -1    0    0  501  502 -0.00000000000E+00 -0.00000000000E+00 -0.60372512635E+02  0.60372512635E+02  0.00000000000E+00 0.  1.
      99926    2    1    2    0    0  0.14210854715E-13  0.17763568394E-14  0.80227001274E+03  0.92301503801E+03  0.45642040604E+03 0.  0.
      99925    2    3    3    0    0  0.89591617833E+02  0.13638891747E+02  0.36261563227E+03  0.45701486663E+03  0.26298253593E+03 0.  0.
         25    1    4    4    0    0  0.12693265192E+02  0.13167259205E+02  0.21083041383E+03  0.24582812530E+03  0.12509000000E+03 0.  0.
         25    1    4    4    0    0  0.76898352641E+02  0.47163254143E+00  0.15178521844E+03  0.21118674133E+03  0.12509000000E+03 0.  0.
         25    1    3    3    0    0 -0.89591617833E+02 -0.13638891747E+02  0.43965438047E+03  0.46600017138E+03  0.12509000000E+03 0.  0.
<mgrwt>
<rscale>  2 0.45642041E+03</rscale>
<asrwt>0</asrwt>
<pdfrwt beam="1">  1       21 0.12685919E+00 0.45642041E+03</pdfrwt>
<pdfrwt beam="2">  1       21 0.88783112E-02 0.45642041E+03</pdfrwt>
<totfact> 0.41787115E+04</totfact>
</mgrwt>
</event>
<event>
 7    0  0.4725730E-002  0.4478813E+03  0.7546771E-02  0.1028356E+00
         21   -1    0    0  502  501  0.00000000000E+00  0.00000000000E+00  0.59295380780E+02  0.59295380780E+02  0.00000000000E+00 0.  1.
         21   -1    0    0  501  502 -0.00000000000E+00 -0.00000000000E+00 -0.84575577569E+03  0.84575577569E+03  0.00000000000E+00 0.  1.
      99926    2    1    2    0    0  0.00000000000E+00  0.14210854715E-13 -0.78646039491E+03  0.90505115647E+03  0.44788128233E+03 0.  0.
      99925    2    3    3    0    0  0.21451885463E+02 -0.66545122986E+02 -0.33601316170E+03  0.43235817493E+03  0.26294545027E+03 0.  0.
         25    1    3    3    0    0 -0.21451885463E+02  0.66545122986E+02 -0.45044723321E+03  0.47269298153E+03  0.12509000000E+03 0.  0.
         25    1    4    4    0    0  0.29101867150E+02 -0.70052397909E+02 -0.19282012363E+03  0.24203587606E+03  0.12509000000E+03 0.  0.
         25    1    4    4    0    0 -0.76499816876E+01  0.35072749227E+01 -0.14319303807E+03  0.19032229887E+03  0.12509000000E+03 0.  0.
<mgrwt>
<rscale>  2 0.44788128E+03</rscale>
<asrwt>0</asrwt>
<pdfrwt beam="1">  1       21 0.87199093E-02 0.44788128E+03</pdfrwt>
<pdfrwt beam="2">  1       21 0.12437584E+00 0.44788128E+03</pdfrwt>
<totfact> 0.45498284E+04</totfact>
</mgrwt>
</event>
<event>
 7    0  0.4725730E-002  0.4554139E+03  0.7546771E-02  0.1026120E+00
         21   -1    0    0  502  501  0.00000000000E+00  0.00000000000E+00  0.10574458153E+04  0.10574458153E+04  0.00000000000E+00 0. -1.
         21   -1    0    0  501  502 -0.00000000000E+00 -0.00000000000E+00 -0.49033682387E+02  0.49033682387E+02  0.00000000000E+00 0. -1.
      99926    2    1    2    0    0  0.00000000000E+00  0.00000000000E+00  0.10084121330E+04  0.11064794977E+04  0.45541393150E+03 0.  0.
      99925    2    3    3    0    0  0.82312102611E+02  0.22172969707E+02  0.45180523950E+03  0.52965572502E+03  0.26294541218E+03 0.  0.
         25    1    4    4    0    0  0.12517963057E+02  0.40274121412E+02  0.21206535366E+03  0.24979576974E+03  0.12509000000E+03 0.  0.
         25    1    4    4    0    0  0.69794139554E+02 -0.18101151705E+02  0.23973988584E+03  0.27985995528E+03  0.12509000000E+03 0.  0.
         25    1    3    3    0    0 -0.82312102611E+02 -0.22172969707E+02  0.55660689345E+03  0.57682377271E+03  0.12509000000E+03 0.  0.
<mgrwt>
<rscale>  2 0.45541393E+03</rscale>
<asrwt>0</asrwt>
<pdfrwt beam="1">  1       21 0.15550672E+00 0.45541393E+03</pdfrwt>
<pdfrwt beam="2">  1       21 0.72108363E-02 0.45541393E+03</pdfrwt>
<totfact> 0.35155352E+04</totfact>
</mgrwt>
</event>
<event>
 7    0  0.4725730E-002  0.4469671E+03  0.7546771E-02  0.1028630E+00
         21   -1    0    0  502  501  0.00000000000E+00  0.00000000000E+00  0.46866563157E+03  0.46866563157E+03  0.00000000000E+00 0. -1.
         21   -1    0    0  501  502 -0.00000000000E+00 -0.00000000000E+00 -0.10656829174E+03  0.10656829174E+03  0.00000000000E+00 0. -1.
      99926    2    1    2    0    0  0.00000000000E+00  0.00000000000E+00  0.36209733983E+03  0.57523392331E+03  0.44696709389E+03 0.  0.
      99925    2    3    3    0    0  0.12705337799E+02  0.98163532631E+02  0.18280908837E+03  0.33525623693E+03  0.26302105784E+03 0.  0.
         25    1    4    4    0    0  0.30233001386E+02  0.30455750082E+02  0.12075700312E+03  0.17908475365E+03  0.12509000000E+03 0.  0.
         25    1    4    4    0    0 -0.17527663587E+02  0.67707782549E+02  0.62052085243E+02  0.15617148329E+03  0.12509000000E+03 0.  0.
         25    1    3    3    0    0 -0.12705337799E+02 -0.98163532631E+02  0.17928825146E+03  0.23997768638E+03  0.12509000000E+03 0.  0.
<mgrwt>
<rscale>  2 0.44696709E+03</rscale>
<asrwt>0</asrwt>
<pdfrwt beam="1">  1       21 0.68921415E-01 0.44696709E+03</pdfrwt>
<pdfrwt beam="2">  1       21 0.15671808E-01 0.44696709E+03</pdfrwt>
<totfact> 0.64211254E+04</totfact>
</mgrwt>
</event>
<event>
 7    0  0.4725730E-002  0.4535363E+03  0.7546771E-02  0.1026673E+00
         21   -1    0    0  502  501  0.00000000000E+00  0.00000000000E+00  0.62518909559E+03  0.62518909559E+03  0.00000000000E+00 0. -1.
         21   -1    0    0  501  502 -0.00000000000E+00 -0.00000000000E+00 -0.82253177429E+02  0.82253177429E+02  0.00000000000E+00 0. -1.
      99926    2    1    2    0    0  0.00000000000E+00 -0.14210854715E-13  0.54293591817E+03  0.70744227302E+03  0.45353628127E+03 0.  0.
      99925    2    3    3    0    0 -0.73400478433E+01  0.11146416257E+03  0.35006211908E+03  0.45185286340E+03  0.26296271048E+03 0.  0.
         25    1    3    3    0    0  0.73400478433E+01 -0.11146416257E+03  0.19287379908E+03  0.25558940962E+03  0.12509000000E+03 0.  0.
         25    1    4    4    0    0 -0.32613550313E+01  0.96232164983E+02  0.21932117472E+03  0.27022315185E+03  0.12509000000E+03 0.  0.
         25    1    4    4    0    0 -0.40786928120E+01  0.15231997587E+02  0.13074094437E+03  0.18162971155E+03  0.12509000000E+03 0.  0.
<mgrwt>
<rscale>  2 0.45353628E+03</rscale>
<asrwt>0</asrwt>
<pdfrwt beam="1">  1       21 0.91939571E-01 0.45353628E+03</pdfrwt>
<pdfrwt beam="2">  1       21 0.12096056E-01 0.45353628E+03</pdfrwt>
<totfact> 0.53109772E+04</totfact>
</mgrwt>
</event>
<event>
 7    0  0.4725730E-002  0.4475349E+03  0.7546771E-02  0.1028460E+00
         21   -1    0    0  502  501  0.00000000000E+00  0.00000000000E+00  0.32363446309E+03  0.32363446309E+03  0.00000000000E+00 0.  1.
         21   -1    0    0  501  502 -0.00000000000E+00 -0.00000000000E+00 -0.15471737899E+03  0.15471737899E+03  0.00000000000E+00 0.  1.
      99926    2    1    2    0    0  0.00000000000E+00  0.00000000000E+00  0.16891708409E+03  0.47835184208E+03  0.44753491877E+03 0.  0.
      99925    2    3    3    0    0  0.61211711476E+02  0.86168043509E+02  0.10083676450E+03  0.30099840016E+03  0.26317328603E+03 0.  0.
         25    1    3    3    0    0 -0.61211711476E+02 -0.86168043509E+02  0.68080319595E+02  0.17735344192E+03  0.12509000000E+03 0.  0.
         25    1    4    4    0    0  0.66615227301E+02  0.56738182983E+02  0.73835040847E+02  0.16957573905E+03  0.12509000000E+03 0.  0.
         25    1    4    4    0    0 -0.54035158251E+01  0.29429860526E+02  0.27001723652E+02  0.13142266111E+03  0.12509000000E+03 0.  0.
<mgrwt>
<rscale>  2 0.44753492E+03</rscale>
<asrwt>0</asrwt>
<pdfrwt beam="1">  1       21 0.47593303E-01 0.44753492E+03</pdfrwt>
<pdfrwt beam="2">  1       21 0.22752556E-01 0.44753492E+03</pdfrwt>
<totfact> 0.70931212E+04</totfact>
</mgrwt>
</event>
<event>
 7    0  0.4725730E-002  0.4632306E+03  0.7546771E-02  0.1023848E+00
         21   -1    0    0  502  501  0.00000000000E+00  0.00000000000E+00  0.20223588645E+03  0.20223588645E+03  0.00000000000E+00 0.  1.
         21   -1    0    0  501  502 -0.00000000000E+00 -0.00000000000E+00 -0.26526278413E+03  0.26526278413E+03  0.00000000000E+00 0.  1.
      99926    2    1    2    0    0  0.71054273576E-14  0.00000000000E+00 -0.63026897676E+02  0.46749867058E+03  0.46323063064E+03 0.  0.
      99925    2    3    3    0    0 -0.62168896030E+02  0.51358910699E+02  0.51233889182E+02  0.27986673072E+03  0.26305468295E+03 0.  0.
         25    1    4    4    0    0 -0.30215397652E+02  0.90266034011E+01 -0.12850817262E+02  0.12964220543E+03  0.12509000000E+03 0.  0.
         25    1    3    3    0    0  0.62168896030E+02 -0.51358910699E+02 -0.11426078686E+03  0.18763193986E+03  0.12509000000E+03 0.  0.
         25    1    4    4    0    0 -0.31953498378E+02  0.42332307298E+02  0.64084706444E+02  0.15022452529E+03  0.12509000000E+03 0.  0.
<mgrwt>
<rscale>  2 0.46323063E+03</rscale>
<asrwt>0</asrwt>
<pdfrwt beam="1">  1       21 0.29740572E-01 0.46323063E+03</pdfrwt>
<pdfrwt beam="2">  1       21 0.39009233E-01 0.46323063E+03</pdfrwt>
<totfact> 0.63374471E+04</totfact>
</mgrwt>
</event>
<event>
 7    0  0.6288925E-002  0.4235511E+03  0.7546771E-02  0.1035917E+00
         21   -1    0    0  502  501  0.00000000000E+00  0.00000000000E+00  0.23225110896E+03  0.23225110896E+03  0.00000000000E+00 0. -1.
         21   -1    0    0  501  502 -0.00000000000E+00 -0.00000000000E+00 -0.19310514287E+03  0.19310514287E+03  0.00000000000E+00 0. -1.
      99926    2    1    2    0    0  0.00000000000E+00  0.00000000000E+00  0.39145966087E+02  0.42535625183E+03  0.42355110000E+03 0.  0.
      99925    2    3    3    0    0  0.70747267840E+02  0.14855764426E+02  0.60312842259E+02  0.27933771057E+03  0.26299438770E+03 0.  0.
         25    1    4    4    0    0  0.67363478884E+02  0.31666678863E+02  0.43762892689E+02  0.15199774904E+03  0.12509000000E+03 0.  0.
         25    1    4    4    0    0  0.33837889554E+01 -0.16810914436E+02  0.16549949569E+02  0.12733996153E+03  0.12509000000E+03 0.  0.
         25    1    3    3    0    0 -0.70747267840E+02 -0.14855764426E+02 -0.21166876171E+02  0.14601854126E+03  0.12509000000E+03 0.  0.
<mgrwt>
<rscale>  2 0.42355110E+03</rscale>
<asrwt>0</asrwt>
<pdfrwt beam="1">  1       21 0.34154575E-01 0.42355110E+03</pdfrwt>
<pdfrwt beam="2">  1       21 0.28397815E-01 0.42355110E+03</pdfrwt>
<totfact> 0.91716236E+04</totfact>
</mgrwt>
</event>
<event>
 7    0  0.4725730E-002  0.4520023E+03  0.7546771E-02  0.1027127E+00
         21   -1    0    0  502  501  0.00000000000E+00  0.00000000000E+00  0.19622792422E+03  0.19622792422E+03  0.00000000000E+00 0.  1.
         21   -1    0    0  501  502 -0.00000000000E+00 -0.00000000000E+00 -0.26029178189E+03  0.26029178189E+03  0.00000000000E+00 0.  1.
      99926    2    1    2    0    0  0.00000000000E+00 -0.17763568394E-14 -0.64063857673E+02  0.45651970611E+03  0.45200228341E+03 0.  0.
      99925    2    3    3    0    0  0.87297435690E+02 -0.13124954559E+02  0.26889484149E+02  0.27843791254E+03  0.26270043790E+03 0.  0.
         25    1    3    3    0    0 -0.87297435690E+02  0.13124954559E+02 -0.90953341822E+02  0.17808179356E+03  0.12509000000E+03 0.  0.
         25    1    4    4    0    0  0.67784358352E+02 -0.37712049580E+02  0.26539629422E+01  0.14721232808E+03  0.12509000000E+03 0.  0.
         25    1    4    4    0    0  0.19513077339E+02  0.24587095022E+02  0.24235521207E+02  0.13122558446E+03  0.12509000000E+03 0.  0.
<mgrwt>
<rscale>  2 0.45200228E+03</rscale>
<asrwt>0</asrwt>
<pdfrwt beam="1">  1       21 0.28857048E-01 0.45200228E+03</pdfrwt>
<pdfrwt beam="2">  1       21 0.38278203E-01 0.45200228E+03</pdfrwt>
<totfact> 0.70095736E+04</totfact>
</mgrwt>
</event>
<event>
 7    0  0.4725730E-002  0.4565706E+03  0.7546771E-02  0.1025781E+00
         21   -1    0    0  502  501  0.00000000000E+00  0.00000000000E+00  0.20129454137E+04  0.20129454137E+04  0.00000000000E+00 0. -1.
         21   -1    0    0  501  502 -0.00000000000E+00 -0.00000000000E+00 -0.25889518964E+02  0.25889518964E+02  0.00000000000E+00 0. -1.
      99926    2    1    2    0    0  0.00000000000E+00  0.00000000000E+00  0.19870558947E+04  0.20388349327E+04  0.45657064497E+03 0.  0.
      99925    2    3    3    0    0  0.18328715720E+01 -0.88131813058E+02  0.92146813687E+03  0.96231491255E+03  0.26301309428E+03 0.  0.
         25    1    3    3    0    0 -0.18328715720E+01  0.88131813058E+02  0.10655877579E+04  0.10765200201E+04  0.12509000000E+03 0.  0.
         25    1    4    4    0    0  0.37649109820E+01 -0.15347404466E+01  0.42769215076E+03  0.44562833607E+03  0.12509000000E+03 0.  0.
         25    1    4    4    0    0 -0.19320394100E+01 -0.86597072612E+02  0.49377598611E+03  0.51668657648E+03  0.12509000000E+03 0.  0.
<mgrwt>
<rscale>  2 0.45657064E+03</rscale>
<asrwt>0</asrwt>
<pdfrwt beam="1">  1       21 0.29602128E+00 0.45657064E+03</pdfrwt>
<pdfrwt beam="2">  1       21 0.38072836E-02 0.45657064E+03</pdfrwt>
<totfact> 0.12927654E+04</totfact>
</mgrwt>
</event>
<event>
 7    0  0.4725730E-002  0.4530999E+03  0.7546771E-02  0.1026802E+00
         21   -1    0    0  502  501  0.00000000000E+00  0.00000000000E+00  0.25665530162E+03  0.25665530162E+03  0.00000000000E+00 0.  1.
         21   -1    0    0  501  502 -0.00000000000E+00 -0.00000000000E+00 -0.19997588200E+03  0.19997588200E+03  0.00000000000E+00 0.  1.
      99926    2    1    2    0    0  0.00000000000E+00  0.00000000000E+00  0.56679419618E+02  0.45663118363E+03  0.45309985793E+03 0.  0.
      99925    2    3    3    0    0 -0.64571641156E+02  0.84154145402E+02  0.23115753612E+01  0.28384580340E+03  0.26327111444E+03 0.  0.
         25    1    3    3    0    0  0.64571641156E+02 -0.84154145402E+02  0.54367844257E+02  0.17278538022E+03  0.12509000000E+03 0.  0.
         25    1    4    4    0    0 -0.68647586005E+02  0.23141228746E+02 -0.14172799578E+01  0.14455976036E+03  0.12509000000E+03 0.  0.
         25    1    4    4    0    0  0.40759448490E+01  0.61012916656E+02  0.37288553191E+01  0.13928604305E+03  0.12509000000E+03 0.  0.
<mgrwt>
<rscale>  2 0.45309986E+03</rscale>
<asrwt>0</asrwt>
<pdfrwt beam="1">  1       21 0.37743427E-01 0.45309986E+03</pdfrwt>
<pdfrwt beam="2">  1       21 0.29408218E-01 0.45309986E+03</pdfrwt>
<totfact> 0.69473555E+04</totfact>
</mgrwt>
</event>
<event>
 7    0  0.4725730E-002  0.4308599E+03  0.7546771E-02  0.1033589E+00
         21   -1    0    0  502  501  0.00000000000E+00  0.00000000000E+00  0.27467029908E+03  0.27467029908E+03  0.00000000000E+00 0.  1.
         21   -1    0    0  501  502 -0.00000000000E+00 -0.00000000000E+00 -0.16896643938E+03  0.16896643938E+03  0.00000000000E+00 0.  1.
      99926    2    1    2    0    0  0.00000000000E+00  0.00000000000E+00  0.10570385971E+03  0.44363673846E+03  0.43085989574E+03 0.  0.
      99925    2    3    3    0    0  0.81385792883E+02 -0.33938832915E+02  0.57824736910E+02  0.28327648727E+03  0.26291895401E+03 0.  0.
         25    1    3    3    0    0 -0.81385792883E+02  0.33938832915E+02  0.47879122796E+02  0.16036025119E+03  0.12509000000E+03 0.  0.
         25    1    4    4    0    0  0.14458787123E+02 -0.47817325760E+02  0.24919107368E+02  0.13698183522E+03  0.12509000000E+03 0.  0.
         25    1    4    4    0    0  0.66927005760E+02  0.13878492845E+02  0.32905629542E+02  0.14629465205E+03  0.12509000000E+03 0.  0.
<mgrwt>
<rscale>  2 0.43085990E+03</rscale>
<asrwt>0</asrwt>
<pdfrwt beam="1">  1       21 0.40392691E-01 0.43085990E+03</pdfrwt>
<pdfrwt beam="2">  1       21 0.24848006E-01 0.43085990E+03</pdfrwt>
<totfact> 0.84505582E+04</totfact>
</mgrwt>
</event>
<event>
 7    0  0.4725730E-002  0.4514992E+03  0.7546771E-02  0.1027276E+00
         21   -1    0    0  502  501  0.00000000000E+00  0.00000000000E+00  0.73285833107E+03  0.73285833107E+03  0.00000000000E+00 0. -1.
         21   -1    0    0  501  502 -0.00000000000E+00 -0.00000000000E+00 -0.69539892760E+02  0.69539892760E+02  0.00000000000E+00 0. -1.
      99926    2    1    2    0    0  0.00000000000E+00  0.00000000000E+00  0.66331843831E+03  0.80239822383E+03  0.45149923478E+03 0.  0.
      99925    2    3    3    0    0 -0.98671276287E+02  0.45557103317E+02  0.38957759493E+03  0.48240911798E+03  0.26293798549E+03 0.  0.
         25    1    4    4    0    0 -0.73826041724E+02 -0.94329330063E+01  0.20481237530E+03  0.25126655535E+03  0.12509000000E+03 0.  0.
         25    1    4    4    0    0 -0.24845234563E+02  0.54990036323E+02  0.18476521963E+03  0.23114256263E+03  0.12509000000E+03 0.  0.
         25    1    3    3    0    0  0.98671276287E+02 -0.45557103317E+02  0.27374084338E+03  0.31998910585E+03  0.12509000000E+03 0.  0.
<mgrwt>
<rscale>  2 0.45149923E+03</rscale>
<asrwt>0</asrwt>
<pdfrwt beam="1">  1       21 0.10777328E+00 0.45149923E+03</pdfrwt>
<pdfrwt beam="2">  1       21 0.10226455E-01 0.45149923E+03</pdfrwt>
<totfact> 0.48980873E+04</totfact>
</mgrwt>
</event>
<event>
 7    0  0.4725730E-002  0.4558053E+03  0.7546771E-02  0.1026005E+00
         21   -1    0    0  502  501  0.00000000000E+00  0.00000000000E+00  0.13345003324E+03  0.13345003324E+03  0.00000000000E+00 0.  1.
         21   -1    0    0  501  502 -0.00000000000E+00 -0.00000000000E+00 -0.38920653458E+03  0.38920653458E+03  0.00000000000E+00 0.  1.
      99926    2    1    2    0    0  0.00000000000E+00  0.00000000000E+00 -0.25575650135E+03  0.52265656782E+03  0.45580533115E+03 0.  0.
      99925    2    3    3    0    0  0.65408766964E+02 -0.33543111773E+02 -0.60766694906E+02  0.27960928876E+03  0.26284085681E+03 0.  0.
         25    1    4    4    0    0  0.78903984372E+01 -0.27387225932E+01  0.15430383581E+01  0.12537802063E+03  0.12509000000E+03 0.  0.
         25    1    3    3    0    0 -0.65408766964E+02  0.33543111773E+02 -0.19498980644E+03  0.24304727906E+03  0.12509000000E+03 0.  0.
         25    1    4    4    0    0  0.57518368527E+02 -0.30804389180E+02 -0.62309733264E+02  0.15423126813E+03  0.12509000000E+03 0.  0.
<mgrwt>
<rscale>  2 0.45580533E+03</rscale>
<asrwt>0</asrwt>
<pdfrwt beam="1">  1       21 0.19625005E-01 0.45580533E+03</pdfrwt>
<pdfrwt beam="2">  1       21 0.57236255E-01 0.45580533E+03</pdfrwt>
<totfact> 0.63301184E+04</totfact>
</mgrwt>
</event>
<event>
 7    0  0.4725730E-002  0.4570431E+03  0.7546771E-02  0.1025642E+00
         21   -1    0    0  502  501  0.00000000000E+00  0.00000000000E+00  0.30259921621E+04  0.30259921621E+04  0.00000000000E+00 0. -1.
         21   -1    0    0  501  502 -0.00000000000E+00 -0.00000000000E+00 -0.17257840747E+02  0.17257840747E+02  0.00000000000E+00 0. -1.
      99926    2    1    2    0    0  0.14210854715E-13  0.00000000000E+00  0.30087343213E+04  0.30432500028E+04  0.45704306508E+03 0.  0.
      99925    2    3    3    0    0  0.11096123826E+03  0.21941986317E+02  0.17501903600E+04  0.17734570048E+04  0.26303916902E+03 0.  0.
         25    1    4    4    0    0  0.82557782433E+02 -0.16851415206E+02  0.83590466528E+03  0.84940206921E+03  0.12509000000E+03 0.  0.
         25    1    4    4    0    0  0.28403455824E+02  0.38793401523E+02  0.91428569477E+03  0.92405493563E+03  0.12509000000E+03 0.  0.
         25    1    3    3    0    0 -0.11096123826E+03 -0.21941986317E+02  0.12585439613E+04  0.12697929980E+04  0.12509000000E+03 0.  0.
<mgrwt>
<rscale>  2 0.45704307E+03</rscale>
<asrwt>0</asrwt>
<pdfrwt beam="1">  1       21 0.44499848E+00 0.45704307E+03</pdfrwt>
<pdfrwt beam="2">  1       21 0.25379198E-02 0.45704307E+03</pdfrwt>
<totfact> 0.29663763E+03</totfact>
</mgrwt>
</event>
<event>
 7    0  0.4725730E-002  0.4695071E+03  0.7546771E-02  0.1022059E+00
         21   -1    0    0  502  501  0.00000000000E+00  0.00000000000E+00  0.62038857948E+03  0.62038857948E+03  0.00000000000E+00 0. -1.
         21   -1    0    0  501  502 -0.00000000000E+00 -0.00000000000E+00 -0.88830175836E+02  0.88830175836E+02  0.00000000000E+00 0. -1.
      99926    2    1    2    0    0  0.00000000000E+00  0.00000000000E+00  0.53155840364E+03  0.70921875531E+03  0.46950708877E+03 0.  0.
      99925    2    3    3    0    0 -0.35256137651E+02  0.11458925712E+03  0.27044975639E+03  0.39585167526E+03  0.26302430493E+03 0.  0.
         25    1    4    4    0    0  0.18229626955E+02  0.65006921883E+02  0.11009995244E+03  0.17979912908E+03  0.12509000000E+03 0.  0.
         25    1    3    3    0    0  0.35256137651E+02 -0.11458925712E+03  0.26110864726E+03  0.31336708005E+03  0.12509000000E+03 0.  0.
         25    1    4    4    0    0 -0.53485764606E+02  0.49582335240E+02  0.16034980395E+03  0.21605254618E+03  0.12509000000E+03 0.  0.
<mgrwt>
<rscale>  2 0.46950709E+03</rscale>
<asrwt>0</asrwt>
<pdfrwt beam="1">  1       21 0.91233612E-01 0.46950709E+03</pdfrwt>
<pdfrwt beam="2">  1       21 0.13063262E-01 0.46950709E+03</pdfrwt>
<totfact> 0.46826220E+04</totfact>
</mgrwt>
</event>
<event>
 7    0  0.4725730E-002  0.4123024E+03  0.7546771E-02  0.1039601E+00
         21   -1    0    0  502  501  0.00000000000E+00  0.00000000000E+00  0.15452722439E+03  0.15452722439E+03  0.00000000000E+00 0. -1.
         21   -1    0    0  501  502 -0.00000000000E+00 -0.00000000000E+00 -0.27502153903E+03  0.27502153903E+03  0.00000000000E+00 0. -1.
      99926    2    1    2    0    0  0.71054273576E-14  0.00000000000E+00 -0.12049431464E+03  0.42954876343E+03  0.41230238940E+03 0.  0.
      99925    2    3    3    0    0 -0.48751351754E+02 -0.33424241292E+02 -0.10874374414E+03  0.29069827473E+03  0.26303309837E+03 0.  0.
         25    1    3    3    0    0  0.48751351754E+02  0.33424241292E+02 -0.11750570492E+02  0.13885048869E+03  0.12509000000E+03 0.  0.
         25    1    4    4    0    0 -0.40981894694E+02 -0.31733437781E+02 -0.93238847196E+02  0.16440047899E+03  0.12509000000E+03 0.  0.
         25    1    4    4    0    0 -0.77694570598E+01 -0.16908035117E+01 -0.15504896949E+02  0.12629779574E+03  0.12509000000E+03 0.  0.
<mgrwt>
<rscale>  2 0.41230239E+03</rscale>
<asrwt>0</asrwt>
<pdfrwt beam="1">  1       21 0.22724592E-01 0.41230239E+03</pdfrwt>
<pdfrwt beam="2">  1       21 0.40444344E-01 0.41230239E+03</pdfrwt>
<totfact> 0.10054270E+05</totfact>
</mgrwt>
</event>
<event>
 7    0  0.4725730E-002  0.4534890E+03  0.7546771E-02  0.1026687E+00
         21   -1    0    0  502  501  0.00000000000E+00  0.00000000000E+00  0.89280993375E+03  0.89280993375E+03  0.00000000000E+00 0. -1.
         21   -1    0    0  501  502 -0.00000000000E+00 -0.00000000000E+00 -0.57585676586E+02  0.57585676586E+02  0.00000000000E+00 0. -1.
      99926    2    1    2    0    0 -0.14210854715E-13 -0.17763568394E-14  0.83522425716E+03  0.95039561033E+03  0.45348898155E+03 0.  0.
      99925    2    3    3    0    0  0.10321722953E+03  0.11976919740E+02  0.61248429713E+03  0.67460974962E+03  0.26299060243E+03 0.  0.
         25    1    4    4    0    0  0.49844244464E+02  0.29789177512E+02  0.22884536403E+03  0.26718823428E+03  0.12509000000E+03 0.  0.
         25    1    3    3    0    0 -0.10321722953E+03 -0.11976919740E+02  0.22273996003E+03  0.27578586071E+03  0.12509000000E+03 0.  0.
         25    1    4    4    0    0  0.53372985064E+02 -0.17812257772E+02  0.38363893311E+03  0.40742151533E+03  0.12509000000E+03 0.  0.
<mgrwt>
<rscale>  2 0.45348898E+03</rscale>
<asrwt>0</asrwt>
<pdfrwt beam="1">  1       21 0.13129557E+00 0.45348898E+03</pdfrwt>
<pdfrwt beam="2">  1       21 0.84684824E-02 0.45348898E+03</pdfrwt>
<totfact> 0.41614327E+04</totfact>
</mgrwt>
</event>
<event>
 7    0  0.4725730E-002  0.4573767E+03  0.7546771E-02  0.1025545E+00
         21   -1    0    0  502  501  0.00000000000E+00  0.00000000000E+00  0.66695244261E+02  0.66695244261E+02  0.00000000000E+00 0.  1.
         21   -1    0    0  501  502 -0.00000000000E+00 -0.00000000000E+00 -0.78413913789E+03  0.78413913789E+03  0.00000000000E+00 0.  1.
      99926    2    1    2    0    0  0.00000000000E+00  0.35527136788E-14 -0.71744389363E+03  0.85083438215E+03  0.45737665588E+03 0.  0.
      99925    2    3    3    0    0  0.71358583724E+02 -0.31397357907E+02 -0.60874516115E+03  0.66769300480E+03  0.26299322403E+03 0.  0.
         25    1    4    4    0    0  0.20695205061E+02  0.22084077628E+02 -0.26736386335E+03  0.29672704886E+03  0.12509000000E+03 0.  0.
         25    1    4    4    0    0  0.50663378663E+02 -0.53481435535E+02 -0.34138129780E+03  0.37096595594E+03  0.12509000000E+03 0.  0.
         25    1    3    3    0    0 -0.71358583724E+02  0.31397357907E+02 -0.10869873248E+03  0.18314137735E+03  0.12509000000E+03 0.  0.
<mgrwt>
<rscale>  2 0.45737666E+03</rscale>
<asrwt>0</asrwt>
<pdfrwt beam="1">  1       21 0.98081244E-02 0.45737666E+03</pdfrwt>
<pdfrwt beam="2">  1       21 0.11531458E+00 0.45737666E+03</pdfrwt>
<totfact> 0.44565382E+04</totfact>
</mgrwt>
</event>
<event>
 7    0  0.4725730E-002  0.4344021E+03  0.7546771E-02  0.1032478E+00
         21   -1    0    0  502  501  0.00000000000E+00  0.00000000000E+00  0.75650685298E+02  0.75650685298E+02  0.00000000000E+00 0.  1.
         21   -1    0    0  501  502 -0.00000000000E+00 -0.00000000000E+00 -0.62360708573E+03  0.62360708573E+03  0.00000000000E+00 0.  1.
      99926    2    1    2    0    0  0.00000000000E+00  0.00000000000E+00 -0.54795640044E+03  0.69925777103E+03  0.43440213348E+03 0.  0.
      99925    2    3    3    0    0 -0.37616852861E+02  0.24916300528E+02 -0.48203101726E+03  0.55083434330E+03  0.26273317742E+03 0.  0.
         25    1    3    3    0    0  0.37616852861E+02 -0.24916300528E+02 -0.65925383180E+02  0.14842342773E+03  0.12509000000E+03 0.  0.
         25    1    4    4    0    0  0.17661729762E+02  0.25169912558E+02 -0.20996785864E+03  0.24633203397E+03  0.12509000000E+03 0.  0.
         25    1    4    4    0    0 -0.55278582623E+02 -0.25361203001E+00 -0.27206315862E+03  0.30450230934E+03  0.12509000000E+03 0.  0.
<mgrwt>
<rscale>  2 0.43440213E+03</rscale>
<asrwt>0</asrwt>
<pdfrwt beam="1">  1       21 0.11125101E-01 0.43440213E+03</pdfrwt>
<pdfrwt beam="2">  1       21 0.91706925E-01 0.43440213E+03</pdfrwt>
<totfact> 0.62470440E+04</totfact>
</mgrwt>
</event>
<event>
 7    0  0.4725730E-002  0.4648896E+03  0.7546771E-02  0.1023373E+00
         21   -1    0    0  502  501  0.00000000000E+00  0.00000000000E+00  0.36602914304E+03  0.36602914304E+03  0.00000000000E+00 0.  1.
         21   -1    0    0  501  502 -0.00000000000E+00 -0.00000000000E+00 -0.14761276461E+03  0.14761276461E+03  0.00000000000E+00 0.  1.
      99926    2    1    2    0    0  0.00000000000E+00  0.00000000000E+00  0.21841637843E+03  0.51364190766E+03  0.46488955133E+03 0.  0.
      99925    2    3    3    0    0  0.99913591244E+02  0.62239786786E+02  0.99986689828E+02  0.30500438463E+03  0.26300916281E+03 0.  0.
         25    1    4    4    0    0  0.75342094718E+02  0.35520702179E+02  0.88119290697E+02  0.17421443400E+03  0.12509000000E+03 0.  0.
         25    1    3    3    0    0 -0.99913591244E+02 -0.62239786786E+02  0.11842968860E+03  0.20863752303E+03  0.12509000000E+03 0.  0.
         25    1    4    4    0    0  0.24571496526E+02  0.26719084607E+02  0.11867399132E+02  0.13078995063E+03  0.12509000000E+03 0.  0.
<mgrwt>
<rscale>  2 0.46488955E+03</rscale>
<asrwt>0</asrwt>
<pdfrwt beam="1">  1       21 0.53827815E-01 0.46488955E+03</pdfrwt>
<pdfrwt beam="2">  1       21 0.21707760E-01 0.46488955E+03</pdfrwt>
<totfact> 0.59512387E+04</totfact>
</mgrwt>
</event>
<event>
 7    0  0.4725730E-002  0.4539675E+03  0.7546771E-02  0.1026545E+00
         21   -1    0    0  502  501  0.00000000000E+00  0.00000000000E+00  0.48127352998E+03  0.48127352998E+03  0.00000000000E+00 0.  1.
         21   -1    0    0  501  502 -0.00000000000E+00 -0.00000000000E+00 -0.10705269075E+03  0.10705269075E+03  0.00000000000E+00 0.  1.
      99926    2    1    2    0    0  0.00000000000E+00  0.35527136788E-14  0.37422083922E+03  0.58832622073E+03  0.45396751590E+03 0.  0.
      99925    2    3    3    0    0 -0.70822062675E+02 -0.25702093188E+02  0.12801039156E+03  0.30206854871E+03  0.26302544670E+03 0.  0.
         25    1    4    4    0    0 -0.65551959209E+02 -0.36632409070E+02  0.87001800325E+02  0.16986999179E+03  0.12509000000E+03 0.  0.
         25    1    4    4    0    0 -0.52701034669E+01  0.10930315883E+02  0.41008591234E+02  0.13219855692E+03  0.12509000000E+03 0.  0.
         25    1    3    3    0    0  0.70822062675E+02  0.25702093188E+02  0.24621044766E+03  0.28625767203E+03  0.12509000000E+03 0.  0.
<mgrwt>
<rscale>  2 0.45396752E+03</rscale>
<asrwt>0</asrwt>
<pdfrwt beam="1">  1       21 0.70775518E-01 0.45396752E+03</pdfrwt>
<pdfrwt beam="2">  1       21 0.15743043E-01 0.45396752E+03</pdfrwt>
<totfact> 0.59889876E+04</totfact>
</mgrwt>
</event>
<event>
 7    0  0.4725730E-002  0.4546211E+03  0.7546771E-02  0.1026353E+00
         21   -1    0    0  502  501  0.00000000000E+00  0.00000000000E+00  0.27431510245E+03  0.27431510245E+03  0.00000000000E+00 0. -1.
         21   -1    0    0  501  502 -0.00000000000E+00 -0.00000000000E+00 -0.18836036573E+03  0.18836036573E+03  0.00000000000E+00 0. -1.
      99926    2    1    2    0    0 -0.14210854715E-13  0.00000000000E+00  0.85954736721E+02  0.46267546818E+03  0.45462113027E+03 0.  0.
      99925    2    3    3    0    0  0.10524904316E+03 -0.23982017682E+02  0.87923378128E+02  0.29743660499E+03  0.26284123594E+03 0.  0.
         25    1    4    4    0    0  0.34920642269E+02 -0.47501934838E+02  0.34611320755E+02  0.14255292594E+03  0.12509000000E+03 0.  0.
         25    1    4    4    0    0  0.70328400893E+02  0.23519917156E+02  0.53312057373E+02  0.15488367905E+03  0.12509000000E+03 0.  0.
         25    1    3    3    0    0 -0.10524904316E+03  0.23982017682E+02 -0.19686414065E+01  0.16523886319E+03  0.12509000000E+03 0.  0.
<mgrwt>
<rscale>  2 0.45462113E+03</rscale>
<asrwt>0</asrwt>
<pdfrwt beam="1">  1       21 0.40340456E-01 0.45462113E+03</pdfrwt>
<pdfrwt beam="2">  1       21 0.27700054E-01 0.45462113E+03</pdfrwt>
<totfact> 0.68188203E+04</totfact>
</mgrwt>
</event>
<event>
 7    0  0.4725730E-002  0.4574541E+03  0.7546771E-02  0.1025522E+00
         21   -1    0    0  502  501  0.00000000000E+00  0.00000000000E+00  0.23544407332E+03  0.23544407332E+03  0.00000000000E+00 0.  1.
         21   -1    0    0  501  502 -0.00000000000E+00 -0.00000000000E+00 -0.22220163286E+03  0.22220163286E+03  0.00000000000E+00 0.  1.
      99926    2    1    2    0    0  0.00000000000E+00  0.00000000000E+00  0.13242440460E+02  0.45764570618E+03  0.45745407437E+03 0.  0.
      99925    2    3    3    0    0 -0.12435538283E+02  0.11445536499E+03  0.82526431720E+00  0.28718642204E+03  0.26309824544E+03 0.  0.
         25    1    4    4    0    0  0.13809032981E+02  0.18188624531E+02  0.18992775933E+01  0.12717165883E+03  0.12509000000E+03 0.  0.
         25    1    4    4    0    0 -0.26244571264E+02  0.96266740459E+02 -0.10740132761E+01  0.16001476321E+03  0.12509000000E+03 0.  0.
         25    1    3    3    0    0  0.12435538283E+02 -0.11445536499E+03  0.12417176143E+02  0.17045928414E+03  0.12509000000E+03 0.  0.
<mgrwt>
<rscale>  2 0.45745407E+03</rscale>
<asrwt>0</asrwt>
<pdfrwt beam="1">  1       21 0.34624129E-01 0.45745407E+03</pdfrwt>
<pdfrwt beam="2">  1       21 0.32676710E-01 0.45745407E+03</pdfrwt>
<totfact> 0.67030255E+04</totfact>
</mgrwt>
</event>
<event>
 7    0  0.4725730E-002  0.4521996E+03  0.7546771E-02  0.1027068E+00
         21   -1    0    0  502  501  0.00000000000E+00  0.00000000000E+00  0.59473122872E+02  0.59473122872E+02  0.00000000000E+00 0. -1.
         21   -1    0    0  501  502 -0.00000000000E+00 -0.00000000000E+00 -0.85956682272E+03  0.85956682272E+03  0.00000000000E+00 0. -1.
      99926    2    1    2    0    0  0.00000000000E+00  0.00000000000E+00 -0.80009369985E+03  0.91903994559E+03  0.45219961638E+03 0.  0.
      99925    2    3    3    0    0 -0.35643716412E+02 -0.37978510762E+02 -0.70267836825E+03  0.75215646310E+03  0.26319121181E+03 0.  0.
         25    1    4    4    0    0 -0.57170466090E+02 -0.27626757837E+02 -0.39461824223E+03  0.41881113302E+03  0.12509000000E+03 0.  0.
         25    1    4    4    0    0  0.21526749678E+02 -0.10351752925E+02 -0.30806012602E+03  0.33334533007E+03  0.12509000000E+03 0.  0.
         25    1    3    3    0    0  0.35643716412E+02  0.37978510762E+02 -0.97415331599E+02  0.16688348250E+03  0.12509000000E+03 0.  0.
<mgrwt>
<rscale>  2 0.45219962E+03</rscale>
<asrwt>0</asrwt>
<pdfrwt beam="1">  1       21 0.87460473E-02 0.45219962E+03</pdfrwt>
<pdfrwt beam="2">  1       21 0.12640689E+00 0.45219962E+03</pdfrwt>
<totfact> 0.43362782E+04</totfact>
</mgrwt>
</event>
<event>
 7    0  0.4725730E-002  0.4544635E+03  0.7546771E-02  0.1026399E+00
         21   -1    0    0  502  501  0.00000000000E+00  0.00000000000E+00  0.62951411861E+02  0.62951411861E+02  0.00000000000E+00 0. -1.
         21   -1    0    0  501  502 -0.00000000000E+00 -0.00000000000E+00 -0.82022411271E+03  0.82022411271E+03  0.00000000000E+00 0. -1.
      99926    2    1    2    0    0  0.14210854715E-13  0.00000000000E+00 -0.75727270085E+03  0.88317552457E+03  0.45446349001E+03 0.  0.
      99925    2    3    3    0    0 -0.10035707029E+03 -0.33364073517E+02 -0.55238203966E+03  0.62085435863E+03  0.26296295162E+03 0.  0.
         25    1    4    4    0    0 -0.74597852470E+02 -0.16610535489E+02 -0.21977763780E+03  0.26417885543E+03  0.12509000000E+03 0.  0.
         25    1    4    4    0    0 -0.25759217824E+02 -0.16753538028E+02 -0.33260440186E+03  0.35667550319E+03  0.12509000000E+03 0.  0.
         25    1    3    3    0    0  0.10035707029E+03  0.33364073517E+02 -0.20489066119E+03  0.26232116594E+03  0.12509000000E+03 0.  0.
<mgrwt>
<rscale>  2 0.45446349E+03</rscale>
<asrwt>0</asrwt>
<pdfrwt beam="1">  1       21 0.92575609E-02 0.45446349E+03</pdfrwt>
<pdfrwt beam="2">  1       21 0.12062119E+00 0.45446349E+03</pdfrwt>
<totfact> 0.44154368E+04</totfact>
</mgrwt>
</event>
<event>
 7    0  0.4725730E-002  0.4188009E+03  0.7546771E-02  0.1037457E+00
         21   -1    0    0  502  501  0.00000000000E+00  0.00000000000E+00  0.72248603929E+03  0.72248603929E+03  0.00000000000E+00 0. -1.
         21   -1    0    0  501  502 -0.00000000000E+00 -0.00000000000E+00 -0.60691216922E+02  0.60691216922E+02  0.00000000000E+00 0. -1.
      99926    2    1    2    0    0 -0.71054273576E-14 -0.71054273576E-14  0.66179482237E+03  0.78317725621E+03  0.41880094047E+03 0.  0.
      99925    2    3    3    0    0  0.55861875188E+02  0.45531536199E+02  0.39245972317E+03  0.47759163213E+03  0.26244135131E+03 0.  0.
         25    1    4    4    0    0 -0.48542139282E+01 -0.19287945218E+01  0.18434251776E+03  0.22283840691E+03  0.12509000000E+03 0.  0.
         25    1    4    4    0    0  0.60716089116E+02  0.47460330720E+02  0.20811720541E+03  0.25475322522E+03  0.12509000000E+03 0.  0.
         25    1    3    3    0    0 -0.55861875188E+02 -0.45531536199E+02  0.26933509919E+03  0.30558562408E+03  0.12509000000E+03 0.  0.
<mgrwt>
<rscale>  2 0.41880094E+03</rscale>
<asrwt>0</asrwt>
<pdfrwt beam="1">  1       21 0.10624794E+00 0.41880094E+03</pdfrwt>
<pdfrwt beam="2">  1       21 0.89251794E-02 0.41880094E+03</pdfrwt>
<totfact> 0.65245550E+04</totfact>
</mgrwt>
</event>
<event>
 7    0  0.4725730E-002  0.4537166E+03  0.7546771E-02  0.1026619E+00
         21   -1    0    0  502  501  0.00000000000E+00  0.00000000000E+00  0.76994672999E+03  0.76994672999E+03  0.00000000000E+00 0. -1.
         21   -1    0    0  501  502 -0.00000000000E+00 -0.00000000000E+00 -0.66841889830E+02  0.66841889830E+02  0.00000000000E+00 0. -1.
      99926    2    1    2    0    0  0.00000000000E+00  0.00000000000E+00  0.70310484016E+03  0.83678861982E+03  0.45371662743E+03 0.  0.
      99925    2    3    3    0    0  0.85956241605E+02  0.50684531910E+02  0.34964378350E+03  0.44879425914E+03  0.26307435156E+03 0.  0.
         25    1    4    4    0    0  0.21092690366E+02  0.40950676004E+02  0.21909136886E+03  0.25645739502E+03  0.12509000000E+03 0.  0.
         25    1    4    4    0    0  0.64863551239E+02  0.97338559064E+01  0.13055241464E+03  0.19233686412E+03  0.12509000000E+03 0.  0.
         25    1    3    3    0    0 -0.85956241605E+02 -0.50684531910E+02  0.35346105665E+03  0.38799436068E+03  0.12509000000E+03 0.  0.
<mgrwt>
<rscale>  2 0.45371663E+03</rscale>
<asrwt>0</asrwt>
<pdfrwt beam="1">  1       21 0.11322746E+00 0.45371663E+03</pdfrwt>
<pdfrwt beam="2">  1       21 0.98296901E-02 0.45371663E+03</pdfrwt>
<totfact> 0.46502739E+04</totfact>
</mgrwt>
</event>
<event>
 7    0  0.4725730E-002  0.4590022E+03  0.7546771E-02  0.1025071E+00
         21   -1    0    0  502  501  0.00000000000E+00  0.00000000000E+00  0.61753364059E+02  0.61753364059E+02  0.00000000000E+00 0. -1.
         21   -1    0    0  501  502 -0.00000000000E+00 -0.00000000000E+00 -0.85292107827E+03  0.85292107827E+03  0.00000000000E+00 0. -1.
      99926    2    1    2    0    0 -0.17763568394E-14  0.14210854715E-13 -0.79116771421E+03  0.91467444233E+03  0.45900216060E+03 0.  0.
      99925    2    3    3    0    0  0.74229090597E+01 -0.11605158644E+03 -0.52835555332E+03  0.60124054131E+03  0.26231188974E+03 0.  0.
         25    1    4    4    0    0 -0.10836876078E+02 -0.97426933516E+02 -0.30475125080E+03  0.34370085572E+03  0.12509000000E+03 0.  0.
         25    1    4    4    0    0  0.18259785138E+02 -0.18624652925E+02 -0.22360430252E+03  0.25753968559E+03  0.12509000000E+03 0.  0.
         25    1    3    3    0    0 -0.74229090597E+01  0.11605158644E+03 -0.26281216089E+03  0.31343390102E+03  0.12509000000E+03 0.  0.
<mgrwt>
<rscale>  2 0.45900216E+03</rscale>
<asrwt>0</asrwt>
<pdfrwt beam="1">  1       21 0.90813780E-02 0.45900216E+03</pdfrwt>
<pdfrwt beam="2">  1       21 0.12542956E+00 0.45900216E+03</pdfrwt>
<totfact> 0.41296353E+04</totfact>
</mgrwt>
</event>
<event>
 7    0  0.4725730E-002  0.4652004E+03  0.7546771E-02  0.1023284E+00
         21   -1    0    0  502  501  0.00000000000E+00  0.00000000000E+00  0.10408093946E+03  0.10408093946E+03  0.00000000000E+00 0.  1.
         21   -1    0    0  501  502 -0.00000000000E+00 -0.00000000000E+00 -0.51981519728E+03  0.51981519728E+03  0.00000000000E+00 0.  1.
      99926    2    1    2    0    0  0.00000000000E+00 -0.88817841970E-15 -0.41573425782E+03  0.62389613674E+03  0.46520040446E+03 0.  0.
      99925    2    3    3    0    0 -0.61569841323E+02 -0.60764509681E+01 -0.40109884062E+03  0.48357695717E+03  0.26294224641E+03 0.  0.
         25    1    4    4    0    0 -0.38509405577E+02  0.29119436382E+02 -0.16031818048E+03  0.20899842819E+03  0.12509000000E+03 0.  0.
         25    1    3    3    0    0  0.61569841323E+02  0.60764509681E+01 -0.14635417201E+02  0.14031917956E+03  0.12509000000E+03 0.  0.
         25    1    4    4    0    0 -0.23060435746E+02 -0.35195887350E+02 -0.24078066014E+03  0.27457852899E+03  0.12509000000E+03 0.  0.
<mgrwt>
<rscale>  2 0.46520040E+03</rscale>
<asrwt>0</asrwt>
<pdfrwt beam="1">  1       21 0.15306020E-01 0.46520040E+03</pdfrwt>
<pdfrwt beam="2">  1       21 0.76443412E-01 0.46520040E+03</pdfrwt>
<totfact> 0.52844353E+04</totfact>
</mgrwt>
</event>
<event>
 7    0  0.4725730E-002  0.4333352E+03  0.7546771E-02  0.1032812E+00
         21   -1    0    0  502  501  0.00000000000E+00  0.00000000000E+00  0.68904848253E+03  0.68904848253E+03  0.00000000000E+00 0. -1.
         21   -1    0    0  501  502 -0.00000000000E+00 -0.00000000000E+00 -0.68129971417E+02  0.68129971417E+02  0.00000000000E+00 0. -1.
      99926    2    1    2    0    0  0.39968028887E-14  0.00000000000E+00  0.62091851111E+03  0.75717845394E+03  0.43333522091E+03 0.  0.
      99925    2    3    3    0    0 -0.29199649232E+01 -0.76968176338E+02  0.31317062135E+03  0.41616687332E+03  0.26303308159E+03 0.  0.
         25    1    4    4    0    0 -0.38791500742E+02 -0.54528108688E+02  0.15505270329E+03  0.21015933019E+03  0.12509000000E+03 0.  0.
         25    1    3    3    0    0  0.29199649232E+01  0.76968176338E+02  0.30774788977E+03  0.34101158062E+03  0.12509000000E+03 0.  0.
         25    1    4    4    0    0  0.35871535819E+02 -0.22440067650E+02  0.15811791805E+03  0.20600754313E+03  0.12509000000E+03 0.  0.
<mgrwt>
<rscale>  2 0.43333522E+03</rscale>
<asrwt>0</asrwt>
<pdfrwt beam="1">  1       21 0.10133066E+00 0.43333522E+03</pdfrwt>
<pdfrwt beam="2">  1       21 0.10019114E-01 0.43333522E+03</pdfrwt>
<totfact> 0.59380273E+04</totfact>
</mgrwt>
</event>
<event>
 7    0  0.4725730E-002  0.4513409E+03  0.7546771E-02  0.1027323E+00
         21   -1    0    0  502  501  0.00000000000E+00  0.00000000000E+00  0.92586669300E+02  0.92586669300E+02  0.00000000000E+00 0.  1.
         21   -1    0    0  501  502 -0.00000000000E+00 -0.00000000000E+00 -0.55004834606E+03  0.55004834606E+03  0.00000000000E+00 0.  1.
      99926    2    1    2    0    0  0.00000000000E+00 -0.14210854715E-13 -0.45746167676E+03  0.64263501536E+03  0.45134086593E+03 0.  0.
      99925    2    3    3    0    0 -0.57805597595E+02  0.92882814070E+02 -0.31031887066E+03  0.42067281644E+03  0.26210515588E+03 0.  0.
         25    1    3    3    0    0  0.57805597595E+02 -0.92882814070E+02 -0.14714280610E+03  0.22196219892E+03  0.12509000000E+03 0.  0.
         25    1    4    4    0    0 -0.62009100361E+02  0.67848720239E+02 -0.18900601729E+03  0.24457996655E+03  0.12509000000E+03 0.  0.
         25    1    4    4    0    0  0.42035027660E+01  0.25034093831E+02 -0.12131285337E+03  0.17609284989E+03  0.12509000000E+03 0.  0.
<mgrwt>
<rscale>  2 0.45134087E+03</rscale>
<asrwt>0</asrwt>
<pdfrwt beam="1">  1       21 0.13615686E-01 0.45134087E+03</pdfrwt>
<pdfrwt beam="2">  1       21 0.80889464E-01 0.45134087E+03</pdfrwt>
<totfact> 0.57778023E+04</totfact>
</mgrwt>
</event>
<event>
 7    0  0.4725730E-002  0.4567689E+03  0.7546771E-02  0.1025723E+00
         21   -1    0    0  502  501  0.00000000000E+00  0.00000000000E+00  0.14068056477E+04  0.14068056477E+04  0.00000000000E+00 0.  1.
         21   -1    0    0  501  502 -0.00000000000E+00 -0.00000000000E+00 -0.37076518375E+02  0.37076518375E+02  0.00000000000E+00 0.  1.
      99926    2    1    2    0    0  0.14210854715E-13  0.00000000000E+00  0.13697291294E+04  0.14438821661E+04  0.45676889320E+03 0.  0.
      99925    2    3    3    0    0 -0.85046200904E+02  0.19868273943E+02  0.62551488156E+03  0.68419146634E+03  0.26309977376E+03 0.  0.
         25    1    4    4    0    0 -0.54952623451E+01 -0.42793589491E+00  0.24089455816E+03  0.27149231534E+03  0.12509000000E+03 0.  0.
         25    1    4    4    0    0 -0.79550938559E+02  0.20296209838E+02  0.38462032340E+03  0.41269915100E+03  0.12509000000E+03 0.  0.
         25    1    3    3    0    0  0.85046200904E+02 -0.19868273943E+02  0.74421424780E+03  0.75969069978E+03  0.12509000000E+03 0.  0.
<mgrwt>
<rscale>  2 0.45676889E+03</rscale>
<asrwt>0</asrwt>
<pdfrwt beam="1">  1       21 0.20688315E+00 0.45676889E+03</pdfrwt>
<pdfrwt beam="2">  1       21 0.54524301E-02 0.45676889E+03</pdfrwt>
<totfact> 0.24842545E+04</totfact>
</mgrwt>
</event>
<event>
 7    0  0.4725730E-002  0.4436608E+03  0.7546771E-02  0.1029629E+00
         21   -1    0    0  502  501  0.00000000000E+00  0.00000000000E+00  0.85741817821E+02  0.85741817821E+02  0.00000000000E+00 0.  1.
         21   -1    0    0  501  502 -0.00000000000E+00 -0.00000000000E+00 -0.57391738735E+03  0.57391738735E+03  0.00000000000E+00 0.  1.
      99926    2    1    2    0    0  0.00000000000E+00 -0.71054273576E-14 -0.48817556953E+03  0.65965920517E+03  0.44366077163E+03 0.  0.
      99925    2    3    3    0    0  0.83603826233E+02  0.53777850813E+02 -0.34044358569E+03  0.44204968298E+03  0.26386441630E+03 0.  0.
         25    1    4    4    0    0  0.58765836694E+02 -0.11315214951E+02 -0.17383841044E+03  0.22237076853E+03  0.12509000000E+03 0.  0.
         25    1    4    4    0    0  0.24837989540E+02  0.65093065764E+02 -0.16660517526E+03  0.21967891446E+03  0.12509000000E+03 0.  0.
         25    1    3    3    0    0 -0.83603826233E+02 -0.53777850813E+02 -0.14773198384E+03  0.21760952219E+03  0.12509000000E+03 0.  0.
<mgrwt>
<rscale>  2 0.44366077E+03</rscale>
<asrwt>0</asrwt>
<pdfrwt beam="1">  1       21 0.12609091E-01 0.44366077E+03</pdfrwt>
<pdfrwt beam="2">  1       21 0.84399616E-01 0.44366077E+03</pdfrwt>
<totfact> 0.60365255E+04</totfact>
</mgrwt>
</event>
<event>
 7    0  0.4725730E-002  0.4480971E+03  0.7546771E-02  0.1028291E+00
         21   -1    0    0  502  501  0.00000000000E+00  0.00000000000E+00  0.48852761623E+03  0.48852761623E+03  0.00000000000E+00 0. -1.
         21   -1    0    0  501  502 -0.00000000000E+00 -0.00000000000E+00 -0.10275313821E+03  0.10275313821E+03  0.00000000000E+00 0. -1.
      99926    2    1    2    0    0  0.14210854715E-13 -0.71054273576E-14  0.38577447803E+03  0.59128075444E+03  0.44809706836E+03 0.  0.
      99925    2    3    3    0    0 -0.10033520473E+03  0.33035663636E+02  0.22770648827E+03  0.36370328221E+03  0.26319446102E+03 0.  0.
         25    1    4    4    0    0 -0.66942003229E+01  0.10625736327E+02  0.98449593703E+02  0.15967952026E+03  0.12509000000E+03 0.  0.
         25    1    4    4    0    0 -0.93641004402E+02  0.22409927308E+02  0.12925689456E+03  0.20402376195E+03  0.12509000000E+03 0.  0.
         25    1    3    3    0    0  0.10033520473E+03 -0.33035663636E+02  0.15806798976E+03  0.22757747223E+03  0.12509000000E+03 0.  0.
<mgrwt>
<rscale>  2 0.44809707E+03</rscale>
<asrwt>0</asrwt>
<pdfrwt beam="1">  1       21 0.71842295E-01 0.44809707E+03</pdfrwt>
<pdfrwt beam="2">  1       21 0.15110756E-01 0.44809707E+03</pdfrwt>
<totfact> 0.62561976E+04</totfact>
</mgrwt>
</event>
<event>
 7    0  0.4725730E-002  0.4608843E+03  0.7546771E-02  0.1024525E+00
         21   -1    0    0  502  501  0.00000000000E+00  0.00000000000E+00  0.61348218194E+03  0.61348218194E+03  0.00000000000E+00 0. -1.
         21   -1    0    0  501  502 -0.00000000000E+00 -0.00000000000E+00 -0.86560923374E+02  0.86560923374E+02  0.00000000000E+00 0. -1.
      99926    2    1    2    0    0  0.00000000000E+00  0.00000000000E+00  0.52692125857E+03  0.70004310532E+03  0.46088429846E+03 0.  0.
      99925    2    3    3    0    0  0.69289277724E+02  0.60165233972E+02  0.44399774313E+03  0.52413211391E+03  0.26298216201E+03 0.  0.
         25    1    4    4    0    0  0.34656195594E+02 -0.32795216539E+00  0.15963152235E+03  0.20574472161E+03  0.12509000000E+03 0.  0.
         25    1    4    4    0    0  0.34633082130E+02  0.60493186137E+02  0.28436622079E+03  0.31838739229E+03  0.12509000000E+03 0.  0.
         25    1    3    3    0    0 -0.69289277724E+02 -0.60165233972E+02  0.82923515438E+02  0.17591099141E+03  0.12509000000E+03 0.  0.
<mgrwt>
<rscale>  2 0.46088430E+03</rscale>
<asrwt>0</asrwt>
<pdfrwt beam="1">  1       21 0.90217966E-01 0.46088430E+03</pdfrwt>
<pdfrwt beam="2">  1       21 0.12729548E-01 0.46088430E+03</pdfrwt>
<totfact> 0.50520109E+04</totfact>
</mgrwt>
</event>
<event>
 7    0  0.4725730E-002  0.4545038E+03  0.7546771E-02  0.1026387E+00
         21   -1    0    0  502  501  0.00000000000E+00  0.00000000000E+00  0.35954299479E+02  0.35954299479E+02  0.00000000000E+00 0. -1.
         21   -1    0    0  501  502 -0.00000000000E+00 -0.00000000000E+00 -0.14363631959E+04  0.14363631959E+04  0.00000000000E+00 0. -1.
      99926    2    1    2    0    0  0.00000000000E+00  0.17763568394E-14 -0.14004088964E+04  0.14723174954E+04  0.45450382839E+03 0.  0.
      99925    2    3    3    0    0 -0.75493323618E+02  0.83760524097E+01 -0.61217172204E+03  0.67061009780E+03  0.26304806753E+03 0.  0.
         25    1    4    4    0    0 -0.51362102099E+02 -0.25491363356E+02 -0.25280905443E+03  0.28783293981E+03  0.12509000000E+03 0.  0.
         25    1    3    3    0    0  0.75493323618E+02 -0.83760524097E+01 -0.78823717435E+03  0.80170739755E+03  0.12509000000E+03 0.  0.
         25    1    4    4    0    0 -0.24131221519E+02  0.33867415766E+02 -0.35936266761E+03  0.38277715799E+03  0.12509000000E+03 0.  0.
<mgrwt>
<rscale>  2 0.45450383E+03</rscale>
<asrwt>0</asrwt>
<pdfrwt beam="1">  1       21 0.52873965E-02 0.45450383E+03</pdfrwt>
<pdfrwt beam="2">  1       21 0.21122990E+00 0.45450383E+03</pdfrwt>
<totfact> 0.24560315E+04</totfact>
</mgrwt>
</event>
<event>
 7    0  0.4725730E-002  0.4555874E+03  0.7546771E-02  0.1026069E+00
         21   -1    0    0  502  501  0.00000000000E+00  0.00000000000E+00  0.59179200840E+03  0.59179200840E+03  0.00000000000E+00 0. -1.
         21   -1    0    0  501  502 -0.00000000000E+00 -0.00000000000E+00 -0.87682782907E+02  0.87682782907E+02  0.00000000000E+00 0. -1.
      99926    2    1    2    0    0  0.00000000000E+00 -0.14210854715E-13  0.50410922549E+03  0.67947479131E+03  0.45558740193E+03 0.  0.
      99925    2    3    3    0    0  0.85835371036E+01  0.11318317497E+03  0.31192660615E+03  0.42361198533E+03  0.26318206300E+03 0.  0.
         25    1    4    4    0    0  0.45034651223E+02  0.53642603792E+02  0.15583940770E+03  0.21175239749E+03  0.12509000000E+03 0.  0.
         25    1    4    4    0    0 -0.36451114119E+02  0.59540571180E+02  0.15608719845E+03  0.21185958784E+03  0.12509000000E+03 0.  0.
         25    1    3    3    0    0 -0.85835371036E+01 -0.11318317497E+03  0.19218261934E+03  0.25586280598E+03  0.12509000000E+03 0.  0.
<mgrwt>
<rscale>  2 0.45558740E+03</rscale>
<asrwt>0</asrwt>
<pdfrwt beam="1">  1       21 0.87028235E-01 0.45558740E+03</pdfrwt>
<pdfrwt beam="2">  1       21 0.12894527E-01 0.45558740E+03</pdfrwt>
<totfact> 0.53782822E+04</totfact>
</mgrwt>
</event>
<event>
 7    0  0.4725730E-002  0.4008825E+03  0.7546771E-02  0.1043475E+00
         21   -1    0    0  502  501  0.00000000000E+00  0.00000000000E+00  0.23021482177E+03  0.23021482177E+03  0.00000000000E+00 0. -1.
         21   -1    0    0  501  502 -0.00000000000E+00 -0.00000000000E+00 -0.17451827790E+03  0.17451827790E+03  0.00000000000E+00 0. -1.
      99926    2    1    2    0    0 -0.88817841970E-15  0.00000000000E+00  0.55696543867E+02  0.40473309967E+03  0.40088249771E+03 0.  0.
      99925    2    3    3    0    0  0.75156420119E+01 -0.46207409010E+02  0.29472834268E+02  0.26861990939E+03  0.26286193760E+03 0.  0.
         25    1    4    4    0    0  0.25003018202E+02 -0.37014062042E+02 -0.16599478161E+02  0.13385903960E+03  0.12509000000E+03 0.  0.
         25    1    3    3    0    0 -0.75156420119E+01  0.46207409010E+02  0.26223709599E+02  0.13611319028E+03  0.12509000000E+03 0.  0.
         25    1    4    4    0    0 -0.17487376191E+02 -0.91933469686E+01  0.46072312429E+02  0.13476086979E+03  0.12509000000E+03 0.  0.
<mgrwt>
<rscale>  2 0.40088250E+03</rscale>
<asrwt>0</asrwt>
<pdfrwt beam="1">  1       21 0.33855121E-01 0.40088250E+03</pdfrwt>
<pdfrwt beam="2">  1       21 0.25664453E-01 0.40088250E+03</pdfrwt>
<totfact> 0.11434211E+05</totfact>
</mgrwt>
</event>
<event>
 7    0  0.4725730E-002  0.4593901E+03  0.7546771E-02  0.1024958E+00
         21   -1    0    0  502  501  0.00000000000E+00  0.00000000000E+00  0.17579444334E+03  0.17579444334E+03  0.00000000000E+00 0.  1.
         21   -1    0    0  501  502 -0.00000000000E+00 -0.00000000000E+00 -0.30012222369E+03  0.30012222369E+03  0.00000000000E+00 0.  1.
      99926    2    1    2    0    0  0.00000000000E+00  0.71054273576E-14 -0.12432778035E+03  0.47591666703E+03  0.45939011416E+03 0.  0.
      99925    2    3    3    0    0  0.10035909547E+02  0.40671277975E+02  0.35436033127E+02  0.26872869313E+03  0.26306753075E+03 0.  0.
         25    1    4    4    0    0 -0.19910352497E+02  0.28714822835E+02 -0.13527840949E+02  0.13058129180E+03  0.12509000000E+03 0.  0.
         25    1    4    4    0    0  0.29946262043E+02  0.11956455141E+02  0.48963874076E+02  0.13814740133E+03  0.12509000000E+03 0.  0.
         25    1    3    3    0    0 -0.10035909547E+02 -0.40671277975E+02 -0.15976381347E+03  0.20718797390E+03  0.12509000000E+03 0.  0.
<mgrwt>
<rscale>  2 0.45939011E+03</rscale>
<asrwt>0</asrwt>
<pdfrwt beam="1">  1       21 0.25852124E-01 0.45939011E+03</pdfrwt>
<pdfrwt beam="2">  1       21 0.44135621E-01 0.45939011E+03</pdfrwt>
<totfact> 0.64714648E+04</totfact>
</mgrwt>
</event>
<event>
 7    0  0.4725730E-002  0.4555655E+03  0.7546771E-02  0.1026075E+00
         21   -1    0    0  502  501  0.00000000000E+00  0.00000000000E+00  0.48538333506E+03  0.48538333506E+03  0.00000000000E+00 0. -1.
         21   -1    0    0  501  502 -0.00000000000E+00 -0.00000000000E+00 -0.10689487199E+03  0.10689487199E+03  0.00000000000E+00 0. -1.
      99926    2    1    2    0    0  0.00000000000E+00  0.00000000000E+00  0.37848846307E+03  0.59227820704E+03  0.45556553629E+03 0.  0.
      99925    2    3    3    0    0 -0.42327576063E+02  0.87542410316E+02  0.31462770096E+03  0.42145372889E+03  0.26301588941E+03 0.  0.
         25    1    4    4    0    0  0.67346195997E+00  0.57848256541E+02  0.20542839739E+03  0.24737665389E+03  0.12509000000E+03 0.  0.
         25    1    4    4    0    0 -0.43001038023E+02  0.29694153776E+02  0.10919930357E+03  0.17407707500E+03  0.12509000000E+03 0.  0.
         25    1    3    3    0    0  0.42327576063E+02 -0.87542410316E+02  0.63860762113E+02  0.17082447816E+03  0.12509000000E+03 0.  0.
<mgrwt>
<rscale>  2 0.45556554E+03</rscale>
<asrwt>0</asrwt>
<pdfrwt beam="1">  1       21 0.71379902E-01 0.45556554E+03</pdfrwt>
<pdfrwt beam="2">  1       21 0.15719834E-01 0.45556554E+03</pdfrwt>
<totfact> 0.58892439E+04</totfact>
</mgrwt>
</event>
<event>
 7    0  0.4725730E-002  0.4507950E+03  0.7546771E-02  0.1027485E+00
         21   -1    0    0  502  501  0.00000000000E+00  0.00000000000E+00  0.81207367995E+03  0.81207367995E+03  0.00000000000E+00 0.  1.
         21   -1    0    0  501  502 -0.00000000000E+00 -0.00000000000E+00 -0.62560862079E+02  0.62560862079E+02  0.00000000000E+00 0.  1.
      99926    2    1    2    0    0 -0.71054273576E-14  0.00000000000E+00  0.74951281787E+03  0.87463454203E+03  0.45079498440E+03 0.  0.
      99925    2    3    3    0    0 -0.40056655941E+02 -0.61420841922E+02  0.31509077435E+03  0.41665301892E+03  0.26256520446E+03 0.  0.
         25    1    4    4    0    0 -0.40509650067E+02 -0.62974026657E+02  0.19274704961E+03  0.24167269812E+03  0.12509000000E+03 0.  0.
         25    1    4    4    0    0  0.45299412693E+00  0.15531847346E+01  0.12234372474E+03  0.17498032081E+03  0.12509000000E+03 0.  0.
         25    1    3    3    0    0  0.40056655941E+02  0.61420841922E+02  0.43442204352E+03  0.45798152310E+03  0.12509000000E+03 0.  0.
<mgrwt>
<rscale>  2 0.45079498E+03</rscale>
<asrwt>0</asrwt>
<pdfrwt beam="1">  1       21 0.11942259E+00 0.45079498E+03</pdfrwt>
<pdfrwt beam="2">  1       21 0.92001272E-02 0.45079498E+03</pdfrwt>
<totfact> 0.45839850E+04</totfact>
</mgrwt>
</event>
<event>
 7    0  0.4725730E-002  0.4630186E+03  0.7546771E-02  0.1023909E+00
         21   -1    0    0  502  501  0.00000000000E+00  0.00000000000E+00  0.45946858325E+03  0.45946858325E+03  0.00000000000E+00 0. -1.
         21   -1    0    0  501  502 -0.00000000000E+00 -0.00000000000E+00 -0.11664900233E+03  0.11664900233E+03  0.00000000000E+00 0. -1.
      99926    2    1    2    0    0 -0.71054273576E-14  0.14210854715E-13  0.34281958093E+03  0.57611758558E+03  0.46301858208E+03 0.  0.
      99925    2    3    3    0    0 -0.44141039681E+02  0.73917363496E+02  0.31884850508E+03  0.42238298119E+03  0.26330743552E+03 0.  0.
         25    1    3    3    0    0  0.44141039681E+02 -0.73917363496E+02  0.23971075851E+02  0.15373460439E+03  0.12509000000E+03 0.  0.
         25    1    4    4    0    0 -0.57179069950E+02  0.37627095534E+02  0.13247417523E+03  0.19463339786E+03  0.12509000000E+03 0.  0.
         25    1    4    4    0    0  0.13038030268E+02  0.36290267961E+02  0.18637432984E+03  0.22774958333E+03  0.12509000000E+03 0.  0.
<mgrwt>
<rscale>  2 0.46301858E+03</rscale>
<asrwt>0</asrwt>
<pdfrwt beam="1">  1       21 0.67568909E-01 0.46301858E+03</pdfrwt>
<pdfrwt beam="2">  1       21 0.17154265E-01 0.46301858E+03</pdfrwt>
<totfact> 0.56504363E+04</totfact>
</mgrwt>
</event>
<event>
 7    0  0.4725730E-002  0.4580256E+03  0.7546771E-02  0.1025355E+00
         21   -1    0    0  502  501  0.00000000000E+00  0.00000000000E+00  0.47982095242E+03  0.47982095242E+03  0.00000000000E+00 0. -1.
         21   -1    0    0  501  502 -0.00000000000E+00 -0.00000000000E+00 -0.10930507563E+03  0.10930507563E+03  0.00000000000E+00 0. -1.
      99926    2    1    2    0    0  0.88817841970E-15  0.00000000000E+00  0.37051587679E+03  0.58912602805E+03  0.45802561279E+03 0.  0.
      99925    2    3    3    0    0  0.34852463666E+01 -0.84911092483E+02  0.13098726989E+03  0.30585318750E+03  0.26299518410E+03 0.  0.
         25    1    4    4    0    0  0.25864345276E+02 -0.84889062189E+01  0.56995825287E+02  0.14013228781E+03  0.12509000000E+03 0.  0.
         25    1    3    3    0    0 -0.34852463666E+01  0.84911092483E+02  0.23952860690E+03  0.28327284055E+03  0.12509000000E+03 0.  0.
         25    1    4    4    0    0 -0.22379098910E+02 -0.76422186264E+02  0.73991444604E+02  0.16572089970E+03  0.12509000000E+03 0.  0.
<mgrwt>
<rscale>  2 0.45802561E+03</rscale>
<asrwt>0</asrwt>
<pdfrwt beam="1">  1       21 0.70561904E-01 0.45802561E+03</pdfrwt>
<pdfrwt beam="2">  1       21 0.16074276E-01 0.45802561E+03</pdfrwt>
<totfact> 0.57954235E+04</totfact>
</mgrwt>
</event>
<event>
 7    0  0.4725730E-002  0.4468811E+03  0.7546771E-02  0.1028656E+00
         21   -1    0    0  502  501  0.00000000000E+00  0.00000000000E+00  0.77826305208E+02  0.77826305208E+02  0.00000000000E+00 0.  1.
         21   -1    0    0  501  502 -0.00000000000E+00 -0.00000000000E+00 -0.64150146051E+03  0.64150146051E+03  0.00000000000E+00 0.  1.
      99926    2    1    2    0    0 -0.17763568394E-14  0.00000000000E+00 -0.56367515530E+03  0.71932776571E+03  0.44688114060E+03 0.  0.
      99925    2    3    3    0    0 -0.10643620892E+02 -0.99685727905E+02 -0.30462796490E+03  0.41469111991E+03  0.26290682174E+03 0.  0.
         25    1    4    4    0    0 -0.23906842125E+02 -0.13803237485E+02 -0.15629964807E+03  0.20208699749E+03  0.12509000000E+03 0.  0.
         25    1    4    4    0    0  0.13263221233E+02 -0.85882490420E+02 -0.14832831683E+03  0.21260412242E+03  0.12509000000E+03 0.  0.
         25    1    3    3    0    0  0.10643620892E+02  0.99685727905E+02 -0.25904719040E+03  0.30463664581E+03  0.12509000000E+03 0.  0.
<mgrwt>
<rscale>  2 0.44688114E+03</rscale>
<asrwt>0</asrwt>
<pdfrwt beam="1">  1       21 0.11445045E-01 0.44688114E+03</pdfrwt>
<pdfrwt beam="2">  1       21 0.94338452E-01 0.44688114E+03</pdfrwt>
<totfact> 0.55314821E+04</totfact>
</mgrwt>
</event>
<event>
 6    0  0.4725730E-002  0.4560906E+03  0.7546771E-02  0.1025921E+00
         21   -1    0    0  502  501  0.00000000000E+00  0.00000000000E+00  0.39544985317E+03  0.39544985317E+03  0.00000000000E+00 0.  1.
         21   -1    0    0  501  502 -0.00000000000E+00 -0.00000000000E+00 -0.13150760960E+03  0.13150760960E+03  0.00000000000E+00 0.  1.
      99926    2    1    2    0    0  0.00000000000E+00 -0.17763568394E-14  0.26394224358E+03  0.52695746277E+03  0.45609062655E+03 0.  0.
         25    1    3    3    0    0 -0.27213378561E+02 -0.23031814006E+02 -0.94126851012E+01  0.13041142270E+03  0.12509000000E+03 0.  0.
         25    1    3    3    0    0 -0.22980628799E+02  0.10420637755E+02  0.53532017175E+02  0.13838310574E+03  0.12509000000E+03 0.  0.
         25    1    3    3    0    0  0.50194007360E+02  0.12611176250E+02  0.21982291150E+03  0.25816293433E+03  0.12509000000E+03 0.  0.
<mgrwt>
<rscale>  2 0.45609063E+03</rscale>
<asrwt>0</asrwt>
<pdfrwt beam="1">  1       21 0.58154390E-01 0.45609063E+03</pdfrwt>
<pdfrwt beam="2">  1       21 0.19339354E-01 0.45609063E+03</pdfrwt>
<totfact> 0.62867693E+04</totfact>
</mgrwt>
</event>
<event>
 7    0  0.4725730E-002  0.4566817E+03  0.7546771E-02  0.1025748E+00
         21   -1    0    0  502  501  0.00000000000E+00  0.00000000000E+00  0.59469268901E+03  0.59469268901E+03  0.00000000000E+00 0. -1.
         21   -1    0    0  501  502 -0.00000000000E+00 -0.00000000000E+00 -0.87674767948E+02  0.87674767948E+02  0.00000000000E+00 0. -1.
      99926    2    1    2    0    0  0.14210854715E-13  0.88817841970E-15  0.50701792106E+03  0.68236745696E+03  0.45668169882E+03 0.  0.
      99925    2    3    3    0    0  0.11462793451E+03  0.68903983913E+01  0.32003435068E+03  0.42978597574E+03  0.26288202367E+03 0.  0.
         25    1    4    4    0    0  0.49078188835E+02  0.42940276260E+02  0.15343228787E+03  0.20842627235E+03  0.12509000000E+03 0.  0.
         25    1    3    3    0    0 -0.11462793451E+03 -0.68903983913E+01  0.18698357039E+03  0.25258148122E+03  0.12509000000E+03 0.  0.
         25    1    4    4    0    0  0.65549745679E+02 -0.36049877868E+02  0.16660206281E+03  0.22135970339E+03  0.12509000000E+03 0.  0.
<mgrwt>
<rscale>  2 0.45668170E+03</rscale>
<asrwt>0</asrwt>
<pdfrwt beam="1">  1       21 0.87454805E-01 0.45668170E+03</pdfrwt>
<pdfrwt beam="2">  1       21 0.12893349E-01 0.45668170E+03</pdfrwt>
<totfact> 0.53163653E+04</totfact>
</mgrwt>
</event>
<event>
 7    0  0.4725730E-002  0.4552965E+03  0.7546771E-02  0.1026154E+00
         21   -1    0    0  502  501  0.00000000000E+00  0.00000000000E+00  0.14793559471E+03  0.14793559471E+03  0.00000000000E+00 0.  1.
         21   -1    0    0  501  502 -0.00000000000E+00 -0.00000000000E+00 -0.35031268094E+03  0.35031268094E+03  0.00000000000E+00 0.  1.
      99926    2    1    2    0    0  0.00000000000E+00  0.14210854715E-13 -0.20237708623E+03  0.49824827565E+03  0.45529645195E+03 0.  0.
      99925    2    3    3    0    0  0.76876275399E+02 -0.82696628234E+02 -0.14043132301E+03  0.31871142784E+03  0.26288271855E+03 0.  0.
         25    1    4    4    0    0  0.68065919297E+02 -0.26131320313E+02 -0.46254782302E+02  0.15199614553E+03  0.12509000000E+03 0.  0.
         25    1    4    4    0    0  0.88103561015E+01 -0.56565307921E+02 -0.94176540711E+02  0.16671528231E+03  0.12509000000E+03 0.  0.
         25    1    3    3    0    0 -0.76876275399E+02  0.82696628234E+02 -0.61945763220E+02  0.17953684781E+03  0.12509000000E+03 0.  0.
<mgrwt>
<rscale>  2 0.45529645E+03</rscale>
<asrwt>0</asrwt>
<pdfrwt beam="1">  1       21 0.21755235E-01 0.45529645E+03</pdfrwt>
<pdfrwt beam="2">  1       21 0.51516570E-01 0.45529645E+03</pdfrwt>
<totfact> 0.65240233E+04</totfact>
</mgrwt>
</event>
<event>
 7    0  0.4725730E-002  0.4594784E+03  0.7546771E-02  0.1024933E+00
         21   -1    0    0  502  501  0.00000000000E+00  0.00000000000E+00  0.16798164597E+03  0.16798164597E+03  0.00000000000E+00 0. -1.
         21   -1    0    0  501  502 -0.00000000000E+00 -0.00000000000E+00 -0.31420153433E+03  0.31420153433E+03  0.00000000000E+00 0. -1.
      99926    2    1    2    0    0 -0.14210854715E-13  0.71054273576E-14 -0.14621988836E+03  0.48218318031E+03  0.45947836034E+03 0.  0.
      99925    2    3    3    0    0 -0.72383893170E+02  0.33388764980E+02 -0.18199613422E+03  0.32959980806E+03  0.26298137384E+03 0.  0.
         25    1    4    4    0    0 -0.17265173363E+01 -0.69510110355E+01 -0.90492029255E+02  0.15455618032E+03  0.12509000000E+03 0.  0.
         25    1    3    3    0    0  0.72383893170E+02 -0.33388764980E+02  0.35776245860E+02  0.15258337224E+03  0.12509000000E+03 0.  0.
         25    1    4    4    0    0 -0.70657375834E+02  0.40339776015E+02 -0.91504104964E+02  0.17504362774E+03  0.12509000000E+03 0.  0.
<mgrwt>
<rscale>  2 0.45947836E+03</rscale>
<asrwt>0</asrwt>
<pdfrwt beam="1">  1       21 0.24703183E-01 0.45947836E+03</pdfrwt>
<pdfrwt beam="2">  1       21 0.46206108E-01 0.45947836E+03</pdfrwt>
<totfact> 0.64227918E+04</totfact>
</mgrwt>
</event>
<event>
 7    0  0.4725730E-002  0.4435521E+03  0.7546771E-02  0.1029663E+00
         21   -1    0    0  502  501  0.00000000000E+00  0.00000000000E+00  0.96704235281E+02  0.96704235281E+02  0.00000000000E+00 0.  1.
         21   -1    0    0  501  502 -0.00000000000E+00 -0.00000000000E+00 -0.50860862366E+03  0.50860862366E+03  0.00000000000E+00 0.  1.
      99926    2    1    2    0    0  0.00000000000E+00  0.00000000000E+00 -0.41190438838E+03  0.60531285894E+03  0.44355206237E+03 0.  0.
      99925    2    3    3    0    0  0.71947563044E+02  0.16661027467E+02 -0.35808424896E+03  0.45039947291E+03  0.26302340994E+03 0.  0.
         25    1    4    4    0    0  0.76158996367E+02  0.20948896227E+02 -0.19659405013E+03  0.24604019515E+03  0.12509000000E+03 0.  0.
         25    1    3    3    0    0 -0.71947563044E+02 -0.16661027467E+02 -0.53820139414E+02  0.15491338603E+03  0.12509000000E+03 0.  0.
         25    1    4    4    0    0 -0.42114333230E+01 -0.42878687603E+01 -0.16149019883E+03  0.20435927776E+03  0.12509000000E+03 0.  0.
<mgrwt>
<rscale>  2 0.44355206E+03</rscale>
<asrwt>0</asrwt>
<pdfrwt beam="1">  1       21 0.14221211E-01 0.44355206E+03</pdfrwt>
<pdfrwt beam="2">  1       21 0.74795387E-01 0.44355206E+03</pdfrwt>
<totfact> 0.63941672E+04</totfact>
</mgrwt>
</event>
<event>
 6    0  0.4725730E-002  0.4581511E+03  0.7546771E-02  0.1025319E+00
         21   -1    0    0  502  501  0.00000000000E+00  0.00000000000E+00  0.28231973885E+03  0.28231973885E+03  0.00000000000E+00 0. -1.
         21   -1    0    0  501  502 -0.00000000000E+00 -0.00000000000E+00 -0.18587298322E+03  0.18587298322E+03  0.00000000000E+00 0. -1.
      99926    2    1    2    0    0 -0.17763568394E-14  0.00000000000E+00  0.96446755623E+02  0.46819272207E+03  0.45815111953E+03 0.  0.
         25    1    3    3    0    0  0.18455021419E+02 -0.28866257913E+02  0.34944379163E+02  0.13432224833E+03  0.12509000000E+03 0.  0.
         25    1    3    3    0    0 -0.83717689567E+01  0.38136742985E+02 -0.72734325086E+02  0.14987424004E+03  0.12509000000E+03 0.  0.
         25    1    3    3    0    0 -0.10083252462E+02 -0.92704850719E+01  0.13423670155E+03  0.18399623370E+03  0.12509000000E+03 0.  0.
<mgrwt>
<rscale>  2 0.45815112E+03</rscale>
<asrwt>0</asrwt>
<pdfrwt beam="1">  1       21 0.41517608E-01 0.45815112E+03</pdfrwt>
<pdfrwt beam="2">  1       21 0.27334262E-01 0.45815112E+03</pdfrwt>
<totfact> 0.65907542E+04</totfact>
</mgrwt>
</event>
<event>
 7    0  0.4725730E-002  0.4440347E+03  0.7546771E-02  0.1029516E+00
         21   -1    0    0  502  501  0.00000000000E+00  0.00000000000E+00  0.40689616465E+02  0.40689616465E+02  0.00000000000E+00 0. -1.
         21   -1    0    0  501  502 -0.00000000000E+00 -0.00000000000E+00 -0.12114075460E+04  0.12114075460E+04  0.00000000000E+00 0. -1.
      99926    2    1    2    0    0  0.00000000000E+00 -0.71054273576E-14 -0.11707179296E+04  0.12520971625E+04  0.44403472130E+03 0.  0.
      99925    2    3    3    0    0 -0.51270910969E+02  0.40358291310E+02 -0.96734115114E+03  0.10045752037E+04  0.26299227971E+03 0.  0.
         25    1    4    4    0    0 -0.31463979125E+02 -0.17181468619E+02 -0.41104875891E+03  0.43115400398E+03  0.12509000000E+03 0.  0.
         25    1    4    4    0    0 -0.19806931844E+02  0.57539759929E+02 -0.55629239223E+03  0.57342119971E+03  0.12509000000E+03 0.  0.
         25    1    3    3    0    0  0.51270910969E+02 -0.40358291310E+02 -0.20337677843E+03  0.24752195881E+03  0.12509000000E+03 0.  0.
<mgrwt>
<rscale>  2 0.44403472E+03</rscale>
<asrwt>0</asrwt>
<pdfrwt beam="1">  1       21 0.59837680E-02 0.44403472E+03</pdfrwt>
<pdfrwt beam="2">  1       21 0.17814814E+00 0.44403472E+03</pdfrwt>
<totfact> 0.33289522E+04</totfact>
</mgrwt>
</event>
<event>
 7    0  0.4725730E-002  0.4485084E+03  0.7546771E-02  0.1028168E+00
         21   -1    0    0  502  501  0.00000000000E+00  0.00000000000E+00  0.16853214390E+03  0.16853214390E+03  0.00000000000E+00 0. -1.
         21   -1    0    0  501  502 -0.00000000000E+00 -0.00000000000E+00 -0.29839972736E+03  0.29839972736E+03  0.00000000000E+00 0. -1.
      99926    2    1    2    0    0  0.00000000000E+00  0.00000000000E+00 -0.12986758346E+03  0.46693187126E+03  0.44850839810E+03 0.  0.
      99925    2    3    3    0    0  0.87355303662E+02  0.50414272120E+02 -0.11890225374E+03  0.30587196170E+03  0.26314893710E+03 0.  0.
         25    1    4    4    0    0  0.84098168624E+02  0.41152837309E+02 -0.62050282127E+02  0.16811842135E+03  0.12509000000E+03 0.  0.
         25    1    4    4    0    0  0.32571350380E+01  0.92614348111E+01 -0.56851971609E+02  0.13775354035E+03  0.12509000000E+03 0.  0.
         25    1    3    3    0    0 -0.87355303662E+02 -0.50414272120E+02 -0.10965329723E+02  0.16105990956E+03  0.12509000000E+03 0.  0.
<mgrwt>
<rscale>  2 0.44850840E+03</rscale>
<asrwt>0</asrwt>
<pdfrwt beam="1">  1       21 0.24784139E-01 0.44850840E+03</pdfrwt>
<pdfrwt beam="2">  1       21 0.43882313E-01 0.44850840E+03</pdfrwt>
<totfact> 0.71264750E+04</totfact>
</mgrwt>
</event>
<event>
 7    0  0.4725730E-002  0.4321420E+03  0.7546771E-02  0.1033185E+00
         21   -1    0    0  502  501  0.00000000000E+00  0.00000000000E+00  0.13696069269E+04  0.13696069269E+04  0.00000000000E+00 0. -1.
         21   -1    0    0  501  502 -0.00000000000E+00 -0.00000000000E+00 -0.34087644265E+02  0.34087644265E+02  0.00000000000E+00 0. -1.
      99926    2    1    2    0    0  0.00000000000E+00  0.71054273576E-14  0.13355192826E+04  0.14036945711E+04  0.43214198457E+03 0.  0.
      99925    2    3    3    0    0  0.54833757543E+02 -0.52871411262E+02  0.10105964903E+04  0.10472896663E+04  0.26402320343E+03 0.  0.
         25    1    4    4    0    0  0.63585837005E+01 -0.61484525002E+02  0.55536303815E+03  0.57262238050E+03  0.12509000000E+03 0.  0.
         25    1    4    4    0    0  0.48475173842E+02  0.86131137402E+01  0.45523345212E+03  0.47466728583E+03  0.12509000000E+03 0.  0.
         25    1    3    3    0    0 -0.54833757543E+02  0.52871411262E+02  0.32492279234E+03  0.35640490482E+03  0.12509000000E+03 0.  0.
<mgrwt>
<rscale>  2 0.43214198E+03</rscale>
<asrwt>0</asrwt>
<pdfrwt beam="1">  1       21 0.20141275E+00 0.43214198E+03</pdfrwt>
<pdfrwt beam="2">  1       21 0.50128898E-02 0.43214198E+03</pdfrwt>
<totfact> 0.31462443E+04</totfact>
</mgrwt>
</event>
<event>
 7    0  0.4725730E-002  0.4530670E+03  0.7546771E-02  0.1026811E+00
         21   -1    0    0  502  501  0.00000000000E+00  0.00000000000E+00  0.69808042090E+02  0.69808042090E+02  0.00000000000E+00 0. -1.
         21   -1    0    0  501  502 -0.00000000000E+00 -0.00000000000E+00 -0.73512202854E+03  0.73512202854E+03  0.00000000000E+00 0. -1.
      99926    2    1    2    0    0  0.00000000000E+00 -0.14210854715E-13 -0.66531398645E+03  0.80493007063E+03  0.45306701275E+03 0.  0.
      99925    2    3    3    0    0  0.32544771187E+02 -0.10085660964E+03 -0.47986010454E+03  0.55739852061E+03  0.26305165465E+03 0.  0.
         25    1    4    4    0    0  0.40657648547E+02 -0.84900570135E+02 -0.28459544843E+03  0.32481260530E+03  0.12509000000E+03 0.  0.
         25    1    4    4    0    0 -0.81128773603E+01 -0.15956039504E+02 -0.19526465611E+03  0.23258591531E+03  0.12509000000E+03 0.  0.
         25    1    3    3    0    0 -0.32544771187E+02  0.10085660964E+03 -0.18545388191E+03  0.24753155002E+03  0.12509000000E+03 0.  0.
<mgrwt>
<rscale>  2 0.45306701E+03</rscale>
<asrwt>0</asrwt>
<pdfrwt beam="1">  1       21 0.10265889E-01 0.45306701E+03</pdfrwt>
<pdfrwt beam="2">  1       21 0.10810618E+00 0.45306701E+03</pdfrwt>
<totfact> 0.48255107E+04</totfact>
</mgrwt>
</event>
<event>
 7    0  0.4725730E-002  0.4540672E+03  0.7546771E-02  0.1026516E+00
         21   -1    0    0  502  501  0.00000000000E+00  0.00000000000E+00  0.11433447036E+03  0.11433447036E+03  0.00000000000E+00 0. -1.
         21   -1    0    0  501  502 -0.00000000000E+00 -0.00000000000E+00 -0.45081983749E+03  0.45081983749E+03  0.00000000000E+00 0. -1.
      99926    2    1    2    0    0  0.00000000000E+00  0.00000000000E+00 -0.33648536713E+03  0.56515430785E+03  0.45406716396E+03 0.  0.
      99925    2    3    3    0    0 -0.64809185228E+02 -0.67316438075E+02 -0.28941642435E+03  0.40207541038E+03  0.26300386997E+03 0.  0.
         25    1    3    3    0    0  0.64809185228E+02  0.67316438075E+02 -0.47068942778E+02  0.16307889747E+03  0.12509000000E+03 0.  0.
         25    1    4    4    0    0 -0.13251632066E+02 -0.30466777897E+02 -0.19114762532E+03  0.23084356840E+03  0.12509000000E+03 0.  0.
         25    1    4    4    0    0 -0.51557553163E+02 -0.36849660179E+02 -0.98268799037E+02  0.17123184198E+03  0.12509000000E+03 0.  0.
<mgrwt>
<rscale>  2 0.45406716E+03</rscale>
<asrwt>0</asrwt>
<pdfrwt beam="1">  1       21 0.16813893E-01 0.45406716E+03</pdfrwt>
<pdfrwt beam="2">  1       21 0.66297033E-01 0.45406716E+03</pdfrwt>
<totfact> 0.61327271E+04</totfact>
</mgrwt>
</event>
<event>
 7    0  0.4725730E-002  0.4741516E+03  0.7546771E-02  0.1020755E+00
         21   -1    0    0  502  501  0.00000000000E+00  0.00000000000E+00  0.11122691977E+04  0.11122691977E+04  0.00000000000E+00 0.  1.
         21   -1    0    0  501  502 -0.00000000000E+00 -0.00000000000E+00 -0.50531779151E+02  0.50531779151E+02  0.00000000000E+00 0.  1.
      99926    2    1    2    0    0 -0.17763568394E-14  0.00000000000E+00  0.10617374185E+04  0.11628009768E+04  0.47415162745E+03 0.  0.
      99925    2    3    3    0    0 -0.86220706107E+01 -0.60173683243E+02  0.37449738370E+03  0.46162939596E+03  0.26297946033E+03 0.  0.
         25    1    3    3    0    0  0.86220706107E+01  0.60173683243E+02  0.68724003481E+03  0.70117158085E+03  0.12509000000E+03 0.  0.
         25    1    4    4    0    0  0.51672371112E+01 -0.63509354657E+02  0.15945364492E+03  0.21244554937E+03  0.12509000000E+03 0.  0.
         25    1    4    4    0    0 -0.13789307722E+02  0.33356714141E+01  0.21504373878E+03  0.24918384659E+03  0.12509000000E+03 0.  0.
<mgrwt>
<rscale>  2 0.47415163E+03</rscale>
<asrwt>0</asrwt>
<pdfrwt beam="1">  1       21 0.16356898E+00 0.47415163E+03</pdfrwt>
<pdfrwt beam="2">  1       21 0.74311447E-02 0.47415163E+03</pdfrwt>
<totfact> 0.28811607E+04</totfact>
</mgrwt>
</event>
<event>
 7    0  0.4725730E-002  0.4489681E+03  0.7546771E-02  0.1028030E+00
         21   -1    0    0  502  501  0.00000000000E+00  0.00000000000E+00  0.53454349180E+03  0.53454349180E+03  0.00000000000E+00 0.  1.
         21   -1    0    0  501  502 -0.00000000000E+00 -0.00000000000E+00 -0.94273137558E+02  0.94273137558E+02  0.00000000000E+00 0.  1.
      99926    2    1    2    0    0  0.00000000000E+00  0.14210854715E-13  0.44027035424E+03  0.62881662936E+03  0.44896811527E+03 0.  0.
      99925    2    3    3    0    0 -0.66397819768E+02  0.79018331682E+02  0.32050190196E+03  0.42721167537E+03  0.26293683499E+03 0.  0.
         25    1    3    3    0    0  0.66397819768E+02 -0.79018331682E+02  0.11976845228E+03  0.20160495399E+03  0.12509000000E+03 0.  0.
         25    1    4    4    0    0 -0.14680421631E+01  0.10186404545E+02  0.14834775843E+03  0.19432056895E+03  0.12509000000E+03 0.  0.
         25    1    4    4    0    0 -0.64929777605E+02  0.68831927137E+02  0.17215414354E+03  0.23289110642E+03  0.12509000000E+03 0.  0.
<mgrwt>
<rscale>  2 0.44896812E+03</rscale>
<asrwt>0</asrwt>
<pdfrwt beam="1">  1       21 0.78609336E-01 0.44896812E+03</pdfrwt>
<pdfrwt beam="2">  1       21 0.13863697E-01 0.44896812E+03</pdfrwt>
<totfact> 0.59732483E+04</totfact>
</mgrwt>
</event>
<event>
 6    0  0.4725730E-002  0.4449235E+03  0.7546771E-02  0.1029247E+00
         21   -1    0    0  502  501  0.00000000000E+00  0.00000000000E+00  0.20253947504E+04  0.20253947504E+04  0.00000000000E+00 0.  1.
         21   -1    0    0  501  502 -0.00000000000E+00 -0.00000000000E+00 -0.24434366618E+02  0.24434366618E+02  0.00000000000E+00 0.  1.
      99926    2    1    2    0    0  0.00000000000E+00  0.17763568394E-14  0.20009603838E+04  0.20498291170E+04  0.44492353445E+03 0.  0.
         25    1    3    3    0    0 -0.71152241438E+02 -0.44322902124E+01  0.39949353360E+03  0.42464676868E+03  0.12509000000E+03 0.  0.
         25    1    3    3    0    0  0.77472204239E+02 -0.20855518716E+02  0.89474697781E+03  0.90700416620E+03  0.12509000000E+03 0.  0.
         25    1    3    3    0    0 -0.63199628014E+01  0.25287808929E+02  0.70671987237E+03  0.71817818215E+03  0.12509000000E+03 0.  0.
<mgrwt>
<rscale>  2 0.44492353E+03</rscale>
<asrwt>0</asrwt>
<pdfrwt beam="1">  1       21 0.29785205E+00 0.44492353E+03</pdfrwt>
<pdfrwt beam="2">  1       21 0.35932906E-02 0.44492353E+03</pdfrwt>
<totfact> 0.13974899E+04</totfact>
</mgrwt>
</event>
<event>
 7    0  0.4725730E-002  0.4591542E+03  0.7546771E-02  0.1025027E+00
         21   -1    0    0  502  501  0.00000000000E+00  0.00000000000E+00  0.81154325725E+03  0.81154325725E+03  0.00000000000E+00 0.  1.
         21   -1    0    0  501  502 -0.00000000000E+00 -0.00000000000E+00 -0.64944949994E+02  0.64944949994E+02  0.00000000000E+00 0.  1.
      99926    2    1    2    0    0  0.00000000000E+00  0.00000000000E+00  0.74659830726E+03  0.87648820725E+03  0.45915416261E+03 0.  0.
      99925    2    3    3    0    0 -0.10201393432E+03 -0.30329835949E+02  0.37491285371E+03  0.47013328083E+03  0.26294279249E+03 0.  0.
         25    1    4    4    0    0 -0.30755891807E+02 -0.42901811928E+02  0.21792554924E+03  0.25675969983E+03  0.12509000000E+03 0.  0.
         25    1    3    3    0    0  0.10201393432E+03  0.30329835949E+02  0.37168545355E+03  0.40635492641E+03  0.12509000000E+03 0.  0.
         25    1    4    4    0    0 -0.71258042510E+02  0.12571975979E+02  0.15698730448E+03  0.21337358100E+03  0.12509000000E+03 0.  0.
<mgrwt>
<rscale>  2 0.45915416E+03</rscale>
<asrwt>0</asrwt>
<pdfrwt beam="1">  1       21 0.11934459E+00 0.45915416E+03</pdfrwt>
<pdfrwt beam="2">  1       21 0.95507284E-02 0.45915416E+03</pdfrwt>
<totfact> 0.42854438E+04</totfact>
</mgrwt>
</event>
<event>
 7    0  0.4725730E-002  0.4594938E+03  0.7546771E-02  0.1024928E+00
         21   -1    0    0  502  501  0.00000000000E+00  0.00000000000E+00  0.92239105524E+03  0.92239105524E+03  0.00000000000E+00 0.  1.
         21   -1    0    0  501  502 -0.00000000000E+00 -0.00000000000E+00 -0.57224795746E+02  0.57224795746E+02  0.00000000000E+00 0.  1.
      99926    2    1    2    0    0  0.00000000000E+00  0.35527136788E-14  0.86516625950E+03  0.97961585099E+03  0.45949380729E+03 0.  0.
      99925    2    3    3    0    0 -0.22663775215E+02 -0.20179982918E+02  0.78396241778E+03  0.82742370130E+03  0.26289167077E+03 0.  0.
         25    1    4    4    0    0 -0.97615863509E+01 -0.23850232475E+02  0.51331909655E+03  0.52896892644E+03  0.12509000000E+03 0.  0.
         25    1    3    3    0    0  0.22663775215E+02  0.20179982918E+02  0.81203841716E+02  0.15219214969E+03  0.12509000000E+03 0.  0.
         25    1    4    4    0    0 -0.12902188864E+02  0.36702495572E+01  0.27064332124E+03  0.29845477486E+03  0.12509000000E+03 0.  0.
<mgrwt>
<rscale>  2 0.45949381E+03</rscale>
<asrwt>0</asrwt>
<pdfrwt beam="1">  1       21 0.13564573E+00 0.45949381E+03</pdfrwt>
<pdfrwt beam="2">  1       21 0.84154117E-02 0.45949381E+03</pdfrwt>
<totfact> 0.38590590E+04</totfact>
</mgrwt>
</event>
<event>
 7    0  0.4725730E-002  0.4606724E+03  0.7546771E-02  0.1024586E+00
         21   -1    0    0  502  501  0.00000000000E+00  0.00000000000E+00  0.49560061019E+02  0.49560061019E+02  0.00000000000E+00 0.  1.
         21   -1    0    0  501  502 -0.00000000000E+00 -0.00000000000E+00 -0.10705145058E+04  0.10705145058E+04  0.00000000000E+00 0.  1.
      99926    2    1    2    0    0  0.00000000000E+00  0.00000000000E+00 -0.10209544448E+04  0.11200745669E+04  0.46067239653E+03 0.  0.
      99925    2    3    3    0    0 -0.62231163629E+02 -0.91442388045E+01 -0.88315019107E+03  0.92362137833E+03  0.26299402216E+03 0.  0.
         25    1    4    4    0    0 -0.11140210447E+02  0.68866889452E+01 -0.31004811788E+03  0.33458761823E+03  0.12509000000E+03 0.  0.
         25    1    4    4    0    0 -0.51090953183E+02 -0.16030927750E+02 -0.57310207319E+03  0.58903376010E+03  0.12509000000E+03 0.  0.
         25    1    3    3    0    0  0.62231163629E+02  0.91442388045E+01 -0.13780425375E+03  0.19645318852E+03  0.12509000000E+03 0.  0.
<mgrwt>
<rscale>  2 0.46067240E+03</rscale>
<asrwt>0</asrwt>
<pdfrwt beam="1">  1       21 0.72882447E-02 0.46067240E+03</pdfrwt>
<pdfrwt beam="2">  1       21 0.15742860E+00 0.46067240E+03</pdfrwt>
<totfact> 0.33300160E+04</totfact>
</mgrwt>
</event>
<event>
 7    0  0.4725730E-002  0.4590055E+03  0.7546771E-02  0.1025070E+00
         21   -1    0    0  502  501  0.00000000000E+00  0.00000000000E+00  0.58738459624E+02  0.58738459624E+02  0.00000000000E+00 0. -1.
         21   -1    0    0  501  502 -0.00000000000E+00 -0.00000000000E+00 -0.89671254981E+03  0.89671254981E+03  0.00000000000E+00 0. -1.
      99926    2    1    2    0    0  0.00000000000E+00 -0.17763568394E-14 -0.83797409018E+03  0.95545100943E+03  0.45900550716E+03 0.  0.
      99925    2    3    3    0    0 -0.12294785840E+02 -0.15539873444E+02 -0.28558698482E+03  0.38873090947E+03  0.26298126294E+03 0.  0.
         25    1    4    4    0    0 -0.31974858468E+02  0.18310752707E+02 -0.16775533350E+03  0.21247831714E+03  0.12509000000E+03 0.  0.
         25    1    4    4    0    0  0.19680072627E+02 -0.33850626151E+02 -0.11783165132E+03  0.17625259233E+03  0.12509000000E+03 0.  0.
         25    1    3    3    0    0  0.12294785840E+02  0.15539873444E+02 -0.55238710536E+03  0.56672009996E+03  0.12509000000E+03 0.  0.
<mgrwt>
<rscale>  2 0.45900551E+03</rscale>
<asrwt>0</asrwt>
<pdfrwt beam="1">  1       21 0.86380088E-02 0.45900551E+03</pdfrwt>
<pdfrwt beam="2">  1       21 0.13186949E+00 0.45900551E+03</pdfrwt>
<totfact> 0.39663934E+04</totfact>
</mgrwt>
</event>
<event>
 7    0  0.4725730E-002  0.4543944E+03  0.7546771E-02  0.1026420E+00
         21   -1    0    0  502  501  0.00000000000E+00  0.00000000000E+00  0.20226897166E+03  0.20226897166E+03  0.00000000000E+00 0.  1.
         21   -1    0    0  501  502 -0.00000000000E+00 -0.00000000000E+00 -0.25519771242E+03  0.25519771242E+03  0.00000000000E+00 0.  1.
      99926    2    1    2    0    0  0.35527136788E-14 -0.71054273576E-14 -0.52928740758E+02  0.45746668408E+03  0.45439444918E+03 0.  0.
      99925    2    3    3    0    0  0.14747285394E+02 -0.52506499390E+02 -0.13250137251E+03  0.29949919778E+03  0.26299950731E+03 0.  0.
         25    1    4    4    0    0 -0.40766654245E+01 -0.47908541688E+02 -0.10429164128E+03  0.16981196103E+03  0.12509000000E+03 0.  0.
         25    1    3    3    0    0 -0.14747285394E+02  0.52506499390E+02  0.79572631755E+02  0.15796748630E+03  0.12509000000E+03 0.  0.
         25    1    4    4    0    0  0.18823950818E+02 -0.45979577015E+01 -0.28209731238E+02  0.12968723675E+03  0.12509000000E+03 0.  0.
<mgrwt>
<rscale>  2 0.45439445E+03</rscale>
<asrwt>0</asrwt>
<pdfrwt beam="1">  1       21 0.29745437E-01 0.45439445E+03</pdfrwt>
<pdfrwt beam="2">  1       21 0.37529075E-01 0.45439445E+03</pdfrwt>
<totfact> 0.68696666E+04</totfact>
</mgrwt>
</event>
<event>
 7    0  0.4725730E-002  0.4587802E+03  0.7546771E-02  0.1025136E+00
         21   -1    0    0  502  501  0.00000000000E+00  0.00000000000E+00  0.20383108116E+04  0.20383108116E+04  0.00000000000E+00 0. -1.
         21   -1    0    0  501  502 -0.00000000000E+00 -0.00000000000E+00 -0.25815402053E+02  0.25815402053E+02  0.00000000000E+00 0. -1.
      99926    2    1    2    0    0  0.14210854715E-13  0.00000000000E+00  0.20124954095E+04  0.20641262136E+04  0.45878017878E+03 0.  0.
      99925    2    3    3    0    0  0.79919615315E+02 -0.84713910351E+02  0.12917006845E+04  0.13233454531E+04  0.26303790270E+03 0.  0.
         25    1    3    3    0    0 -0.79919615315E+02  0.84713910351E+02  0.72079472500E+03  0.74078076055E+03  0.12509000000E+03 0.  0.
         25    1    4    4    0    0  0.76928864076E+02 -0.63801484043E+02  0.76592036616E+03  0.78247696125E+03  0.12509000000E+03 0.  0.
         25    1    4    4    0    0  0.29907512392E+01 -0.20912426307E+02  0.52578031835E+03  0.54086849181E+03  0.12509000000E+03 0.  0.
<mgrwt>
<rscale>  2 0.45878018E+03</rscale>
<asrwt>0</asrwt>
<pdfrwt beam="1">  1       21 0.29975148E+00 0.45878018E+03</pdfrwt>
<pdfrwt beam="2">  1       21 0.37963840E-02 0.45878018E+03</pdfrwt>
<totfact> 0.12325288E+04</totfact>
</mgrwt>
</event>
<event>
 7    0  0.4725730E-002  0.4593393E+03  0.7546771E-02  0.1024973E+00
         21   -1    0    0  502  501  0.00000000000E+00  0.00000000000E+00  0.11148824263E+03  0.11148824263E+03  0.00000000000E+00 0. -1.
         21   -1    0    0  501  502 -0.00000000000E+00 -0.00000000000E+00 -0.47312740946E+03  0.47312740946E+03  0.00000000000E+00 0. -1.
      99926    2    1    2    0    0  0.71054273576E-14  0.00000000000E+00 -0.36163916682E+03  0.58461565209E+03  0.45933927950E+03 0.  0.
      99925    2    3    3    0    0  0.35366471522E+02  0.11142474449E+03 -0.23657177672E+03  0.37258824546E+03  0.26303903537E+03 0.  0.
         25    1    4    4    0    0  0.48720208935E+02  0.82137541405E+02 -0.11219823507E+03  0.19327748581E+03  0.12509000000E+03 0.  0.
         25    1    3    3    0    0 -0.35366471522E+02 -0.11142474449E+03 -0.12506739011E+03  0.21202740663E+03  0.12509000000E+03 0.  0.
         25    1    4    4    0    0 -0.13353737413E+02  0.29287203086E+02 -0.12437354164E+03  0.17931075966E+03  0.12509000000E+03 0.  0.
<mgrwt>
<rscale>  2 0.45933928E+03</rscale>
<asrwt>0</asrwt>
<pdfrwt beam="1">  1       21 0.16395330E-01 0.45933928E+03</pdfrwt>
<pdfrwt beam="2">  1       21 0.69577561E-01 0.45933928E+03</pdfrwt>
<totfact> 0.57632879E+04</totfact>
</mgrwt>
</event>
<event>
 7    0  0.4725730E-002  0.4440772E+03  0.7546771E-02  0.1029503E+00
         21   -1    0    0  502  501  0.00000000000E+00  0.00000000000E+00  0.43965894939E+03  0.43965894939E+03  0.00000000000E+00 0.  1.
         21   -1    0    0  501  502 -0.00000000000E+00 -0.00000000000E+00 -0.11213496517E+03  0.11213496517E+03  0.00000000000E+00 0.  1.
      99926    2    1    2    0    0  0.00000000000E+00 -0.14210854715E-13  0.32752398422E+03  0.55179391456E+03  0.44407720489E+03 0.  0.
      99925    2    3    3    0    0 -0.40404964781E+01 -0.72720732307E+02  0.11857277252E+03  0.29760353809E+03  0.26306602399E+03 0.  0.
         25    1    4    4    0    0 -0.11013862085E+01 -0.64371673217E+02  0.95653485729E+02  0.17012355156E+03  0.12509000000E+03 0.  0.
         25    1    4    4    0    0 -0.29391102696E+01 -0.83490590900E+01  0.22919286787E+02  0.12747998652E+03  0.12509000000E+03 0.  0.
         25    1    3    3    0    0  0.40404964781E+01  0.72720732307E+02  0.20895121170E+03  0.25419037647E+03  0.12509000000E+03 0.  0.
<mgrwt>
<rscale>  2 0.44407720E+03</rscale>
<asrwt>0</asrwt>
<pdfrwt beam="1">  1       21 0.64655728E-01 0.44407720E+03</pdfrwt>
<pdfrwt beam="2">  1       21 0.16490436E-01 0.44407720E+03</pdfrwt>
<totfact> 0.67385125E+04</totfact>
</mgrwt>
</event>
<event>
 7    0  0.4725730E-002  0.4852384E+03  0.7546771E-02  0.1017705E+00
         21   -1    0    0  502  501  0.00000000000E+00  0.00000000000E+00  0.12800787973E+03  0.12800787973E+03  0.00000000000E+00 0. -1.
         21   -1    0    0  501  502 -0.00000000000E+00 -0.00000000000E+00 -0.45984721062E+03  0.45984721062E+03  0.00000000000E+00 0. -1.
      99926    2    1    2    0    0  0.00000000000E+00  0.00000000000E+00 -0.33183933090E+03  0.58785509035E+03  0.48523835969E+03 0.  0.
      99925    2    3    3    0    0  0.91026808350E+02 -0.10229601875E+03 -0.23709187316E+03  0.37958856846E+03  0.26291551818E+03 0.  0.
         25    1    3    3    0    0 -0.91026808350E+02  0.10229601875E+03 -0.94747457732E+02  0.20826652188E+03  0.12509000000E+03 0.  0.
         25    1    4    4    0    0  0.32116638812E+02 -0.27745327463E+02 -0.67203621138E+02  0.14820633076E+03  0.12509000000E+03 0.  0.
         25    1    4    4    0    0  0.58910169537E+02 -0.74550691287E+02 -0.16988825203E+03  0.23138223770E+03  0.12509000000E+03 0.  0.
<mgrwt>
<rscale>  2 0.48523836E+03</rscale>
<asrwt>0</asrwt>
<pdfrwt beam="1">  1       21 0.18824688E-01 0.48523836E+03</pdfrwt>
<pdfrwt beam="2">  1       21 0.67624590E-01 0.48523836E+03</pdfrwt>
<totfact> 0.47117558E+04</totfact>
</mgrwt>
</event>
<event>
 7    0  0.4725730E-002  0.4427110E+03  0.7546771E-02  0.1029918E+00
         21   -1    0    0  502  501  0.00000000000E+00  0.00000000000E+00  0.16749479813E+03  0.16749479813E+03  0.00000000000E+00 0. -1.
         21   -1    0    0  501  502 -0.00000000000E+00 -0.00000000000E+00 -0.29253593419E+03  0.29253593419E+03  0.00000000000E+00 0. -1.
      99926    2    1    2    0    0  0.71054273576E-14  0.00000000000E+00 -0.12504113606E+03  0.46003073233E+03  0.44271095421E+03 0.  0.
      99925    2    3    3    0    0 -0.46276869595E+02 -0.75507917330E+02 -0.28375696710E+02  0.27882722931E+03  0.26286203492E+03 0.  0.
         25    1    3    3    0    0  0.46276869595E+02  0.75507917330E+02 -0.96665439353E+02  0.18120350301E+03  0.12509000000E+03 0.  0.
         25    1    4    4    0    0 -0.58091400762E+02 -0.17632663795E+02 -0.13830560811E+02  0.13972943207E+03  0.12509000000E+03 0.  0.
         25    1    4    4    0    0  0.11814531168E+02 -0.57875253535E+02 -0.14545135899E+02  0.13909779724E+03  0.12509000000E+03 0.  0.
<mgrwt>
<rscale>  2 0.44271095E+03</rscale>
<asrwt>0</asrwt>
<pdfrwt beam="1">  1       21 0.24631589E-01 0.44271095E+03</pdfrwt>
<pdfrwt beam="2">  1       21 0.43019989E-01 0.44271095E+03</pdfrwt>
<totfact> 0.75257871E+04</totfact>
</mgrwt>
</event>
<event>
 7    0  0.4725730E-002  0.4626243E+03  0.7546771E-02  0.1024023E+00
         21   -1    0    0  502  501  0.00000000000E+00  0.00000000000E+00  0.25651887957E+03  0.25651887957E+03  0.00000000000E+00 0. -1.
         21   -1    0    0  501  502 -0.00000000000E+00 -0.00000000000E+00 -0.20858231238E+03  0.20858231238E+03  0.00000000000E+00 0. -1.
      99926    2    1    2    0    0  0.00000000000E+00  0.00000000000E+00  0.47936567186E+02  0.46510119195E+03  0.46262425820E+03 0.  0.
      99925    2    3    3    0    0 -0.92800687551E+02  0.56209244004E+02  0.82100099804E+02  0.29602694263E+03  0.26290697528E+03 0.  0.
         25    1    4    4    0    0 -0.28006148263E+02  0.25842356611E+02  0.77155748779E+02  0.15183112133E+03  0.12509000000E+03 0.  0.
         25    1    3    3    0    0  0.92800687551E+02 -0.56209244004E+02 -0.34163532618E+02  0.16907424932E+03  0.12509000000E+03 0.  0.
         25    1    4    4    0    0 -0.64794539289E+02  0.30366887393E+02  0.49443510249E+01  0.14419582129E+03  0.12509000000E+03 0.  0.
<mgrwt>
<rscale>  2 0.46262426E+03</rscale>
<asrwt>0</asrwt>
<pdfrwt beam="1">  1       21 0.37723364E-01 0.46262426E+03</pdfrwt>
<pdfrwt beam="2">  1       21 0.30673870E-01 0.46262426E+03</pdfrwt>
<totfact> 0.63839349E+04</totfact>
</mgrwt>
</event>
<event>
 7    0  0.4725730E-002  0.4570156E+03  0.7546771E-02  0.1025650E+00
         21   -1    0    0  502  501  0.00000000000E+00  0.00000000000E+00  0.50327539730E+03  0.50327539730E+03  0.00000000000E+00 0. -1.
         21   -1    0    0  501  502 -0.00000000000E+00 -0.00000000000E+00 -0.10375198048E+03  0.10375198048E+03  0.00000000000E+00 0. -1.
      99926    2    1    2    0    0  0.00000000000E+00  0.00000000000E+00  0.39952341682E+03  0.60702737778E+03  0.45701561984E+03 0.  0.
      99925    2    3    3    0    0 -0.20243453400E+02 -0.28501994527E+02  0.10507623102E+03  0.28520628707E+03  0.26282969916E+03 0.  0.
         25    1    4    4    0    0 -0.31876778163E+02 -0.32114113249E+01  0.18247316431E+02  0.13041056248E+03  0.12509000000E+03 0.  0.
         25    1    3    3    0    0  0.20243453400E+02  0.28501994527E+02  0.29444718580E+03  0.32182109070E+03  0.12509000000E+03 0.  0.
         25    1    4    4    0    0  0.11633324763E+02 -0.25290583202E+02  0.86828914592E+02  0.15479572460E+03  0.12509000000E+03 0.  0.
<mgrwt>
<rscale>  2 0.45701562E+03</rscale>
<asrwt>0</asrwt>
<pdfrwt beam="1">  1       21 0.74011087E-01 0.45701562E+03</pdfrwt>
<pdfrwt beam="2">  1       21 0.15257644E-01 0.45701562E+03</pdfrwt>
<totfact> 0.57329473E+04</totfact>
</mgrwt>
</event>
<event>
 7    0  0.4725730E-002  0.4524900E+03  0.7546771E-02  0.1026982E+00
         21   -1    0    0  502  501  0.00000000000E+00  0.00000000000E+00  0.24685288432E+03  0.24685288432E+03  0.00000000000E+00 0.  1.
         21   -1    0    0  501  502 -0.00000000000E+00 -0.00000000000E+00 -0.20735750797E+03  0.20735750797E+03  0.00000000000E+00 0.  1.
      99926    2    1    2    0    0 -0.71054273576E-14  0.00000000000E+00  0.39495376349E+02  0.45421039230E+03  0.45248999516E+03 0.  0.
      99925    2    3    3    0    0  0.63402204264E+02 -0.70605872295E+02 -0.32486556020E+02  0.28148536401E+03  0.26300875484E+03 0.  0.
         25    1    4    4    0    0  0.66456753985E+02 -0.51477822904E+02 -0.35627936577E+02  0.15486550412E+03  0.12509000000E+03 0.  0.
         25    1    3    3    0    0 -0.63402204264E+02  0.70605872295E+02  0.71981932369E+02  0.17272502828E+03  0.12509000000E+03 0.  0.
         25    1    4    4    0    0 -0.30545497217E+01 -0.19128049391E+02  0.31413805569E+01  0.12661985989E+03  0.12509000000E+03 0.  0.
<mgrwt>
<rscale>  2 0.45249000E+03</rscale>
<asrwt>0</asrwt>
<pdfrwt beam="1">  1       21 0.36301895E-01 0.45249000E+03</pdfrwt>
<pdfrwt beam="2">  1       21 0.30493751E-01 0.45249000E+03</pdfrwt>
<totfact> 0.69994984E+04</totfact>
</mgrwt>
</event>
<event>
 7    0  0.4725730E-002  0.4517013E+03  0.7546771E-02  0.1027216E+00
         21   -1    0    0  502  501  0.00000000000E+00  0.00000000000E+00  0.18405670083E+03  0.18405670083E+03  0.00000000000E+00 0. -1.
         21   -1    0    0  501  502 -0.00000000000E+00 -0.00000000000E+00 -0.27713482732E+03  0.27713482732E+03  0.00000000000E+00 0. -1.
      99926    2    1    2    0    0  0.00000000000E+00  0.00000000000E+00 -0.93078126487E+02  0.46119152816E+03  0.45170132611E+03 0.  0.
      99925    2    3    3    0    0 -0.28043559135E+02  0.90239564804E+02 -0.85804334188E+00  0.27930785077E+03  0.26283553602E+03 0.  0.
         25    1    3    3    0    0  0.28043559135E+02 -0.90239564804E+02 -0.92220083145E+02  0.18188367739E+03  0.12509000000E+03 0.  0.
         25    1    4    4    0    0 -0.50422773331E+02  0.57203761399E+02  0.14011732037E+02  0.14716848550E+03  0.12509000000E+03 0.  0.
         25    1    4    4    0    0  0.22379214197E+02  0.33035803405E+02 -0.14869775379E+02  0.13213936527E+03  0.12509000000E+03 0.  0.
<mgrwt>
<rscale>  2 0.45170133E+03</rscale>
<asrwt>0</asrwt>
<pdfrwt beam="1">  1       21 0.27067162E-01 0.45170133E+03</pdfrwt>
<pdfrwt beam="2">  1       21 0.40755121E-01 0.45170133E+03</pdfrwt>
<totfact> 0.69908624E+04</totfact>
</mgrwt>
</event>
<event>
 7    0  0.4725730E-002  0.4617832E+03  0.7546771E-02  0.1024265E+00
         21   -1    0    0  502  501  0.00000000000E+00  0.00000000000E+00  0.44243167671E+03  0.44243167671E+03  0.00000000000E+00 0.  1.
         21   -1    0    0  501  502 -0.00000000000E+00 -0.00000000000E+00 -0.12049529437E+03  0.12049529437E+03  0.00000000000E+00 0.  1.
      99926    2    1    2    0    0  0.14210854715E-13  0.00000000000E+00  0.32193638235E+03  0.56292697108E+03  0.46178321808E+03 0.  0.
      99925    2    3    3    0    0 -0.11543906864E+03 -0.30209483193E+02  0.19624927877E+03  0.34918987194E+03  0.26302280473E+03 0.  0.
         25    1    4    4    0    0 -0.82155964875E+02 -0.38403695278E+02  0.75434897677E+02  0.17193713462E+03  0.12509000000E+03 0.  0.
         25    1    3    3    0    0  0.11543906864E+03  0.30209483193E+02  0.12568710358E+03  0.21373709914E+03  0.12509000000E+03 0.  0.
         25    1    4    4    0    0 -0.33283103769E+02  0.81942120849E+01  0.12081438109E+03  0.17725273732E+03  0.12509000000E+03 0.  0.
<mgrwt>
<rscale>  2 0.46178322E+03</rscale>
<asrwt>0</asrwt>
<pdfrwt beam="1">  1       21 0.65063481E-01 0.46178322E+03</pdfrwt>
<pdfrwt beam="2">  1       21 0.17719896E-01 0.46178322E+03</pdfrwt>
<totfact> 0.57853331E+04</totfact>
</mgrwt>
</event>
<event>
 7    0  0.4725730E-002  0.4460044E+03  0.7546771E-02  0.1028920E+00
         21   -1    0    0  502  501  0.00000000000E+00  0.00000000000E+00  0.22462804188E+03  0.22462804188E+03  0.00000000000E+00 0. -1.
         21   -1    0    0  501  502 -0.00000000000E+00 -0.00000000000E+00 -0.22138817334E+03  0.22138817334E+03  0.00000000000E+00 0. -1.
      99926    2    1    2    0    0  0.00000000000E+00 -0.14210854715E-13  0.32398685453E+01  0.44601621522E+03  0.44600444783E+03 0.  0.
      99925    2    3    3    0    0 -0.59370726892E+02  0.77934300052E+02  0.38559002181E+02  0.28324770586E+03  0.26295213993E+03 0.  0.
         25    1    4    4    0    0 -0.27136750300E+02  0.13219685148E+01  0.36262251953E+02  0.13304363883E+03  0.12509000000E+03 0.  0.
         25    1    4    4    0    0 -0.32233976591E+02  0.76612331537E+02  0.22967502282E+01  0.15020406703E+03  0.12509000000E+03 0.  0.
         25    1    3    3    0    0  0.59370726892E+02 -0.77934300052E+02 -0.35319133636E+02  0.16276850935E+03  0.12509000000E+03 0.  0.
<mgrwt>
<rscale>  2 0.44600445E+03</rscale>
<asrwt>0</asrwt>
<pdfrwt beam="1">  1       21 0.33033536E-01 0.44600445E+03</pdfrwt>
<pdfrwt beam="2">  1       21 0.32557084E-01 0.44600445E+03</pdfrwt>
<totfact> 0.74407947E+04</totfact>
</mgrwt>
</event>
<event>
 7    0  0.4725730E-002  0.4515398E+03  0.7546771E-02  0.1027264E+00
         21   -1    0    0  502  501  0.00000000000E+00  0.00000000000E+00  0.24369896463E+03  0.24369896463E+03  0.00000000000E+00 0.  1.
         21   -1    0    0  501  502 -0.00000000000E+00 -0.00000000000E+00 -0.20915985715E+03  0.20915985715E+03  0.00000000000E+00 0.  1.
      99926    2    1    2    0    0 -0.17763568394E-14  0.00000000000E+00  0.34539107476E+02  0.45285882179E+03  0.45153976849E+03 0.  0.
      99925    2    3    3    0    0 -0.40361849191E+01 -0.10074004118E+03 -0.22160090940E+02  0.28248525023E+03  0.26294866472E+03 0.  0.
         25    1    4    4    0    0  0.30828594429E+02 -0.55494574466E+02 -0.34381927755E+02  0.14442878898E+03  0.12509000000E+03 0.  0.
         25    1    4    4    0    0 -0.34864779348E+02 -0.45245466711E+02  0.12221836814E+02  0.13805646125E+03  0.12509000000E+03 0.  0.
         25    1    3    3    0    0  0.40361849191E+01  0.10074004118E+03  0.56699198416E+02  0.17037357156E+03  0.12509000000E+03 0.  0.
<mgrwt>
<rscale>  2 0.45153977E+03</rscale>
<asrwt>0</asrwt>
<pdfrwt beam="1">  1       21 0.35838083E-01 0.45153977E+03</pdfrwt>
<pdfrwt beam="2">  1       21 0.30758802E-01 0.45153977E+03</pdfrwt>
<totfact> 0.70632975E+04</totfact>
</mgrwt>
</event>
<event>
 7    0  0.4725730E-002  0.4684178E+03  0.7546771E-02  0.1022368E+00
         21   -1    0    0  502  501  0.00000000000E+00  0.00000000000E+00  0.23309775983E+03  0.23309775983E+03  0.00000000000E+00 0.  1.
         21   -1    0    0  501  502 -0.00000000000E+00 -0.00000000000E+00 -0.23532528813E+03  0.23532528813E+03  0.00000000000E+00 0.  1.
      99926    2    1    2    0    0  0.17763568394E-14  0.00000000000E+00 -0.22275283029E+01  0.46842304796E+03  0.46841775156E+03 0.  0.
      99925    2    3    3    0    0 -0.54456502369E+01  0.12147789415E+03 -0.31786469858E+02  0.29148302140E+03  0.26299322847E+03 0.  0.
         25    1    4    4    0    0  0.25458754416E+02  0.64663560657E+02 -0.45093942810E+02  0.15003498269E+03  0.12509000000E+03 0.  0.
         25    1    4    4    0    0 -0.30904404653E+02  0.56814333492E+02  0.13307472952E+02  0.14144803871E+03  0.12509000000E+03 0.  0.
         25    1    3    3    0    0  0.54456502369E+01 -0.12147789415E+03  0.29558941555E+02  0.17694002656E+03  0.12509000000E+03 0.  0.
<mgrwt>
<rscale>  2 0.46841775E+03</rscale>
<asrwt>0</asrwt>
<pdfrwt beam="1">  1       21 0.34279083E-01 0.46841775E+03</pdfrwt>
<pdfrwt beam="2">  1       21 0.34606660E-01 0.46841775E+03</pdfrwt>
<totfact> 0.60798893E+04</totfact>
</mgrwt>
</event>
<event>
 7    0  0.4725730E-002  0.4468219E+03  0.7546771E-02  0.1028674E+00
         21   -1    0    0  502  501  0.00000000000E+00  0.00000000000E+00  0.24299569674E+03  0.24299569674E+03  0.00000000000E+00 0.  1.
         21   -1    0    0  501  502 -0.00000000000E+00 -0.00000000000E+00 -0.20540469886E+03  0.20540469886E+03  0.00000000000E+00 0.  1.
      99926    2    1    2    0    0  0.00000000000E+00  0.00000000000E+00  0.37590997883E+02  0.44840039560E+03  0.44682192387E+03 0.  0.
      99925    2    3    3    0    0 -0.52503179125E+02  0.42436297139E+02  0.10483978695E+03  0.29115113212E+03  0.26309727797E+03 0.  0.
         25    1    4    4    0    0 -0.10858696847E+02  0.30480631102E+02  0.12633789650E+02  0.12982334501E+03  0.12509000000E+03 0.  0.
         25    1    4    4    0    0 -0.41644482279E+02  0.11955666037E+02  0.92205997299E+02  0.16132778711E+03  0.12509000000E+03 0.  0.
         25    1    3    3    0    0  0.52503179125E+02 -0.42436297139E+02 -0.67248789065E+02  0.15724926348E+03  0.12509000000E+03 0.  0.
<mgrwt>
<rscale>  2 0.44682192E+03</rscale>
<asrwt>0</asrwt>
<pdfrwt beam="1">  1       21 0.35734661E-01 0.44682192E+03</pdfrwt>
<pdfrwt beam="2">  1       21 0.30206574E-01 0.44682192E+03</pdfrwt>
<totfact> 0.73726532E+04</totfact>
</mgrwt>
</event>
<event>
 7    0  0.4725730E-002  0.4394544E+03  0.7546771E-02  0.1030914E+00
         21   -1    0    0  502  501  0.00000000000E+00  0.00000000000E+00  0.91250946517E+03  0.91250946517E+03  0.00000000000E+00 0. -1.
         21   -1    0    0  501  502 -0.00000000000E+00 -0.00000000000E+00 -0.52909075487E+02  0.52909075487E+02  0.00000000000E+00 0. -1.
      99926    2    1    2    0    0  0.35527136788E-14  0.00000000000E+00  0.85960038968E+03  0.96541854065E+03  0.43945435338E+03 0.  0.
      99925    2    3    3    0    0 -0.30926105264E+02 -0.89237940352E+02  0.49264315260E+03  0.56638852182E+03  0.26301872150E+03 0.  0.
         25    1    3    3    0    0  0.30926105264E+02  0.89237940352E+02  0.36695723708E+03  0.39903001884E+03  0.12509000000E+03 0.  0.
         25    1    4    4    0    0  0.84363418286E+01 -0.70617259102E+02  0.21416393111E+03  0.25801485739E+03  0.12509000000E+03 0.  0.
         25    1    4    4    0    0 -0.39362447092E+02 -0.18620681250E+02  0.27847922149E+03  0.30837366443E+03  0.12509000000E+03 0.  0.
<mgrwt>
<rscale>  2 0.43945435E+03</rscale>
<asrwt>0</asrwt>
<pdfrwt beam="1">  1       21 0.13419256E+00 0.43945435E+03</pdfrwt>
<pdfrwt beam="2">  1       21 0.77807470E-02 0.43945435E+03</pdfrwt>
<totfact> 0.45846368E+04</totfact>
</mgrwt>
</event>
<event>
 7    0  0.4725730E-002  0.4494404E+03  0.7546771E-02  0.1027889E+00
         21   -1    0    0  502  501  0.00000000000E+00  0.00000000000E+00  0.22541855110E+03  0.22541855110E+03  0.00000000000E+00 0.  1.
         21   -1    0    0  501  502 -0.00000000000E+00 -0.00000000000E+00 -0.22402396937E+03  0.22402396937E+03  0.00000000000E+00 0.  1.
      99926    2    1    2    0    0  0.00000000000E+00  0.35527136788E-14  0.13945817285E+01  0.44944252047E+03  0.44944035683E+03 0.  0.
      99925    2    3    3    0    0  0.26100733087E+02 -0.30674465166E+02 -0.99187868194E+02  0.28395382474E+03  0.26300070400E+03 0.  0.
         25    1    4    4    0    0  0.24706174090E+01 -0.45462164006E+02 -0.23686468900E+02  0.13520898349E+03  0.12509000000E+03 0.  0.
         25    1    3    3    0    0 -0.26100733087E+02  0.30674465166E+02  0.10058244992E+03  0.16548869573E+03  0.12509000000E+03 0.  0.
         25    1    4    4    0    0  0.23630115678E+02  0.14787698840E+02 -0.75501399294E+02  0.14874484125E+03  0.12509000000E+03 0.  0.
<mgrwt>
<rscale>  2 0.44944036E+03</rscale>
<asrwt>0</asrwt>
<pdfrwt beam="1">  1       21 0.33149787E-01 0.44944036E+03</pdfrwt>
<pdfrwt beam="2">  1       21 0.32944701E-01 0.44944036E+03</pdfrwt>
<totfact> 0.72100562E+04</totfact>
</mgrwt>
</event>
<event>
 7    0  0.4725730E-002  0.4706200E+03  0.7546771E-02  0.1021745E+00
         21   -1    0    0  502  501  0.00000000000E+00  0.00000000000E+00  0.28664775368E+03  0.28664775368E+03  0.00000000000E+00 0. -1.
         21   -1    0    0  501  502 -0.00000000000E+00 -0.00000000000E+00 -0.19316668354E+03  0.19316668354E+03  0.00000000000E+00 0. -1.
      99926    2    1    2    0    0  0.00000000000E+00  0.00000000000E+00  0.93481070135E+02  0.47981443722E+03  0.47061999925E+03 0.  0.
      99925    2    3    3    0    0 -0.95859996977E+02  0.81673150822E+02  0.76538520908E+02  0.30150515351E+03  0.26303530148E+03 0.  0.
         25    1    4    4    0    0 -0.23243432561E+02  0.66648870136E+02  0.18030284442E+02  0.14475817181E+03  0.12509000000E+03 0.  0.
         25    1    4    4    0    0 -0.72616564416E+02  0.15024280686E+02  0.58508236466E+02  0.15674698170E+03  0.12509000000E+03 0.  0.
         25    1    3    3    0    0  0.95859996977E+02 -0.81673150822E+02  0.16942549227E+02  0.17830928372E+03  0.12509000000E+03 0.  0.
<mgrwt>
<rscale>  2 0.47062000E+03</rscale>
<asrwt>0</asrwt>
<pdfrwt beam="1">  1       21 0.42154082E-01 0.47062000E+03</pdfrwt>
<pdfrwt beam="2">  1       21 0.28406865E-01 0.47062000E+03</pdfrwt>
<totfact> 0.59045357E+04</totfact>
</mgrwt>
</event>
<event>
 7    0  0.4725730E-002  0.4507675E+03  0.7546771E-02  0.1027493E+00
         21   -1    0    0  502  501  0.00000000000E+00  0.00000000000E+00  0.38515961177E+02  0.38515961177E+02  0.00000000000E+00 0. -1.
         21   -1    0    0  501  502 -0.00000000000E+00 -0.00000000000E+00 -0.13188775527E+04  0.13188775527E+04  0.00000000000E+00 0. -1.
      99926    2    1    2    0    0 -0.71054273576E-14 -0.14210854715E-13 -0.12803615915E+04  0.13573935138E+04  0.45076750822E+03 0.  0.
      99925    2    3    3    0    0 -0.59086686503E+02 -0.91736161311E+02 -0.82172185757E+03  0.86963878712E+03  0.26294115128E+03 0.  0.
         25    1    3    3    0    0  0.59086686503E+02  0.91736161311E+02 -0.45863973392E+03  0.48775472673E+03  0.12509000000E+03 0.  0.
         25    1    4    4    0    0  0.11322503620E+02 -0.39233696737E+02 -0.39847238572E+03  0.41963702450E+03  0.12509000000E+03 0.  0.
         25    1    4    4    0    0 -0.70409190124E+02 -0.52502464574E+02 -0.42324947185E+03  0.45000176262E+03  0.12509000000E+03 0.  0.
<mgrwt>
<rscale>  2 0.45076751E+03</rscale>
<asrwt>0</asrwt>
<pdfrwt beam="1">  1       21 0.56641138E-02 0.45076751E+03</pdfrwt>
<pdfrwt beam="2">  1       21 0.19395252E+00 0.45076751E+03</pdfrwt>
<totfact> 0.28413190E+04</totfact>
</mgrwt>
</event>
<event>
 7    0  0.4725730E-002  0.4524554E+03  0.7546771E-02  0.1026992E+00
         21   -1    0    0  502  501  0.00000000000E+00  0.00000000000E+00  0.16374938796E+03  0.16374938796E+03  0.00000000000E+00 0. -1.
         21   -1    0    0  501  502 -0.00000000000E+00 -0.00000000000E+00 -0.31254456395E+03  0.31254456395E+03  0.00000000000E+00 0. -1.
      99926    2    1    2    0    0  0.14210854715E-13  0.17763568394E-14 -0.14879517598E+03  0.47629395191E+03  0.45245543895E+03 0.  0.
      99925    2    3    3    0    0  0.97139725895E+02 -0.13079240778E+02 -0.39505414191E+02  0.28342365088E+03  0.26298497152E+03 0.  0.
         25    1    3    3    0    0 -0.97139725895E+02  0.13079240778E+02 -0.10928976179E+03  0.19287030103E+03  0.12509000000E+03 0.  0.
         25    1    4    4    0    0  0.86213594567E+02 -0.80493024015E+01 -0.15252616126E+01  0.15214272799E+03  0.12509000000E+03 0.  0.
         25    1    4    4    0    0  0.10926131329E+02 -0.50299383770E+01 -0.37980152579E+02  0.13128092289E+03  0.12509000000E+03 0.  0.
<mgrwt>
<rscale>  2 0.45245544E+03</rscale>
<asrwt>0</asrwt>
<pdfrwt beam="1">  1       21 0.24080793E-01 0.45245544E+03</pdfrwt>
<pdfrwt beam="2">  1       21 0.45962436E-01 0.45245544E+03</pdfrwt>
<totfact> 0.68340666E+04</totfact>
</mgrwt>
</event>
<event>
 7    0  0.4725730E-002  0.4382361E+03  0.7546771E-02  0.1031289E+00
         21   -1    0    0  502  501  0.00000000000E+00  0.00000000000E+00  0.64444797273E+02  0.64444797273E+02  0.00000000000E+00 0. -1.
         21   -1    0    0  501  502 -0.00000000000E+00 -0.00000000000E+00 -0.74502100738E+03  0.74502100738E+03  0.00000000000E+00 0. -1.
      99926    2    1    2    0    0  0.35527136788E-14  0.00000000000E+00 -0.68057621011E+03  0.80946580466E+03  0.43823613628E+03 0.  0.
      99925    2    3    3    0    0 -0.19495464963E+02 -0.40021025725E+02 -0.27630317355E+03  0.38394735401E+03  0.26285047324E+03 0.  0.
         25    1    3    3    0    0  0.19495464963E+02  0.40021025725E+02 -0.40427303655E+03  0.42551845064E+03  0.12509000000E+03 0.  0.
         25    1    4    4    0    0 -0.36669871894E+02 -0.47415314773E+02 -0.16411130113E+03  0.21487884688E+03  0.12509000000E+03 0.  0.
         25    1    4    4    0    0  0.17174406931E+02  0.73942890477E+01 -0.11219187243E+03  0.16906850713E+03  0.12509000000E+03 0.  0.
<mgrwt>
<rscale>  2 0.43823614E+03</rscale>
<asrwt>0</asrwt>
<pdfrwt beam="1">  1       21 0.94771760E-02 0.43823614E+03</pdfrwt>
<pdfrwt beam="2">  1       21 0.10956191E+00 0.43823614E+03</pdfrwt>
<totfact> 0.54081576E+04</totfact>
</mgrwt>
</event>
<event>
 7    0  0.4725730E-002  0.4512877E+03  0.7546771E-02  0.1027339E+00
         21   -1    0    0  502  501  0.00000000000E+00  0.00000000000E+00  0.45232176967E+03  0.45232176967E+03  0.00000000000E+00 0.  1.
         21   -1    0    0  501  502 -0.00000000000E+00 -0.00000000000E+00 -0.11256398934E+03  0.11256398934E+03  0.00000000000E+00 0.  1.
      99926    2    1    2    0    0 -0.14210854715E-13  0.00000000000E+00  0.33975778033E+03  0.56488575901E+03  0.45128768146E+03 0.  0.
      99925    2    3    3    0    0 -0.83525398969E+02 -0.66257941682E+02  0.18224872179E+03  0.33723862257E+03  0.26296137520E+03 0.  0.
         25    1    4    4    0    0 -0.68352453750E+02 -0.29096758427E+02  0.58649725792E+02  0.15686292653E+03  0.12509000000E+03 0.  0.
         25    1    3    3    0    0  0.83525398969E+02  0.66257941682E+02  0.15750905854E+03  0.22764713644E+03  0.12509000000E+03 0.  0.
         25    1    4    4    0    0 -0.15172945219E+02 -0.37161183255E+02  0.12359899600E+03  0.18037569603E+03  0.12509000000E+03 0.  0.
<mgrwt>
<rscale>  2 0.45128768E+03</rscale>
<asrwt>0</asrwt>
<pdfrwt beam="1">  1       21 0.66517907E-01 0.45128768E+03</pdfrwt>
<pdfrwt beam="2">  1       21 0.16553528E-01 0.45128768E+03</pdfrwt>
<totfact> 0.62714555E+04</totfact>
</mgrwt>
</event>
<event>
 7    0  0.4725730E-002  0.4703983E+03  0.7546771E-02  0.1021808E+00
         21   -1    0    0  502  501  0.00000000000E+00  0.00000000000E+00  0.87113228512E+02  0.87113228512E+02  0.00000000000E+00 0. -1.
         21   -1    0    0  501  502 -0.00000000000E+00 -0.00000000000E+00 -0.63502000350E+03  0.63502000350E+03  0.00000000000E+00 0. -1.
      99926    2    1    2    0    0  0.35527136788E-14  0.00000000000E+00 -0.54790677499E+03  0.72213323201E+03  0.47039831069E+03 0.  0.
      99925    2    3    3    0    0 -0.19365729558E+02 -0.92685002217E+02 -0.21014860104E+03  0.34971729078E+03  0.26300990064E+03 0.  0.
         25    1    3    3    0    0  0.19365729558E+02  0.92685002217E+02 -0.33775817394E+03  0.37241594123E+03  0.12509000000E+03 0.  0.
         25    1    4    4    0    0 -0.23735514373E+02 -0.70671981914E+02 -0.73546896067E+02  0.16313968766E+03  0.12509000000E+03 0.  0.
         25    1    4    4    0    0  0.43697848149E+01 -0.22013020304E+02 -0.13660170498E+03  0.18657760312E+03  0.12509000000E+03 0.  0.
<mgrwt>
<rscale>  2 0.47039831E+03</rscale>
<asrwt>0</asrwt>
<pdfrwt beam="1">  1       21 0.12810769E-01 0.47039831E+03</pdfrwt>
<pdfrwt beam="2">  1       21 0.93385296E-01 0.47039831E+03</pdfrwt>
<totfact> 0.45900633E+04</totfact>
</mgrwt>
</event>
<event>
 7    0  0.4725730E-002  0.4542318E+03  0.7546771E-02  0.1026468E+00
         21   -1    0    0  502  501  0.00000000000E+00  0.00000000000E+00  0.99423619660E+03  0.99423619660E+03  0.00000000000E+00 0.  1.
         21   -1    0    0  501  502 -0.00000000000E+00 -0.00000000000E+00 -0.51880666894E+02  0.51880666894E+02  0.00000000000E+00 0.  1.
      99926    2    1    2    0    0  0.00000000000E+00  0.14210854715E-13  0.94235552971E+03  0.10461168635E+04  0.45423182156E+03 0.  0.
      99925    2    3    3    0    0  0.47949072119E+02  0.97070610909E+02  0.52363487862E+03  0.59589879548E+03  0.26302104731E+03 0.  0.
         25    1    3    3    0    0 -0.47949072119E+02 -0.97070610909E+02  0.41872065108E+03  0.45021806801E+03  0.12509000000E+03 0.  0.
         25    1    4    4    0    0  0.30269284941E+02  0.38100609746E+02  0.17593236895E+03  0.22128622329E+03  0.12509000000E+03 0.  0.
         25    1    4    4    0    0  0.17679787178E+02  0.58970001163E+02  0.34770250968E+03  0.37461257220E+03  0.12509000000E+03 0.  0.
<mgrwt>
<rscale>  2 0.45423182E+03</rscale>
<asrwt>0</asrwt>
<pdfrwt beam="1">  1       21 0.14621119E+00 0.45423182E+03</pdfrwt>
<pdfrwt beam="2">  1       21 0.76295104E-02 0.45423182E+03</pdfrwt>
<totfact> 0.37645415E+04</totfact>
</mgrwt>
</event>
<event>
 7    0  0.4725730E-002  0.4498802E+03  0.7546771E-02  0.1027758E+00
         21   -1    0    0  502  501  0.00000000000E+00  0.00000000000E+00  0.16594430118E+03  0.16594430118E+03  0.00000000000E+00 0. -1.
         21   -1    0    0  501  502 -0.00000000000E+00 -0.00000000000E+00 -0.30490976393E+03  0.30490976393E+03  0.00000000000E+00 0. -1.
      99926    2    1    2    0    0  0.00000000000E+00  0.35527136788E-14 -0.13896546275E+03  0.47085406511E+03  0.44988015158E+03 0.  0.
      99925    2    3    3    0    0 -0.10159441473E+03  0.16747973568E+02 -0.52435600644E+02  0.28717814164E+03  0.26290658626E+03 0.  0.
         25    1    3    3    0    0  0.10159441473E+03 -0.16747973568E+02 -0.86529862110E+02  0.18367592346E+03  0.12509000000E+03 0.  0.
         25    1    4    4    0    0 -0.37882897491E+02 -0.30488972174E+02 -0.22975247737E+02  0.13616189428E+03  0.12509000000E+03 0.  0.
         25    1    4    4    0    0 -0.63711517244E+02  0.47236945742E+02 -0.29460352907E+02  0.15101624736E+03  0.12509000000E+03 0.  0.
<mgrwt>
<rscale>  2 0.44988015E+03</rscale>
<asrwt>0</asrwt>
<pdfrwt beam="1">  1       21 0.24403574E-01 0.44988015E+03</pdfrwt>
<pdfrwt beam="2">  1       21 0.44839671E-01 0.44988015E+03</pdfrwt>
<totfact> 0.70180372E+04</totfact>
</mgrwt>
</event>
<event>
 7    0  0.4725730E-002  0.4543741E+03  0.7546771E-02  0.1026426E+00
         21   -1    0    0  502  501  0.00000000000E+00  0.00000000000E+00  0.75453085659E+02  0.75453085659E+02  0.00000000000E+00 0.  1.
         21   -1    0    0  501  502 -0.00000000000E+00 -0.00000000000E+00 -0.68405351824E+03  0.68405351824E+03  0.00000000000E+00 0.  1.
      99926    2    1    2    0    0 -0.14210854715E-13  0.00000000000E+00 -0.60860043258E+03  0.75950660390E+03  0.45437406927E+03 0.  0.
      99925    2    3    3    0    0 -0.77516991471E+02  0.63998843658E+02 -0.29856319490E+03  0.41040012616E+03  0.26302765300E+03 0.  0.
         25    1    4    4    0    0 -0.21441477617E+02  0.62613030842E+02 -0.12187377975E+03  0.18676416917E+03  0.12509000000E+03 0.  0.
         25    1    4    4    0    0 -0.56075513854E+02  0.13858128155E+01 -0.17668941516E+03  0.22363595699E+03  0.12509000000E+03 0.  0.
         25    1    3    3    0    0  0.77516991471E+02 -0.63998843658E+02 -0.31003723768E+03  0.34910647774E+03  0.12509000000E+03 0.  0.
<mgrwt>
<rscale>  2 0.45437407E+03</rscale>
<asrwt>0</asrwt>
<pdfrwt beam="1">  1       21 0.11096043E-01 0.45437407E+03</pdfrwt>
<pdfrwt beam="2">  1       21 0.10059610E+00 0.45437407E+03</pdfrwt>
<totfact> 0.50030723E+04</totfact>
</mgrwt>
</event>
<event>
 7    0  0.4725730E-002  0.4699145E+03  0.7546771E-02  0.1021944E+00
         21   -1    0    0  502  501  0.00000000000E+00  0.00000000000E+00  0.10688826716E+03  0.10688826716E+03  0.00000000000E+00 0. -1.
         21   -1    0    0  501  502 -0.00000000000E+00 -0.00000000000E+00 -0.51647312099E+03  0.51647312099E+03  0.00000000000E+00 0. -1.
      99926    2    1    2    0    0  0.00000000000E+00  0.00000000000E+00 -0.40958485383E+03  0.62336138815E+03  0.46991453239E+03 0.  0.
      99925    2    3    3    0    0  0.10461975497E+03 -0.61912467505E+02 -0.20710450269E+03  0.35610823577E+03  0.26294933691E+03 0.  0.
         25    1    3    3    0    0 -0.10461975497E+03  0.61912467505E+02 -0.20248035114E+03  0.26725315239E+03  0.12509000000E+03 0.  0.
         25    1    4    4    0    0  0.87107453500E+02 -0.29434901348E+02 -0.82833494355E+02  0.17596311477E+03  0.12509000000E+03 0.  0.
         25    1    4    4    0    0  0.17512301470E+02 -0.32477566157E+02 -0.12427100833E+03  0.18014512100E+03  0.12509000000E+03 0.  0.
<mgrwt>
<rscale>  2 0.46991453E+03</rscale>
<asrwt>0</asrwt>
<pdfrwt beam="1">  1       21 0.15718863E-01 0.46991453E+03</pdfrwt>
<pdfrwt beam="2">  1       21 0.75951929E-01 0.46991453E+03</pdfrwt>
<totfact> 0.50987353E+04</totfact>
</mgrwt>
</event>
<event>
 7    0  0.4725730E-002  0.4184437E+03  0.7546771E-02  0.1037574E+00
         21   -1    0    0  502  501  0.00000000000E+00  0.00000000000E+00  0.14508211146E+03  0.14508211146E+03  0.00000000000E+00 0.  1.
         21   -1    0    0  501  502 -0.00000000000E+00 -0.00000000000E+00 -0.30171734551E+03  0.30171734551E+03  0.00000000000E+00 0.  1.
      99926    2    1    2    0    0 -0.71054273576E-14 -0.71054273576E-14 -0.15663523405E+03  0.44679945696E+03  0.41844373361E+03 0.  0.
      99925    2    3    3    0    0  0.50255907141E+02  0.54039410694E+02 -0.98919373921E+02  0.29051592386E+03  0.26299913568E+03 0.  0.
         25    1    4    4    0    0  0.17664411103E+02 -0.13219552873E+02 -0.38060805183E+02  0.13260060705E+03  0.12509000000E+03 0.  0.
         25    1    3    3    0    0 -0.50255907141E+02 -0.54039410694E+02 -0.57715860126E+02  0.15628353311E+03  0.12509000000E+03 0.  0.
         25    1    4    4    0    0  0.32591496038E+02  0.67258963568E+02 -0.60858568737E+02  0.15791531681E+03  0.12509000000E+03 0.  0.
<mgrwt>
<rscale>  2 0.41844373E+03</rscale>
<asrwt>0</asrwt>
<pdfrwt beam="1">  1       21 0.21335605E-01 0.41844373E+03</pdfrwt>
<pdfrwt beam="2">  1       21 0.44370198E-01 0.41844373E+03</pdfrwt>
<totfact> 0.93524290E+04</totfact>
</mgrwt>
</event>
<event>
 7    0  0.4725730E-002  0.4457833E+03  0.7546771E-02  0.1028987E+00
         21   -1    0    0  502  501  0.00000000000E+00  0.00000000000E+00  0.35132700844E+03  0.35132700844E+03  0.00000000000E+00 0. -1.
         21   -1    0    0  501  502 -0.00000000000E+00 -0.00000000000E+00 -0.14140869868E+03  0.14140869868E+03  0.00000000000E+00 0. -1.
      99926    2    1    2    0    0  0.00000000000E+00  0.00000000000E+00  0.20991830977E+03  0.49273570712E+03  0.44578333336E+03 0.  0.
      99925    2    3    3    0    0 -0.95763666726E+02 -0.32023738798E+02  0.16197583807E+03  0.32497937072E+03  0.26301942811E+03 0.  0.
         25    1    4    4    0    0 -0.89392557032E+02 -0.15445017929E+02  0.76368957339E+02  0.17236386970E+03  0.12509000000E+03 0.  0.
         25    1    4    4    0    0 -0.63711096943E+01 -0.16578720869E+02  0.85606880727E+02  0.15261550102E+03  0.12509000000E+03 0.  0.
         25    1    3    3    0    0  0.95763666726E+02  0.32023738798E+02  0.47942471701E+02  0.16775633641E+03  0.12509000000E+03 0.  0.
<mgrwt>
<rscale>  2 0.44578333E+03</rscale>
<asrwt>0</asrwt>
<pdfrwt beam="1">  1       21 0.51665736E-01 0.44578333E+03</pdfrwt>
<pdfrwt beam="2">  1       21 0.20795397E-01 0.44578333E+03</pdfrwt>
<totfact> 0.70825864E+04</totfact>
</mgrwt>
</event>
<event>
 7    0  0.4725730E-002  0.4547146E+03  0.7546771E-02  0.1026325E+00
         21   -1    0    0  502  501  0.00000000000E+00  0.00000000000E+00  0.70778783519E+02  0.70778783519E+02  0.00000000000E+00 0. -1.
         21   -1    0    0  501  502 -0.00000000000E+00 -0.00000000000E+00 -0.73032259448E+03  0.73032259448E+03  0.00000000000E+00 0. -1.
      99926    2    1    2    0    0  0.14210854715E-13  0.00000000000E+00 -0.65954381096E+03  0.80110137800E+03  0.45471461298E+03 0.  0.
      99925    2    3    3    0    0 -0.84573898496E+02  0.69372677497E+02 -0.36625130380E+03  0.46400596785E+03  0.26305172110E+03 0.  0.
         25    1    4    4    0    0 -0.83565052136E+02  0.30394313755E+02 -0.20960171614E+03  0.25978321685E+03  0.12509000000E+03 0.  0.
         25    1    4    4    0    0 -0.10088463598E+01  0.38978363742E+02 -0.15664958766E+03  0.20422275100E+03  0.12509000000E+03 0.  0.
         25    1    3    3    0    0  0.84573898496E+02 -0.69372677497E+02 -0.29329250716E+03  0.33709541015E+03  0.12509000000E+03 0.  0.
<mgrwt>
<rscale>  2 0.45471461E+03</rscale>
<asrwt>0</asrwt>
<pdfrwt beam="1">  1       21 0.10408645E-01 0.45471461E+03</pdfrwt>
<pdfrwt beam="2">  1       21 0.10740038E+00 0.45471461E+03</pdfrwt>
<totfact> 0.47818589E+04</totfact>
</mgrwt>
</event>
<event>
 7    0  0.4725730E-002  0.4560459E+03  0.7546771E-02  0.1025934E+00
         21   -1    0    0  502  501  0.00000000000E+00  0.00000000000E+00  0.57090872185E+03  0.57090872185E+03  0.00000000000E+00 0. -1.
         21   -1    0    0  501  502 -0.00000000000E+00 -0.00000000000E+00 -0.91073168862E+02  0.91073168862E+02  0.00000000000E+00 0. -1.
      99926    2    1    2    0    0  0.00000000000E+00  0.17763568394E-14  0.47983555299E+03  0.66198189071E+03  0.45604590308E+03 0.  0.
      99925    2    3    3    0    0  0.32920587460E+02  0.14758181998E+02  0.45893612208E+03  0.53012642694E+03  0.26288799017E+03 0.  0.
         25    1    4    4    0    0  0.26888756829E+01  0.45333316780E+02  0.23006524607E+03  0.26578161188E+03  0.12509000000E+03 0.  0.
         25    1    3    3    0    0 -0.32920587460E+02 -0.14758181998E+02  0.20899430908E+02  0.13185546377E+03  0.12509000000E+03 0.  0.
         25    1    4    4    0    0  0.30231711777E+02 -0.30575134782E+02  0.22887087601E+03  0.26434481506E+03  0.12509000000E+03 0.  0.
<mgrwt>
<rscale>  2 0.45604590E+03</rscale>
<asrwt>0</asrwt>
<pdfrwt beam="1">  1       21 0.83957163E-01 0.45604590E+03</pdfrwt>
<pdfrwt beam="2">  1       21 0.13393113E-01 0.45604590E+03</pdfrwt>
<totfact> 0.54564413E+04</totfact>
</mgrwt>
</event>
<event>
 7    0  0.4725730E-002  0.4536804E+03  0.7546771E-02  0.1026630E+00
         21   -1    0    0  502  501  0.00000000000E+00  0.00000000000E+00  0.13002458627E+04  0.13002458627E+04  0.00000000000E+00 0. -1.
         21   -1    0    0  501  502 -0.00000000000E+00 -0.00000000000E+00 -0.39574421847E+02  0.39574421847E+02  0.00000000000E+00 0. -1.
      99926    2    1    2    0    0  0.00000000000E+00  0.00000000000E+00  0.12606714408E+04  0.13398202845E+04  0.45368040854E+03 0.  0.
      99925    2    3    3    0    0 -0.55251322635E+02 -0.71119873762E+02  0.59800600710E+03  0.65946469349E+03  0.26300523251E+03 0.  0.
         25    1    4    4    0    0 -0.67012198994E+02 -0.50393608718E+02  0.33119418222E+03  0.36382309582E+03  0.12509000000E+03 0.  0.
         25    1    4    4    0    0  0.11760876359E+02 -0.20726265044E+02  0.26681182488E+03  0.29564159767E+03  0.12509000000E+03 0.  0.
         25    1    3    3    0    0  0.55251322635E+02  0.71119873762E+02  0.66266543371E+03  0.68035559102E+03  0.12509000000E+03 0.  0.
<mgrwt>
<rscale>  2 0.45368041E+03</rscale>
<asrwt>0</asrwt>
<pdfrwt beam="1">  1       21 0.19121260E+00 0.45368041E+03</pdfrwt>
<pdfrwt beam="2">  1       21 0.58197688E-02 0.45368041E+03</pdfrwt>
<totfact> 0.28268785E+04</totfact>
</mgrwt>
</event>
<event>
 7    0  0.4725730E-002  0.4414100E+03  0.7546771E-02  0.1030315E+00
         21   -1    0    0  502  501  0.00000000000E+00  0.00000000000E+00  0.35144119375E+03  0.35144119375E+03  0.00000000000E+00 0. -1.
         21   -1    0    0  501  502 -0.00000000000E+00 -0.00000000000E+00 -0.13860271814E+03  0.13860271814E+03  0.00000000000E+00 0. -1.
      99926    2    1    2    0    0  0.00000000000E+00  0.71054273576E-14  0.21283847561E+03  0.49004391189E+03  0.44141003487E+03 0.  0.
      99925    2    3    3    0    0 -0.86822354521E+02  0.47893870692E+02  0.14898592439E+03  0.31812358007E+03  0.26300924402E+03 0.  0.
         25    1    3    3    0    0  0.86822354521E+02 -0.47893870692E+02  0.63852551224E+02  0.17192033182E+03  0.12509000000E+03 0.  0.
         25    1    4    4    0    0 -0.68846888410E+02  0.33672288711E+02  0.11523507058E+03  0.18654851021E+03  0.12509000000E+03 0.  0.
         25    1    4    4    0    0 -0.17975466111E+02  0.14221581981E+02  0.33750853806E+02  0.13157506986E+03  0.12509000000E+03 0.  0.
<mgrwt>
<rscale>  2 0.44141003E+03</rscale>
<asrwt>0</asrwt>
<pdfrwt beam="1">  1       21 0.51682528E-01 0.44141003E+03</pdfrwt>
<pdfrwt beam="2">  1       21 0.20382753E-01 0.44141003E+03</pdfrwt>
<totfact> 0.73601298E+04</totfact>
</mgrwt>
</event>
<event>
 6    0  0.4725730E-002  0.4550913E+03  0.7546771E-02  0.1026215E+00
         21   -1    0    0  502  501  0.00000000000E+00  0.00000000000E+00  0.42247007835E+03  0.42247007835E+03  0.00000000000E+00 0. -1.
         21   -1    0    0  501  502 -0.00000000000E+00 -0.00000000000E+00 -0.12255786093E+03  0.12255786093E+03  0.00000000000E+00 0. -1.
      99926    2    1    2    0    0  0.17763568394E-14  0.00000000000E+00  0.29991221742E+03  0.54502793928E+03  0.45509132758E+03 0.  0.
         25    1    3    3    0    0 -0.15355628719E+02  0.79236943860E+02  0.19710106168E+03  0.24700328990E+03  0.12509000000E+03 0.  0.
         25    1    3    3    0    0 -0.21915400032E+02 -0.63649816747E+02  0.84547906575E+02  0.16531013440E+03  0.12509000000E+03 0.  0.
         25    1    3    3    0    0  0.37271028751E+02 -0.15587127113E+02  0.18263249165E+02  0.13271451498E+03  0.12509000000E+03 0.  0.
<mgrwt>
<rscale>  2 0.45509133E+03</rscale>
<asrwt>0</asrwt>
<pdfrwt beam="1">  1       21 0.62127952E-01 0.45509133E+03</pdfrwt>
<pdfrwt beam="2">  1       21 0.18023215E-01 0.45509133E+03</pdfrwt>
<totfact> 0.62151344E+04</totfact>
</mgrwt>
</event>
<event>
 7    0  0.4725730E-002  0.4531708E+03  0.7546771E-02  0.1026781E+00
         21   -1    0    0  502  501  0.00000000000E+00  0.00000000000E+00  0.23183820878E+04  0.23183820878E+04  0.00000000000E+00 0.  1.
         21   -1    0    0  501  502 -0.00000000000E+00 -0.00000000000E+00 -0.22145164807E+02  0.22145164807E+02  0.00000000000E+00 0.  1.
      99926    2    1    2    0    0  0.35527136788E-14  0.00000000000E+00  0.22962369230E+04  0.23405272526E+04  0.45317084381E+03 0.  0.
      99925    2    3    3    0    0 -0.19543350194E+02  0.10839488755E+03  0.13579434212E+04  0.13875458268E+04  0.26294807912E+03 0.  0.
         25    1    3    3    0    0  0.19543350194E+02 -0.10839488755E+03  0.93829350182E+03  0.95298142576E+03  0.12509000000E+03 0.  0.
         25    1    4    4    0    0  0.11251673502E+02  0.76905457602E+02  0.84491784127E+03  0.85765652575E+03  0.12509000000E+03 0.  0.
         25    1    4    4    0    0 -0.30795023696E+02  0.31489429945E+02  0.51302557989E+03  0.52988930108E+03  0.12509000000E+03 0.  0.
<mgrwt>
<rscale>  2 0.45317084E+03</rscale>
<asrwt>0</asrwt>
<pdfrwt beam="1">  1       21 0.34093838E+00 0.45317084E+03</pdfrwt>
<pdfrwt beam="2">  1       21 0.32566435E-02 0.45317084E+03</pdfrwt>
<totfact> 0.90320434E+03</totfact>
</mgrwt>
</event>
<event>
 7    0  0.4725730E-002  0.4579324E+03  0.7546771E-02  0.1025383E+00
         21   -1    0    0  502  501  0.00000000000E+00  0.00000000000E+00  0.59316230040E+02  0.59316230040E+02  0.00000000000E+00 0.  1.
         21   -1    0    0  501  502 -0.00000000000E+00 -0.00000000000E+00 -0.88383085520E+03  0.88383085520E+03  0.00000000000E+00 0.  1.
      99926    2    1    2    0    0  0.35527136788E-14  0.00000000000E+00 -0.82451462516E+03  0.94314708524E+03  0.45793237197E+03 0.  0.
      99925    2    3    3    0    0 -0.21134066437E+02  0.98710811013E+02 -0.40017032137E+03  0.48937834542E+03  0.26299126581E+03 0.  0.
         25    1    3    3    0    0  0.21134066437E+02 -0.98710811013E+02 -0.42434430379E+03  0.45376873982E+03  0.12509000000E+03 0.  0.
         25    1    4    4    0    0 -0.50247246713E+02  0.59384898599E+02 -0.20364480616E+03  0.25133656153E+03  0.12509000000E+03 0.  0.
         25    1    4    4    0    0  0.29113180276E+02  0.39325912414E+02 -0.19652551521E+03  0.23804178390E+03  0.12509000000E+03 0.  0.
<mgrwt>
<rscale>  2 0.45793237E+03</rscale>
<asrwt>0</asrwt>
<pdfrwt beam="1">  1       21 0.87229750E-02 0.45793237E+03</pdfrwt>
<pdfrwt beam="2">  1       21 0.12997513E+00 0.45793237E+03</pdfrwt>
<totfact> 0.40483165E+04</totfact>
</mgrwt>
</event>
<event>
 7    0  0.4725730E-002  0.4768234E+03  0.7546771E-02  0.1020012E+00
         21   -1    0    0  502  501  0.00000000000E+00  0.00000000000E+00  0.13135090410E+03  0.13135090410E+03  0.00000000000E+00 0. -1.
         21   -1    0    0  501  502 -0.00000000000E+00 -0.00000000000E+00 -0.43273497011E+03  0.43273497011E+03  0.00000000000E+00 0. -1.
      99926    2    1    2    0    0  0.14210854715E-13  0.00000000000E+00 -0.30138406601E+03  0.56408587421E+03  0.47682336167E+03 0.  0.
      99925    2    3    3    0    0 -0.11258525035E+03  0.22718892980E+02 -0.26625473668E+03  0.39066971413E+03  0.26180079076E+03 0.  0.
         25    1    4    4    0    0 -0.54116930395E+02  0.12663034479E+02 -0.18502425254E+03  0.23015315928E+03  0.12509000000E+03 0.  0.
         25    1    4    4    0    0 -0.58468319960E+02  0.10055858500E+02 -0.81230484139E+02  0.16051655486E+03  0.12509000000E+03 0.  0.
         25    1    3    3    0    0  0.11258525035E+03 -0.22718892980E+02 -0.35129329331E+02  0.17341616007E+03  0.12509000000E+03 0.  0.
<mgrwt>
<rscale>  2 0.47682336E+03</rscale>
<asrwt>0</asrwt>
<pdfrwt beam="1">  1       21 0.19316309E-01 0.47682336E+03</pdfrwt>
<pdfrwt beam="2">  1       21 0.63637497E-01 0.47682336E+03</pdfrwt>
<totfact> 0.51466224E+04</totfact>
</mgrwt>
</event>
<event>
 7    0  0.4725730E-002  0.4465379E+03  0.7546771E-02  0.1028760E+00
         21   -1    0    0  502  501  0.00000000000E+00  0.00000000000E+00  0.17328480546E+03  0.17328480546E+03  0.00000000000E+00 0. -1.
         21   -1    0    0  501  502 -0.00000000000E+00 -0.00000000000E+00 -0.28767102723E+03  0.28767102723E+03  0.00000000000E+00 0. -1.
      99926    2    1    2    0    0  0.88817841970E-15  0.22204460493E-15 -0.11438622177E+03  0.46095583269E+03  0.44653787293E+03 0.  0.
      99925    2    3    3    0    0  0.72659438359E+01  0.14072943015E+01  0.35760603248E+02  0.26538908813E+03  0.26286455245E+03 0.  0.
         25    1    4    4    0    0 -0.34090137415E+02  0.47858864324E+01  0.31589296773E+02  0.13353064797E+03  0.12509000000E+03 0.  0.
         25    1    3    3    0    0 -0.72659438359E+01 -0.14072943015E+01 -0.15014682502E+03  0.19556674457E+03  0.12509000000E+03 0.  0.
         25    1    4    4    0    0  0.41356081251E+02 -0.33785921310E+01  0.41713064749E+01  0.13185844015E+03  0.12509000000E+03 0.  0.
<mgrwt>
<rscale>  2 0.44653787E+03</rscale>
<asrwt>0</asrwt>
<pdfrwt beam="1">  1       21 0.25483060E-01 0.44653787E+03</pdfrwt>
<pdfrwt beam="2">  1       21 0.42304563E-01 0.44653787E+03</pdfrwt>
<totfact> 0.72885302E+04</totfact>
</mgrwt>
</event>
<event>
 7    0  0.4725730E-002  0.4517106E+03  0.7546771E-02  0.1027213E+00
         21   -1    0    0  502  501  0.00000000000E+00  0.00000000000E+00  0.11890230397E+04  0.11890230397E+04  0.00000000000E+00 0. -1.
         21   -1    0    0  501  502 -0.00000000000E+00 -0.00000000000E+00 -0.42901292215E+02  0.42901292215E+02  0.00000000000E+00 0. -1.
      99926    2    1    2    0    0  0.00000000000E+00  0.00000000000E+00  0.11461217475E+04  0.12319243319E+04  0.45171063692E+03 0.  0.
      99925    2    3    3    0    0  0.10189716295E+03  0.79235337783E+01  0.83484579268E+03  0.88123067308E+03  0.26297183770E+03 0.  0.
         25    1    4    4    0    0  0.13308474361E+02  0.11673598511E+02  0.43574809352E+03  0.45369295509E+03  0.12509000000E+03 0.  0.
         25    1    4    4    0    0  0.88588688588E+02 -0.37500647330E+01  0.39909769917E+03  0.42753771800E+03  0.12509000000E+03 0.  0.
         25    1    3    3    0    0 -0.10189716295E+03 -0.79235337783E+01  0.31127595479E+03  0.35069365882E+03  0.12509000000E+03 0.  0.
<mgrwt>
<rscale>  2 0.45171064E+03</rscale>
<asrwt>0</asrwt>
<pdfrwt beam="1">  1       21 0.17485631E+00 0.45171064E+03</pdfrwt>
<pdfrwt beam="2">  1       21 0.63090143E-02 0.45171064E+03</pdfrwt>
<totfact> 0.31968512E+04</totfact>
</mgrwt>
</event>
<event>
 7    0  0.4725730E-002  0.4607121E+03  0.7546771E-02  0.1024575E+00
         21   -1    0    0  502  501  0.00000000000E+00  0.00000000000E+00  0.17595547811E+03  0.17595547811E+03  0.00000000000E+00 0. -1.
         21   -1    0    0  501  502 -0.00000000000E+00 -0.00000000000E+00 -0.30157578427E+03  0.30157578427E+03  0.00000000000E+00 0. -1.
      99926    2    1    2    0    0  0.00000000000E+00  0.71054273576E-14 -0.12562030616E+03  0.47753126237E+03  0.46071210666E+03 0.  0.
      99925    2    3    3    0    0 -0.94979144413E+02  0.55862620995E+02 -0.12344067292E+03  0.31081614848E+03  0.26311101864E+03 0.  0.
         25    1    3    3    0    0  0.94979144413E+02 -0.55862620995E+02 -0.21796332409E+01  0.16671511389E+03  0.12509000000E+03 0.  0.
         25    1    4    4    0    0 -0.29387534024E+02  0.22112042051E+02 -0.18596240673E+02  0.13170382617E+03  0.12509000000E+03 0.  0.
         25    1    4    4    0    0 -0.65591610389E+02  0.33750578944E+02 -0.10484443225E+03  0.17911232232E+03  0.12509000000E+03 0.  0.
<mgrwt>
<rscale>  2 0.46071211E+03</rscale>
<asrwt>0</asrwt>
<pdfrwt beam="1">  1       21 0.25875806E-01 0.46071211E+03</pdfrwt>
<pdfrwt beam="2">  1       21 0.44349379E-01 0.46071211E+03</pdfrwt>
<totfact> 0.63932800E+04</totfact>
</mgrwt>
</event>
<event>
 7    0  0.4725730E-002  0.4498732E+03  0.7546771E-02  0.1027760E+00
         21   -1    0    0  502  501  0.00000000000E+00  0.00000000000E+00  0.37756664384E+03  0.37756664384E+03  0.00000000000E+00 0.  1.
         21   -1    0    0  501  502 -0.00000000000E+00 -0.00000000000E+00 -0.13400675765E+03  0.13400675765E+03  0.00000000000E+00 0.  1.
      99926    2    1    2    0    0  0.17763568394E-14 -0.71054273576E-14  0.24355988619E+03  0.51157340150E+03  0.44987323432E+03 0.  0.
      99925    2    3    3    0    0 -0.81100463407E+01  0.49429477446E+02  0.44902673729E+02  0.27152915088E+03  0.26306421949E+03 0.  0.
         25    1    3    3    0    0  0.81100463407E+01 -0.49429477446E+02  0.19865721246E+03  0.24004425062E+03  0.12509000000E+03 0.  0.
         25    1    4    4    0    0 -0.53860130688E+01  0.42373987563E+02  0.60266246330E+02  0.14527247677E+03  0.12509000000E+03 0.  0.
         25    1    4    4    0    0 -0.27240332719E+01  0.70554898825E+01 -0.15363572601E+02  0.12625667411E+03  0.12509000000E+03 0.  0.
<mgrwt>
<rscale>  2 0.44987323E+03</rscale>
<asrwt>0</asrwt>
<pdfrwt beam="1">  1       21 0.55524506E-01 0.44987323E+03</pdfrwt>
<pdfrwt beam="2">  1       21 0.19706876E-01 0.44987323E+03</pdfrwt>
<totfact> 0.67155723E+04</totfact>
</mgrwt>
</event>
<event>
 7    0  0.4725730E-002  0.4526478E+03  0.7546771E-02  0.1026935E+00
         21   -1    0    0  502  501  0.00000000000E+00  0.00000000000E+00  0.19307682478E+02  0.19307682478E+02  0.00000000000E+00 0.  1.
         21   -1    0    0  501  502 -0.00000000000E+00 -0.00000000000E+00 -0.26529598507E+04  0.26529598507E+04  0.00000000000E+00 0.  1.
      99926    2    1    2    0    0 -0.14210854715E-13 -0.71054273576E-14 -0.26336521682E+04  0.26722675332E+04  0.45264779432E+03 0.  0.
      99925    2    3    3    0    0 -0.66551133023E+02 -0.46923347514E+02 -0.12163351909E+04  0.12471128833E+04  0.26303686653E+03 0.  0.
         25    1    3    3    0    0  0.66551133023E+02  0.46923347514E+02 -0.14173169773E+04  0.14251546499E+04  0.12509000000E+03 0.  0.
         25    1    4    4    0    0 -0.11989008677E+02 -0.35009155937E+02 -0.74250859696E+03  0.75388056215E+03  0.12509000000E+03 0.  0.
         25    1    4    4    0    0 -0.54562124346E+02 -0.11914191578E+02 -0.47382659396E+03  0.49323232114E+03  0.12509000000E+03 0.  0.
<mgrwt>
<rscale>  2 0.45264779E+03</rscale>
<asrwt>0</asrwt>
<pdfrwt beam="1">  1       21 0.28393667E-02 0.45264779E+03</pdfrwt>
<pdfrwt beam="2">  1       21 0.39014093E+00 0.45264779E+03</pdfrwt>
<totfact> 0.56272634E+03</totfact>
</mgrwt>
</event>
<event>
 7    0  0.4725730E-002  0.4557347E+03  0.7546771E-02  0.1026026E+00
         21   -1    0    0  502  501  0.00000000000E+00  0.00000000000E+00  0.46103440497E+03  0.46103440497E+03  0.00000000000E+00 0. -1.
         21   -1    0    0  501  502 -0.00000000000E+00 -0.00000000000E+00 -0.11262400086E+03  0.11262400086E+03  0.00000000000E+00 0. -1.
      99926    2    1    2    0    0 -0.71054273576E-14  0.35527136788E-14  0.34841040412E+03  0.57365840583E+03  0.45573474399E+03 0.  0.
      99925    2    3    3    0    0  0.59455940078E+02 -0.29582895696E+02  0.33549351281E+03  0.43144549956E+03  0.26301932519E+03 0.  0.
         25    1    4    4    0    0  0.63889259203E+02  0.42946528878E+01  0.15526546570E+03  0.20941622293E+03  0.12509000000E+03 0.  0.
         25    1    3    3    0    0 -0.59455940078E+02  0.29582895696E+02  0.12916891303E+02  0.14221290627E+03  0.12509000000E+03 0.  0.
         25    1    4    4    0    0 -0.44333191256E+01 -0.33877548584E+02  0.18022804711E+03  0.22202927663E+03  0.12509000000E+03 0.  0.
<mgrwt>
<rscale>  2 0.45573474E+03</rscale>
<asrwt>0</asrwt>
<pdfrwt beam="1">  1       21 0.67799176E-01 0.45573474E+03</pdfrwt>
<pdfrwt beam="2">  1       21 0.16562353E-01 0.45573474E+03</pdfrwt>
<totfact> 0.59980456E+04</totfact>
</mgrwt>
</event>
<event>
 7    0  0.4725730E-002  0.4416399E+03  0.7546771E-02  0.1030245E+00
         21   -1    0    0  502  501  0.00000000000E+00  0.00000000000E+00  0.64616356039E+02  0.64616356039E+02  0.00000000000E+00 0. -1.
         21   -1    0    0  501  502 -0.00000000000E+00 -0.00000000000E+00 -0.75463004776E+03  0.75463004776E+03  0.00000000000E+00 0. -1.
      99926    2    1    2    0    0  0.00000000000E+00  0.00000000000E+00 -0.69001369172E+03  0.81924640380E+03  0.44163987068E+03 0.  0.
      99925    2    3    3    0    0  0.75020147631E+02  0.66362971585E+02 -0.43627080111E+03  0.51913804140E+03  0.26294491358E+03 0.  0.
         25    1    4    4    0    0  0.63323833069E+01  0.51412079627E+02 -0.17743619676E+03  0.22319142688E+03  0.12509000000E+03 0.  0.
         25    1    3    3    0    0 -0.75020147631E+02 -0.66362971585E+02 -0.25374289061E+03  0.30010836240E+03  0.12509000000E+03 0.  0.
         25    1    4    4    0    0  0.68687764324E+02  0.14950891958E+02 -0.25883460434E+03  0.29594661452E+03  0.12509000000E+03 0.  0.
<mgrwt>
<rscale>  2 0.44163987E+03</rscale>
<asrwt>0</asrwt>
<pdfrwt beam="1">  1       21 0.95024055E-02 0.44163987E+03</pdfrwt>
<pdfrwt beam="2">  1       21 0.11097501E+00 0.44163987E+03</pdfrwt>
<totfact> 0.52098613E+04</totfact>
</mgrwt>
</event>
<event>
 7    0  0.4725730E-002  0.4534875E+03  0.7546771E-02  0.1026687E+00
         21   -1    0    0  502  501  0.00000000000E+00  0.00000000000E+00  0.18375903944E+03  0.18375903944E+03  0.00000000000E+00 0.  1.
         21   -1    0    0  501  502 -0.00000000000E+00 -0.00000000000E+00 -0.27978338431E+03  0.27978338431E+03  0.00000000000E+00 0.  1.
      99926    2    1    2    0    0  0.00000000000E+00  0.00000000000E+00 -0.96024344866E+02  0.46354242375E+03  0.45348749025E+03 0.  0.
      99925    2    3    3    0    0  0.37904470136E+02 -0.73108195354E+02  0.16721326407E+02  0.27608402417E+03  0.26298522498E+03 0.  0.
         25    1    4    4    0    0  0.53477984364E+02 -0.50260118424E+02  0.27157443034E+02  0.14755002246E+03  0.12509000000E+03 0.  0.
         25    1    3    3    0    0 -0.37904470136E+02  0.73108195354E+02 -0.11274567127E+03  0.18745839959E+03  0.12509000000E+03 0.  0.
         25    1    4    4    0    0 -0.15573514228E+02 -0.22848076930E+02 -0.10436116627E+02  0.12853400171E+03  0.12509000000E+03 0.  0.
<mgrwt>
<rscale>  2 0.45348749E+03</rscale>
<asrwt>0</asrwt>
<pdfrwt beam="1">  1       21 0.27023389E-01 0.45348749E+03</pdfrwt>
<pdfrwt beam="2">  1       21 0.41144615E-01 0.45348749E+03</pdfrwt>
<totfact> 0.68740708E+04</totfact>
</mgrwt>
</event>
<event>
 7    0  0.4725730E-002  0.4569714E+03  0.7546771E-02  0.1025663E+00
         21   -1    0    0  502  501  0.00000000000E+00  0.00000000000E+00  0.39416699735E+03  0.39416699735E+03  0.00000000000E+00 0. -1.
         21   -1    0    0  501  502 -0.00000000000E+00 -0.00000000000E+00 -0.13244568168E+03  0.13244568168E+03  0.00000000000E+00 0. -1.
      99926    2    1    2    0    0  0.00000000000E+00  0.00000000000E+00  0.26172131567E+03  0.52661267903E+03  0.45697140680E+03 0.  0.
      99925    2    3    3    0    0 -0.10515827039E+03 -0.33674097147E+02  0.20161683860E+03  0.34926482053E+03  0.26295314906E+03 0.  0.
         25    1    3    3    0    0  0.10515827039E+03  0.33674097147E+02  0.60104477074E+02  0.17734785850E+03  0.12509000000E+03 0.  0.
         25    1    4    4    0    0 -0.34786074362E+02 -0.41541061963E+02  0.13120664688E+03  0.18920471211E+03  0.12509000000E+03 0.  0.
         25    1    4    4    0    0 -0.70372196029E+02  0.78669648160E+01  0.70410191714E+02  0.16006010842E+03  0.12509000000E+03 0.  0.
<mgrwt>
<rscale>  2 0.45697141E+03</rscale>
<asrwt>0</asrwt>
<pdfrwt beam="1">  1       21 0.57965734E-01 0.45697141E+03</pdfrwt>
<pdfrwt beam="2">  1       21 0.19477306E-01 0.45697141E+03</pdfrwt>
<totfact> 0.62454670E+04</totfact>
</mgrwt>
</event>
<event>
 7    0  0.4725730E-002  0.4512399E+03  0.7546771E-02  0.1027353E+00
         21   -1    0    0  502  501  0.00000000000E+00  0.00000000000E+00  0.12571933243E+03  0.12571933243E+03  0.00000000000E+00 0. -1.
         21   -1    0    0  501  502 -0.00000000000E+00 -0.00000000000E+00 -0.40490482829E+03  0.40490482829E+03  0.00000000000E+00 0. -1.
      99926    2    1    2    0    0  0.00000000000E+00 -0.35527136788E-14 -0.27918549586E+03  0.53062416071E+03  0.45123991272E+03 0.  0.
      99925    2    3    3    0    0 -0.34485133667E+02  0.15459074382E+02 -0.55347922897E+02  0.27143508958E+03  0.26303119180E+03 0.  0.
         25    1    4    4    0    0 -0.29777178615E+02  0.46026855825E+02 -0.34929100801E+02  0.14097057142E+03  0.12509000000E+03 0.  0.
         25    1    4    4    0    0 -0.47079550521E+01 -0.30567781443E+02 -0.20418822096E+02  0.13046451816E+03  0.12509000000E+03 0.  0.
         25    1    3    3    0    0  0.34485133667E+02 -0.15459074382E+02 -0.22383757296E+03  0.25918907113E+03  0.12509000000E+03 0.  0.
<mgrwt>
<rscale>  2 0.45123991E+03</rscale>
<asrwt>0</asrwt>
<pdfrwt beam="1">  1       21 0.18488138E-01 0.45123991E+03</pdfrwt>
<pdfrwt beam="2">  1       21 0.59544826E-01 0.45123991E+03</pdfrwt>
<totfact> 0.65080867E+04</totfact>
</mgrwt>
</event>
<event>
 7    0  0.4725730E-002  0.4427915E+03  0.7546771E-02  0.1029894E+00
         21   -1    0    0  502  501  0.00000000000E+00  0.00000000000E+00  0.98619259058E+02  0.98619259058E+02  0.00000000000E+00 0. -1.
         21   -1    0    0  501  502 -0.00000000000E+00 -0.00000000000E+00 -0.49702343538E+03  0.49702343538E+03  0.00000000000E+00 0. -1.
      99926    2    1    2    0    0  0.00000000000E+00  0.17763568394E-14 -0.39840417633E+03  0.59564269444E+03  0.44279152174E+03 0.  0.
      99925    2    3    3    0    0 -0.85424265501E+02 -0.67820110686E+01 -0.18232680377E+03  0.33167254492E+03  0.26347734792E+03 0.  0.
         25    1    3    3    0    0  0.85424265501E+02  0.67820110686E+01 -0.21607737256E+03  0.26397014953E+03  0.12509000000E+03 0.  0.
         25    1    4    4    0    0 -0.47577884055E+02  0.26499544943E+02 -0.58000090860E+02  0.14824776414E+03  0.12509000000E+03 0.  0.
         25    1    4    4    0    0 -0.37846381446E+02 -0.33281556011E+02 -0.12432671291E+03  0.18342478077E+03  0.12509000000E+03 0.  0.
<mgrwt>
<rscale>  2 0.44279152E+03</rscale>
<asrwt>0</asrwt>
<pdfrwt beam="1">  1       21 0.14502832E-01 0.44279152E+03</pdfrwt>
<pdfrwt beam="2">  1       21 0.73091683E-01 0.44279152E+03</pdfrwt>
<totfact> 0.64993904E+04</totfact>
</mgrwt>
</event>
<event>
 7    0  0.4725730E-002  0.4525946E+03  0.7546771E-02  0.1026951E+00
         21   -1    0    0  502  501  0.00000000000E+00  0.00000000000E+00  0.24336625277E+03  0.24336625277E+03  0.00000000000E+00 0.  1.
         21   -1    0    0  501  502 -0.00000000000E+00 -0.00000000000E+00 -0.21042550400E+03  0.21042550400E+03  0.00000000000E+00 0.  1.
      99926    2    1    2    0    0  0.88817841970E-15 -0.28421709430E-13  0.32940748769E+02  0.45379175676E+03  0.45259459296E+03 0.  0.
      99925    2    3    3    0    0  0.25703164167E+01  0.10468184635E+03 -0.15487868702E+02  0.28362203392E+03  0.26312865402E+03 0.  0.
         25    1    4    4    0    0 -0.20884437715E+02  0.17930137979E+02  0.53512665814E+01  0.12819435924E+03  0.12509000000E+03 0.  0.
         25    1    4    4    0    0  0.23454754132E+02  0.86751708375E+02 -0.20839135284E+02  0.15542767468E+03  0.12509000000E+03 0.  0.
         25    1    3    3    0    0 -0.25703164167E+01 -0.10468184635E+03  0.48428617472E+02  0.17016972284E+03  0.12509000000E+03 0.  0.
<mgrwt>
<rscale>  2 0.45259459E+03</rscale>
<asrwt>0</asrwt>
<pdfrwt beam="1">  1       21 0.35789155E-01 0.45259459E+03</pdfrwt>
<pdfrwt beam="2">  1       21 0.30944927E-01 0.45259459E+03</pdfrwt>
<totfact> 0.69967651E+04</totfact>
</mgrwt>
</event>
<event>
 7    0  0.4725730E-002  0.4464392E+03  0.7546771E-02  0.1028789E+00
         21   -1    0    0  502  501  0.00000000000E+00  0.00000000000E+00  0.43455418666E+03  0.43455418666E+03  0.00000000000E+00 0. -1.
         21   -1    0    0  501  502 -0.00000000000E+00 -0.00000000000E+00 -0.11466233786E+03  0.11466233786E+03  0.00000000000E+00 0. -1.
      99926    2    1    2    0    0  0.35527136788E-14  0.00000000000E+00  0.31989184880E+03  0.54921652452E+03  0.44643924096E+03 0.  0.
      99925    2    3    3    0    0 -0.12514630156E+02 -0.10352001361E+03  0.19047496427E+03  0.34120391123E+03  0.26318508285E+03 0.  0.
         25    1    4    4    0    0  0.20340270748E+02 -0.74329161332E+02  0.72984299943E+02  0.16405111087E+03  0.12509000000E+03 0.  0.
         25    1    3    3    0    0  0.12514630156E+02  0.10352001361E+03  0.12941688453E+03  0.20801261329E+03  0.12509000000E+03 0.  0.
         25    1    4    4    0    0 -0.32854900903E+02 -0.29190852283E+02  0.11749066433E+03  0.17715280036E+03  0.12509000000E+03 0.  0.
<mgrwt>
<rscale>  2 0.44643924E+03</rscale>
<asrwt>0</asrwt>
<pdfrwt beam="1">  1       21 0.63905027E-01 0.44643924E+03</pdfrwt>
<pdfrwt beam="2">  1       21 0.16862109E-01 0.44643924E+03</pdfrwt>
<totfact> 0.66295872E+04</totfact>
</mgrwt>
</event>
<event>
 7    0  0.4725730E-002  0.4435738E+03  0.7546771E-02  0.1029656E+00
         21   -1    0    0  502  501  0.00000000000E+00  0.00000000000E+00  0.62964753094E+02  0.62964753094E+02  0.00000000000E+00 0.  1.
         21   -1    0    0  501  502 -0.00000000000E+00 -0.00000000000E+00 -0.78122162618E+03  0.78122162618E+03  0.00000000000E+00 0.  1.
      99926    2    1    2    0    0  0.00000000000E+00 -0.14210854715E-13 -0.71825687308E+03  0.84418637927E+03  0.44357379005E+03 0.  0.
      99925    2    3    3    0    0 -0.37402712793E+02 -0.93881153601E+02 -0.42717242978E+03  0.51163518749E+03  0.26283387602E+03 0.  0.
         25    1    4    4    0    0 -0.12533709668E+02 -0.46696625625E+01 -0.18275759464E+03  0.22187101236E+03  0.12509000000E+03 0.  0.
         25    1    4    4    0    0 -0.24869003125E+02 -0.89211491039E+02 -0.24441483514E+03  0.28976417513E+03  0.12509000000E+03 0.  0.
         25    1    3    3    0    0  0.37402712793E+02  0.93881153601E+02 -0.29108444330E+03  0.33255119179E+03  0.12509000000E+03 0.  0.
<mgrwt>
<rscale>  2 0.44357379E+03</rscale>
<asrwt>0</asrwt>
<pdfrwt beam="1">  1       21 0.92595227E-02 0.44357379E+03</pdfrwt>
<pdfrwt beam="2">  1       21 0.11488553E+00 0.44357379E+03</pdfrwt>
<totfact> 0.50037225E+04</totfact>
</mgrwt>
</event>
<event>
 7    0  0.4725730E-002  0.4540984E+03  0.7546771E-02  0.1026507E+00
         21   -1    0    0  502  501  0.00000000000E+00  0.00000000000E+00  0.15329162194E+03  0.15329162194E+03  0.00000000000E+00 0.  1.
         21   -1    0    0  501  502 -0.00000000000E+00 -0.00000000000E+00 -0.33629581537E+03  0.33629581537E+03  0.00000000000E+00 0.  1.
      99926    2    1    2    0    0  0.00000000000E+00  0.00000000000E+00 -0.18300419343E+03  0.48958743730E+03  0.45409836374E+03 0.  0.
      99925    2    3    3    0    0 -0.70958802505E+02  0.86788205218E+02 -0.12272870744E+03  0.31112739548E+03  0.26300299688E+03 0.  0.
         25    1    4    4    0    0 -0.69524241271E+02  0.66627748783E+02 -0.53153043572E+02  0.16657019893E+03  0.12509000000E+03 0.  0.
         25    1    4    4    0    0 -0.14345612348E+01  0.20160456434E+02 -0.69575663868E+02  0.14455719654E+03  0.12509000000E+03 0.  0.
         25    1    3    3    0    0  0.70958802505E+02 -0.86788205218E+02 -0.60275485987E+02  0.17846004183E+03  0.12509000000E+03 0.  0.
<mgrwt>
<rscale>  2 0.45409836E+03</rscale>
<asrwt>0</asrwt>
<pdfrwt beam="1">  1       21 0.22542886E-01 0.45409836E+03</pdfrwt>
<pdfrwt beam="2">  1       21 0.49455265E-01 0.45409836E+03</pdfrwt>
<totfact> 0.66483149E+04</totfact>
</mgrwt>
</event>
<event>
 7    0  0.4725730E-002  0.4525346E+03  0.7546771E-02  0.1026969E+00
         21   -1    0    0  502  501  0.00000000000E+00  0.00000000000E+00  0.22488224040E+03  0.22488224040E+03  0.00000000000E+00 0. -1.
         21   -1    0    0  501  502 -0.00000000000E+00 -0.00000000000E+00 -0.22766088453E+03  0.22766088453E+03  0.00000000000E+00 0. -1.
      99926    2    1    2    0    0  0.71054273576E-14  0.14210854715E-13 -0.27786441233E+01  0.45254312493E+03  0.45253459432E+03 0.  0.
      99925    2    3    3    0    0  0.48686392448E+02  0.98934107046E+02  0.12318513207E+02  0.28511028883E+03  0.26263626688E+03 0.  0.
         25    1    4    4    0    0  0.26989597426E+02  0.47884784178E+02 -0.33724961601E+02  0.14073475782E+03  0.12509000000E+03 0.  0.
         25    1    4    4    0    0  0.21696795023E+02  0.51049322869E+02  0.46043474809E+02  0.14437553100E+03  0.12509000000E+03 0.  0.
         25    1    3    3    0    0 -0.48686392448E+02 -0.98934107046E+02 -0.15097157331E+02  0.16743283611E+03  0.12509000000E+03 0.  0.
<mgrwt>
<rscale>  2 0.45253459E+03</rscale>
<asrwt>0</asrwt>
<pdfrwt beam="1">  1       21 0.33070918E-01 0.45253459E+03</pdfrwt>
<pdfrwt beam="2">  1       21 0.33479542E-01 0.45253459E+03</pdfrwt>
<totfact> 0.70094903E+04</totfact>
</mgrwt>
</event>
<event>
 7    0  0.4725730E-002  0.4555015E+03  0.7546771E-02  0.1026094E+00
         21   -1    0    0  502  501  0.00000000000E+00  0.00000000000E+00  0.30909514386E+03  0.30909514386E+03  0.00000000000E+00 0.  1.
         21   -1    0    0  501  502 -0.00000000000E+00 -0.00000000000E+00 -0.16781372443E+03  0.16781372443E+03  0.00000000000E+00 0.  1.
      99926    2    1    2    0    0  0.00000000000E+00 -0.71054273576E-14  0.14128141943E+03  0.47690886829E+03  0.45550151392E+03 0.  0.
      99925    2    3    3    0    0  0.75543163899E+02 -0.62415808359E+02  0.14908907279E+03  0.31781464999E+03  0.26301349277E+03 0.  0.
         25    1    4    4    0    0  0.37529903962E+01 -0.48321741540E+02  0.54717964722E+02  0.14488146674E+03  0.12509000000E+03 0.  0.
         25    1    3    3    0    0 -0.75543163899E+02  0.62415808359E+02 -0.78076533614E+01  0.15909421830E+03  0.12509000000E+03 0.  0.
         25    1    4    4    0    0  0.71790173503E+02 -0.14094066819E+02  0.94371108067E+02  0.17293318325E+03  0.12509000000E+03 0.  0.
<mgrwt>
<rscale>  2 0.45550151E+03</rscale>
<asrwt>0</asrwt>
<pdfrwt beam="1">  1       21 0.45455169E-01 0.45550151E+03</pdfrwt>
<pdfrwt beam="2">  1       21 0.24678489E-01 0.45550151E+03</pdfrwt>
<totfact> 0.66660087E+04</totfact>
</mgrwt>
</event>
<event>
 7    0  0.4725730E-002  0.4611086E+03  0.7546771E-02  0.1024460E+00
         21   -1    0    0  502  501  0.00000000000E+00  0.00000000000E+00  0.53297016424E+02  0.53297016424E+02  0.00000000000E+00 0. -1.
         21   -1    0    0  501  502 -0.00000000000E+00 -0.00000000000E+00 -0.99734068308E+03  0.99734068308E+03  0.00000000000E+00 0. -1.
      99926    2    1    2    0    0  0.00000000000E+00  0.00000000000E+00 -0.94404366666E+03  0.10506376995E+04  0.46110858923E+03 0.  0.
      99925    2    3    3    0    0  0.45261786733E+01  0.77483373139E+02 -0.79620161352E+03  0.84200179611E+03  0.26268965699E+03 0.  0.
         25    1    4    4    0    0 -0.25664915228E+01  0.78521125754E+02 -0.46467644500E+03  0.48758984885E+03  0.12509000000E+03 0.  0.
         25    1    4    4    0    0  0.70926701962E+01 -0.10377526148E+01 -0.33152516852E+03  0.35441194726E+03  0.12509000000E+03 0.  0.
         25    1    3    3    0    0 -0.45261786733E+01 -0.77483373139E+02 -0.14784205314E+03  0.20863590339E+03  0.12509000000E+03 0.  0.
<mgrwt>
<rscale>  2 0.46110859E+03</rscale>
<asrwt>0</asrwt>
<pdfrwt beam="1">  1       21 0.78377971E-02 0.46110859E+03</pdfrwt>
<pdfrwt beam="2">  1       21 0.14666774E+00 0.46110859E+03</pdfrwt>
<totfact> 0.35529512E+04</totfact>
</mgrwt>
</event>
<event>
 7    0  0.4725730E-002  0.4434375E+03  0.7546771E-02  0.1029697E+00
         21   -1    0    0  502  501  0.00000000000E+00  0.00000000000E+00  0.30282569180E+03  0.30282569180E+03  0.00000000000E+00 0.  1.
         21   -1    0    0  501  502 -0.00000000000E+00 -0.00000000000E+00 -0.16233495928E+03  0.16233495928E+03  0.00000000000E+00 0.  1.
      99926    2    1    2    0    0 -0.71054273576E-14 -0.71054273576E-14  0.14049073252E+03  0.46516065108E+03  0.44343746502E+03 0.  0.
      99925    2    3    3    0    0 -0.52237562393E+02 -0.49643149726E+02  0.16507009431E+03  0.31872002022E+03  0.26294697187E+03 0.  0.
         25    1    4    4    0    0 -0.29595554131E+02 -0.65695212915E+02  0.92772407129E+02  0.17159832589E+03  0.12509000000E+03 0.  0.
         25    1    3    3    0    0  0.52237562393E+02  0.49643149726E+02 -0.24579361785E+02  0.14644063086E+03  0.12509000000E+03 0.  0.
         25    1    4    4    0    0 -0.22642008262E+02  0.16052063189E+02  0.72297687180E+02  0.14712169433E+03  0.12509000000E+03 0.  0.
<mgrwt>
<rscale>  2 0.44343747E+03</rscale>
<asrwt>0</asrwt>
<pdfrwt beam="1">  1       21 0.44533190E-01 0.44343747E+03</pdfrwt>
<pdfrwt beam="2">  1       21 0.23872788E-01 0.44343747E+03</pdfrwt>
<totfact> 0.74391402E+04</totfact>
</mgrwt>
</event>
<event>
 7    0  0.4725730E-002  0.4540167E+03  0.7546771E-02  0.1026531E+00
         21   -1    0    0  502  501  0.00000000000E+00  0.00000000000E+00  0.32741864545E+03  0.32741864545E+03  0.00000000000E+00 0. -1.
         21   -1    0    0  501  502 -0.00000000000E+00 -0.00000000000E+00 -0.15739111722E+03  0.15739111722E+03  0.00000000000E+00 0. -1.
      99926    2    1    2    0    0  0.00000000000E+00 -0.14210854715E-13  0.17002752823E+03  0.48480976267E+03  0.45401667990E+03 0.  0.
      99925    2    3    3    0    0 -0.44095130807E+02 -0.70072056146E+02  0.25995787568E+02  0.27685033386E+03  0.26289894023E+03 0.  0.
         25    1    3    3    0    0  0.44095130807E+02  0.70072056146E+02  0.14403174067E+03  0.20795942881E+03  0.12509000000E+03 0.  0.
         25    1    4    4    0    0 -0.62101165056E+02 -0.45377063965E+02  0.15231405134E+02  0.14763175958E+03  0.12509000000E+03 0.  0.
         25    1    4    4    0    0  0.18006034248E+02 -0.24694992182E+02  0.10764382434E+02  0.12921857427E+03  0.12509000000E+03 0.  0.
<mgrwt>
<rscale>  2 0.45401668E+03</rscale>
<asrwt>0</asrwt>
<pdfrwt beam="1">  1       21 0.48149801E-01 0.45401668E+03</pdfrwt>
<pdfrwt beam="2">  1       21 0.23145752E-01 0.45401668E+03</pdfrwt>
<totfact> 0.66872101E+04</totfact>
</mgrwt>
</event>
<event>
 7    0  0.4725730E-002  0.4581731E+03  0.7546771E-02  0.1025312E+00
         21   -1    0    0  502  501  0.00000000000E+00  0.00000000000E+00  0.15192231666E+03  0.15192231666E+03  0.00000000000E+00 0. -1.
         21   -1    0    0  501  502 -0.00000000000E+00 -0.00000000000E+00 -0.34544391561E+03  0.34544391561E+03  0.00000000000E+00 0. -1.
      99926    2    1    2    0    0 -0.14210854715E-13 -0.35527136788E-14 -0.19352159895E+03  0.49736623227E+03  0.45817306746E+03 0.  0.
      99925    2    3    3    0    0 -0.78726996593E+02 -0.26654019639E+02 -0.33482041395E+02  0.27789289714E+03  0.26304949806E+03 0.  0.
         25    1    3    3    0    0  0.78726996593E+02  0.26654019639E+02 -0.16003955755E+03  0.21947333514E+03  0.12509000000E+03 0.  0.
         25    1    4    4    0    0 -0.68567545507E+02 -0.16381459457E+02 -0.47389555375E+02  0.15120561686E+03  0.12509000000E+03 0.  0.
         25    1    4    4    0    0 -0.10159451086E+02 -0.10272560181E+02  0.13907513980E+02  0.12668728028E+03  0.12509000000E+03 0.  0.
<mgrwt>
<rscale>  2 0.45817307E+03</rscale>
<asrwt>0</asrwt>
<pdfrwt beam="1">  1       21 0.22341518E-01 0.45817307E+03</pdfrwt>
<pdfrwt beam="2">  1       21 0.50800575E-01 0.45817307E+03</pdfrwt>
<totfact> 0.63832959E+04</totfact>
</mgrwt>
</event>
<event>
 7    0  0.4725730E-002  0.4456583E+03  0.7546771E-02  0.1029025E+00
         21   -1    0    0  502  501  0.00000000000E+00  0.00000000000E+00  0.19427857957E+03  0.19427857957E+03  0.00000000000E+00 0. -1.
         21   -1    0    0  501  502 -0.00000000000E+00 -0.00000000000E+00 -0.25557539768E+03  0.25557539768E+03  0.00000000000E+00 0. -1.
      99926    2    1    2    0    0  0.00000000000E+00  0.00000000000E+00 -0.61296818110E+02  0.44985397725E+03  0.44565827821E+03 0.  0.
      99925    2    3    3    0    0  0.57875527429E+02  0.37116724171E+02  0.40094991674E+02  0.27476818377E+03  0.26298805784E+03 0.  0.
         25    1    4    4    0    0  0.16314727379E+02 -0.13954164828E+02 -0.30933701284E+01  0.12695655195E+03  0.12509000000E+03 0.  0.
         25    1    4    4    0    0  0.41560800051E+02  0.51070888999E+02  0.43188361803E+02  0.14781163181E+03  0.12509000000E+03 0.  0.
         25    1    3    3    0    0 -0.57875527429E+02 -0.37116724171E+02 -0.10139180978E+03  0.17508579348E+03  0.12509000000E+03 0.  0.
<mgrwt>
<rscale>  2 0.44565828E+03</rscale>
<asrwt>0</asrwt>
<pdfrwt beam="1">  1       21 0.28570380E-01 0.44565828E+03</pdfrwt>
<pdfrwt beam="2">  1       21 0.37584617E-01 0.44565828E+03</pdfrwt>
<totfact> 0.74309945E+04</totfact>
</mgrwt>
</event>
<event>
 7    0  0.4725730E-002  0.3969588E+03  0.7546771E-02  0.1044838E+00
         21   -1    0    0  502  501  0.00000000000E+00  0.00000000000E+00  0.10211843923E+03  0.10211843923E+03  0.00000000000E+00 0. -1.
         21   -1    0    0  501  502 -0.00000000000E+00 -0.00000000000E+00 -0.38576843980E+03  0.38576843980E+03  0.00000000000E+00 0. -1.
      99926    2    1    2    0    0  0.35527136788E-14  0.17763568394E-14 -0.28365000057E+03  0.48788687904E+03  0.39695879372E+03 0.  0.
      99925    2    3    3    0    0 -0.31931138039E+02 -0.99724140181E+01 -0.21456986645E+03  0.34112646323E+03  0.26307411448E+03 0.  0.
         25    1    4    4    0    0 -0.68935059180E+00 -0.26222869427E+02 -0.14653058082E+03  0.19443979351E+03  0.12509000000E+03 0.  0.
         25    1    3    3    0    0  0.31931138039E+02  0.99724140181E+01 -0.69080134113E+02  0.14676041580E+03  0.12509000000E+03 0.  0.
         25    1    4    4    0    0 -0.31241787448E+02  0.16250455409E+02 -0.68039285634E+02  0.14668666972E+03  0.12509000000E+03 0.  0.
<mgrwt>
<rscale>  2 0.39695879E+03</rscale>
<asrwt>0</asrwt>
<pdfrwt beam="1">  1       21 0.15017418E-01 0.39695879E+03</pdfrwt>
<pdfrwt beam="2">  1       21 0.56730652E-01 0.39695879E+03</pdfrwt>
<totfact> 0.10786078E+05</totfact>
</mgrwt>
</event>
<event>
 7    0  0.4725730E-002  0.4521688E+03  0.7546771E-02  0.1027077E+00
         21   -1    0    0  502  501  0.00000000000E+00  0.00000000000E+00  0.12744746017E+03  0.12744746017E+03  0.00000000000E+00 0. -1.
         21   -1    0    0  501  502 -0.00000000000E+00 -0.00000000000E+00 -0.40106064018E+03  0.40106064018E+03  0.00000000000E+00 0. -1.
      99926    2    1    2    0    0  0.00000000000E+00  0.00000000000E+00 -0.27361318000E+03  0.52850810035E+03  0.45216881788E+03 0.  0.
      99925    2    3    3    0    0  0.76279803587E+02  0.14116211328E+02 -0.26426685444E+03  0.38102000673E+03  0.26328957313E+03 0.  0.
         25    1    3    3    0    0 -0.76279803587E+02 -0.14116211328E+02 -0.93463255679E+01  0.14748809362E+03  0.12509000000E+03 0.  0.
         25    1    4    4    0    0  0.65578218916E+02 -0.84799728888E+01 -0.10106786189E+03  0.17388109024E+03  0.12509000000E+03 0.  0.
         25    1    4    4    0    0  0.10701584671E+02  0.22596184217E+02 -0.16319899255E+03  0.20713891649E+03  0.12509000000E+03 0.  0.
<mgrwt>
<rscale>  2 0.45216882E+03</rscale>
<asrwt>0</asrwt>
<pdfrwt beam="1">  1       21 0.18742274E-01 0.45216882E+03</pdfrwt>
<pdfrwt beam="2">  1       21 0.58979506E-01 0.45216882E+03</pdfrwt>
<totfact> 0.64748419E+04</totfact>
</mgrwt>
</event>
<event>
 7    0  0.4725730E-002  0.4187736E+03  0.7546771E-02  0.1037466E+00
         21   -1    0    0  502  501  0.00000000000E+00  0.00000000000E+00  0.64885882869E+03  0.64885882869E+03  0.00000000000E+00 0.  1.
         21   -1    0    0  501  502 -0.00000000000E+00 -0.00000000000E+00 -0.67569123898E+02  0.67569123898E+02  0.00000000000E+00 0.  1.
      99926    2    1    2    0    0  0.00000000000E+00 -0.35527136788E-14  0.58128970479E+03  0.71642795259E+03  0.41877355498E+03 0.  0.
      99925    2    3    3    0    0  0.64000779331E+02 -0.25125088803E+02  0.33202207254E+03  0.42918375259E+03  0.26312101207E+03 0.  0.
         25    1    4    4    0    0  0.32733931412E+02  0.13455910587E+02  0.21289534212E+03  0.24944840467E+03  0.12509000000E+03 0.  0.
         25    1    3    3    0    0 -0.64000779331E+02  0.25125088803E+02  0.24926763225E+03  0.28724419999E+03  0.12509000000E+03 0.  0.
         25    1    4    4    0    0  0.31266847919E+02 -0.38580999391E+02  0.11912673042E+03  0.17973534792E+03  0.12509000000E+03 0.  0.
<mgrwt>
<rscale>  2 0.41877355E+03</rscale>
<asrwt>0</asrwt>
<pdfrwt beam="1">  1       21 0.95420412E-01 0.41877355E+03</pdfrwt>
<pdfrwt beam="2">  1       21 0.99366362E-02 0.41877355E+03</pdfrwt>
<totfact> 0.69913110E+04</totfact>
</mgrwt>
</event>
<event>
 7    0  0.4725730E-002  0.4581088E+03  0.7546771E-02  0.1025331E+00
         21   -1    0    0  502  501  0.00000000000E+00  0.00000000000E+00  0.86205352732E+03  0.86205352732E+03  0.00000000000E+00 0. -1.
         21   -1    0    0  501  502 -0.00000000000E+00 -0.00000000000E+00 -0.60861546353E+02  0.60861546353E+02  0.00000000000E+00 0. -1.
      99926    2    1    2    0    0 -0.53290705182E-14  0.00000000000E+00  0.80119198097E+03  0.92291507368E+03  0.45810876749E+03 0.  0.
      99925    2    3    3    0    0  0.11998027015E+02  0.95557752585E+02  0.63329729376E+03  0.69245602997E+03  0.26297272564E+03 0.  0.
         25    1    4    4    0    0 -0.27538668418E+02  0.63366345387E+02  0.36742282411E+03  0.39423433610E+03  0.12509000000E+03 0.  0.
         25    1    4    4    0    0  0.39536695433E+02  0.32191407198E+02  0.26587446965E+03  0.29822169387E+03  0.12509000000E+03 0.  0.
         25    1    3    3    0    0 -0.11998027015E+02 -0.95557752585E+02  0.16789468721E+03  0.23045904371E+03  0.12509000000E+03 0.  0.
<mgrwt>
<rscale>  2 0.45810877E+03</rscale>
<asrwt>0</asrwt>
<pdfrwt beam="1">  1       21 0.12677257E+00 0.45810877E+03</pdfrwt>
<pdfrwt beam="2">  1       21 0.89502279E-02 0.45810877E+03</pdfrwt>
<totfact> 0.41245141E+04</totfact>
</mgrwt>
</event>
<event>
 7    0  0.4725730E-002  0.4532885E+03  0.7546771E-02  0.1026746E+00
         21   -1    0    0  502  501  0.00000000000E+00  0.00000000000E+00  0.12970403984E+03  0.12970403984E+03  0.00000000000E+00 0.  1.
         21   -1    0    0  501  502 -0.00000000000E+00 -0.00000000000E+00 -0.39603707237E+03  0.39603707237E+03  0.00000000000E+00 0.  1.
      99926    2    1    2    0    0  0.00000000000E+00  0.71054273576E-14 -0.26633303253E+03  0.52574111221E+03  0.45328846538E+03 0.  0.
      99925    2    3    3    0    0 -0.71591333427E+02  0.54831149665E+02 -0.24403005880E+03  0.36993127705E+03  0.26299563902E+03 0.  0.
         25    1    3    3    0    0  0.71591333427E+02 -0.54831149665E+02 -0.22302973736E+02  0.15580983516E+03  0.12509000000E+03 0.  0.
         25    1    4    4    0    0 -0.61001364489E+02  0.53140082031E+02 -0.16134055990E+03  0.21959808550E+03  0.12509000000E+03 0.  0.
         25    1    4    4    0    0 -0.10589968937E+02  0.16910676334E+01 -0.82689498897E+02  0.15033319154E+03  0.12509000000E+03 0.  0.
<mgrwt>
<rscale>  2 0.45328847E+03</rscale>
<asrwt>0</asrwt>
<pdfrwt beam="1">  1       21 0.19074123E-01 0.45328847E+03</pdfrwt>
<pdfrwt beam="2">  1       21 0.58240746E-01 0.45328847E+03</pdfrwt>
<totfact> 0.64364568E+04</totfact>
</mgrwt>
</event>
<event>
 7    0  0.4725730E-002  0.4543702E+03  0.7546771E-02  0.1026427E+00
         21   -1    0    0  502  501  0.00000000000E+00  0.00000000000E+00  0.43521125293E+03  0.43521125293E+03  0.00000000000E+00 0. -1.
         21   -1    0    0  501  502 -0.00000000000E+00 -0.00000000000E+00 -0.11859313304E+03  0.11859313304E+03  0.00000000000E+00 0. -1.
      99926    2    1    2    0    0  0.00000000000E+00  0.00000000000E+00  0.31661811989E+03  0.55380438597E+03  0.45437018397E+03 0.  0.
      99925    2    3    3    0    0  0.34226238435E+02 -0.31104473394E+02  0.32446275020E+03  0.42020809116E+03  0.26298258488E+03 0.  0.
         25    1    4    4    0    0  0.31238954823E+02  0.21188129354E+02  0.14356057321E+03  0.19411840563E+03  0.12509000000E+03 0.  0.
         25    1    4    4    0    0  0.29872836126E+01 -0.52292602748E+02  0.18090217699E+03  0.22608968553E+03  0.12509000000E+03 0.  0.
         25    1    3    3    0    0 -0.34226238435E+02  0.31104473394E+02 -0.78446303058E+01  0.13359629481E+03  0.12509000000E+03 0.  0.
<mgrwt>
<rscale>  2 0.45437018E+03</rscale>
<asrwt>0</asrwt>
<pdfrwt beam="1">  1       21 0.64001654E-01 0.45437018E+03</pdfrwt>
<pdfrwt beam="2">  1       21 0.17440167E-01 0.45437018E+03</pdfrwt>
<totfact> 0.61923775E+04</totfact>
</mgrwt>
</event>
<event>
 6    0  0.4725730E-002  0.4525486E+03  0.7546771E-02  0.1026965E+00
         21   -1    0    0  502  501  0.00000000000E+00  0.00000000000E+00  0.10583448432E+03  0.10583448432E+03  0.00000000000E+00 0.  1.
         21   -1    0    0  501  502 -0.00000000000E+00 -0.00000000000E+00 -0.48377486365E+03  0.48377486365E+03  0.00000000000E+00 0.  1.
      99926    2    1    2    0    0  0.00000000000E+00 -0.71054273576E-14 -0.37794037933E+03  0.58960934796E+03  0.45254861936E+03 0.  0.
         25    1    3    3    0    0  0.42588704854E+02 -0.37068637547E+01 -0.30846978627E+02  0.13574454984E+03  0.12509000000E+03 0.  0.
         25    1    3    3    0    0 -0.69897411376E+02 -0.47450339106E+02 -0.21673284173E+03  0.26411704902E+03  0.12509000000E+03 0.  0.
         25    1    3    3    0    0  0.27308706522E+02  0.51157202861E+02 -0.13036055897E+03  0.18974774911E+03  0.12509000000E+03 0.  0.
<mgrwt>
<rscale>  2 0.45254862E+03</rscale>
<asrwt>0</asrwt>
<pdfrwt beam="1">  1       21 0.15563895E-01 0.45254862E+03</pdfrwt>
<pdfrwt beam="2">  1       21 0.71143361E-01 0.45254862E+03</pdfrwt>
<totfact> 0.60485835E+04</totfact>
</mgrwt>
</event>
<event>
 7    0  0.4725730E-002  0.4149048E+03  0.7546771E-02  0.1038737E+00
         21   -1    0    0  502  501  0.00000000000E+00  0.00000000000E+00  0.92347938833E+03  0.92347938833E+03  0.00000000000E+00 0. -1.
         21   -1    0    0  501  502 -0.00000000000E+00 -0.00000000000E+00 -0.46602551664E+02  0.46602551664E+02  0.00000000000E+00 0. -1.
      99926    2    1    2    0    0  0.00000000000E+00  0.00000000000E+00  0.87687683667E+03  0.97008193999E+03  0.41490478862E+03 0.  0.
      99925    2    3    3    0    0 -0.61734165164E+01  0.29900876575E+02  0.71993380225E+03  0.76707751235E+03  0.26300391031E+03 0.  0.
         25    1    3    3    0    0  0.61734165164E+01 -0.29900876575E+02  0.15694303441E+03  0.20300442764E+03  0.12509000000E+03 0.  0.
         25    1    4    4    0    0 -0.15482367624E+02 -0.23818363589E+02  0.34217495336E+03  0.36542882338E+03  0.12509000000E+03 0.  0.
         25    1    4    4    0    0  0.93089511079E+01  0.53719240164E+02  0.37775884890E+03  0.40164868897E+03  0.12509000000E+03 0.  0.
<mgrwt>
<rscale>  2 0.41490479E+03</rscale>
<asrwt>0</asrwt>
<pdfrwt beam="1">  1       21 0.13580578E+00 0.41490479E+03</pdfrwt>
<pdfrwt beam="2">  1       21 0.68533170E-02 0.41490479E+03</pdfrwt>
<totfact> 0.55913121E+04</totfact>
</mgrwt>
</event>
<event>
 7    0  0.4725730E-002  0.4317866E+03  0.7546771E-02  0.1033297E+00
         21   -1    0    0  502  501  0.00000000000E+00  0.00000000000E+00  0.64514470978E+03  0.64514470978E+03  0.00000000000E+00 0. -1.
         21   -1    0    0  501  502 -0.00000000000E+00 -0.00000000000E+00 -0.72247238548E+02  0.72247238548E+02  0.00000000000E+00 0. -1.
      99926    2    1    2    0    0  0.00000000000E+00 -0.35527136788E-14  0.57289747123E+03  0.71739194833E+03  0.43178663131E+03 0.  0.
      99925    2    3    3    0    0 -0.14414658913E+01 -0.24322755959E+02  0.51211141255E+03  0.57619659673E+03  0.26296529228E+03 0.  0.
         25    1    4    4    0    0  0.12600038309E+01 -0.25363411007E+02  0.34185660341E+03  0.36490866751E+03  0.12509000000E+03 0.  0.
         25    1    4    4    0    0 -0.27014697222E+01  0.10406550474E+01  0.17025480914E+03  0.21128792923E+03  0.12509000000E+03 0.  0.
         25    1    3    3    0    0  0.14414658913E+01  0.24322755959E+02  0.60786058680E+02  0.14119535159E+03  0.12509000000E+03 0.  0.
<mgrwt>
<rscale>  2 0.43178663E+03</rscale>
<asrwt>0</asrwt>
<pdfrwt beam="1">  1       21 0.94874219E-01 0.43178663E+03</pdfrwt>
<pdfrwt beam="2">  1       21 0.10624594E-01 0.43178663E+03</pdfrwt>
<totfact> 0.62648281E+04</totfact>
</mgrwt>
</event>
<event>
 7    0  0.4725730E-002  0.4561563E+03  0.7546771E-02  0.1025902E+00
         21   -1    0    0  502  501  0.00000000000E+00  0.00000000000E+00  0.75140970161E+02  0.75140970161E+02  0.00000000000E+00 0. -1.
         21   -1    0    0  501  502 -0.00000000000E+00 -0.00000000000E+00 -0.69229407171E+03  0.69229407171E+03  0.00000000000E+00 0. -1.
      99926    2    1    2    0    0 -0.14210854715E-13  0.00000000000E+00 -0.61715310155E+03  0.76743504187E+03  0.45615632489E+03 0.  0.
      99925    2    3    3    0    0 -0.10794489421E+03  0.28929710990E+02 -0.42896261766E+03  0.51533943562E+03  0.26282461489E+03 0.  0.
         25    1    4    4    0    0 -0.81965533573E+02  0.93571902116E+01 -0.28412545356E+03  0.32121750756E+03  0.12509000000E+03 0.  0.
         25    1    3    3    0    0  0.10794489421E+03 -0.28929710990E+02 -0.18819048389E+03  0.25209560625E+03  0.12509000000E+03 0.  0.
         25    1    4    4    0    0 -0.25979360641E+02  0.19572520779E+02 -0.14483716410E+03  0.19412192806E+03  0.12509000000E+03 0.  0.
<mgrwt>
<rscale>  2 0.45615632E+03</rscale>
<asrwt>0</asrwt>
<pdfrwt beam="1">  1       21 0.11050143E-01 0.45615632E+03</pdfrwt>
<pdfrwt beam="2">  1       21 0.10180795E+00 0.45615632E+03</pdfrwt>
<totfact> 0.48934433E+04</totfact>
</mgrwt>
</event>
<event>
 7    0  0.4725730E-002  0.4673888E+03  0.7546771E-02  0.1022660E+00
         21   -1    0    0  502  501  0.00000000000E+00  0.00000000000E+00  0.49872454375E+02  0.49872454375E+02  0.00000000000E+00 0. -1.
         21   -1    0    0  501  502 -0.00000000000E+00 -0.00000000000E+00 -0.10950550306E+04  0.10950550306E+04  0.00000000000E+00 0. -1.
      99926    2    1    2    0    0  0.00000000000E+00 -0.35527136788E-14 -0.10451825762E+04  0.11449274849E+04  0.46738884047E+03 0.  0.
      99925    2    3    3    0    0 -0.11533213206E+03  0.28913002065E+02 -0.56076640256E+03  0.63068629664E+03  0.26299958964E+03 0.  0.
         25    1    3    3    0    0  0.11533213206E+03 -0.28913002065E+02 -0.48441617363E+03  0.51424118830E+03  0.12509000000E+03 0.  0.
         25    1    4    4    0    0 -0.22290728623E+02  0.30316301379E+02 -0.29380088783E+03  0.32153137405E+03  0.12509000000E+03 0.  0.
         25    1    4    4    0    0 -0.93041403433E+02 -0.14032993143E+01 -0.26696551473E+03  0.30915492258E+03  0.12509000000E+03 0.  0.
<mgrwt>
<rscale>  2 0.46738884E+03</rscale>
<asrwt>0</asrwt>
<pdfrwt beam="1">  1       21 0.73341843E-02 0.46738884E+03</pdfrwt>
<pdfrwt beam="2">  1       21 0.16103751E+00 0.46738884E+03</pdfrwt>
<totfact> 0.30862627E+04</totfact>
</mgrwt>
</event>
<event>
 7    0  0.4725730E-002  0.4572099E+03  0.7546771E-02  0.1025594E+00
         21   -1    0    0  502  501  0.00000000000E+00  0.00000000000E+00  0.50026377132E+02  0.50026377132E+02  0.00000000000E+00 0.  1.
         21   -1    0    0  501  502 -0.00000000000E+00 -0.00000000000E+00 -0.10446532238E+04  0.10446532238E+04  0.00000000000E+00 0.  1.
      99926    2    1    2    0    0  0.00000000000E+00  0.00000000000E+00 -0.99462684664E+03  0.10946796009E+04  0.45720986929E+03 0.  0.
      99925    2    3    3    0    0 -0.20897069014E+02 -0.80139753449E+02 -0.43300507498E+03  0.51336592475E+03  0.26304393200E+03 0.  0.
         25    1    4    4    0    0  0.51400296437E+01 -0.78591926414E+02 -0.22313690514E+03  0.26765779895E+03  0.12509000000E+03 0.  0.
         25    1    3    3    0    0  0.20897069014E+02  0.80139753449E+02 -0.56162177166E+03  0.58131367615E+03  0.12509000000E+03 0.  0.
         25    1    4    4    0    0 -0.26037098658E+02 -0.15478270348E+01 -0.20986816984E+03  0.24570812581E+03  0.12509000000E+03 0.  0.
<mgrwt>
<rscale>  2 0.45720987E+03</rscale>
<asrwt>0</asrwt>
<pdfrwt beam="1">  1       21 0.73568203E-02 0.45720987E+03</pdfrwt>
<pdfrwt beam="2">  1       21 0.15362547E+00 0.45720987E+03</pdfrwt>
<totfact> 0.35070753E+04</totfact>
</mgrwt>
</event>
<event>
 7    0  0.4725730E-002  0.4482200E+03  0.7546771E-02  0.1028254E+00
         21   -1    0    0  502  501  0.00000000000E+00  0.00000000000E+00  0.50888964003E+02  0.50888964003E+02  0.00000000000E+00 0. -1.
         21   -1    0    0  501  502 -0.00000000000E+00 -0.00000000000E+00 -0.98695823781E+03  0.98695823781E+03  0.00000000000E+00 0. -1.
      99926    2    1    2    0    0  0.71054273576E-14  0.00000000000E+00 -0.93606927381E+03  0.10378472018E+04  0.44821995599E+03 0.  0.
      99925    2    3    3    0    0 -0.22708043030E+02 -0.27191450905E+02 -0.82570888118E+03  0.86731288098E+03  0.26302366212E+03 0.  0.
         25    1    3    3    0    0  0.22708043030E+02  0.27191450905E+02 -0.11036039262E+03  0.17053432083E+03  0.12509000000E+03 0.  0.
         25    1    4    4    0    0 -0.34012173384E+02 -0.20632761295E+02 -0.52912112744E+03  0.54515980628E+03  0.12509000000E+03 0.  0.
         25    1    4    4    0    0  0.11304130354E+02 -0.65586896105E+01 -0.29658775374E+03  0.32215307470E+03  0.12509000000E+03 0.  0.
<mgrwt>
<rscale>  2 0.44821996E+03</rscale>
<asrwt>0</asrwt>
<pdfrwt beam="1">  1       21 0.74836721E-02 0.44821996E+03</pdfrwt>
<pdfrwt beam="2">  1       21 0.14514090E+00 0.44821996E+03</pdfrwt>
<totfact> 0.39791159E+04</totfact>
</mgrwt>
</event>
<event>
 7    0  0.4725730E-002  0.4533699E+03  0.7546771E-02  0.1026722E+00
         21   -1    0    0  502  501  0.00000000000E+00  0.00000000000E+00  0.53322136443E+03  0.53322136443E+03  0.00000000000E+00 0. -1.
         21   -1    0    0  501  502 -0.00000000000E+00 -0.00000000000E+00 -0.96369105195E+02  0.96369105195E+02  0.00000000000E+00 0. -1.
      99926    2    1    2    0    0  0.00000000000E+00  0.00000000000E+00  0.43685225923E+03  0.62959046962E+03  0.45336989649E+03 0.  0.
      99925    2    3    3    0    0  0.52267503405E+02  0.84943869203E+02  0.20615931591E+03  0.34885198806E+03  0.26315146440E+03 0.  0.
         25    1    3    3    0    0 -0.52267503405E+02 -0.84943869203E+02  0.23069294333E+03  0.28073848156E+03  0.12509000000E+03 0.  0.
         25    1    4    4    0    0  0.30700886898E+02  0.27318585132E+02  0.14719531846E+03  0.19749131482E+03  0.12509000000E+03 0.  0.
         25    1    4    4    0    0  0.21566616507E+02  0.57625284071E+02  0.58963997441E+02  0.15136067325E+03  0.12509000000E+03 0.  0.
<mgrwt>
<rscale>  2 0.45336990E+03</rscale>
<asrwt>0</asrwt>
<pdfrwt beam="1">  1       21 0.78414905E-01 0.45336990E+03</pdfrwt>
<pdfrwt beam="2">  1       21 0.14171928E-01 0.45336990E+03</pdfrwt>
<totfact> 0.57630912E+04</totfact>
</mgrwt>
</event>
<event>
 7    0  0.4725730E-002  0.4276222E+03  0.7546771E-02  0.1034614E+00
         21   -1    0    0  502  501  0.00000000000E+00  0.00000000000E+00  0.27079121764E+03  0.27079121764E+03  0.00000000000E+00 0. -1.
         21   -1    0    0  501  502 -0.00000000000E+00 -0.00000000000E+00 -0.16882081017E+03  0.16882081017E+03  0.00000000000E+00 0. -1.
      99926    2    1    2    0    0  0.00000000000E+00  0.00000000000E+00  0.10197040747E+03  0.43961202780E+03  0.42762222930E+03 0.  0.
      99925    2    3    3    0    0  0.54277805913E+02 -0.23715829861E+02  0.32155444669E+01  0.26958687711E+03  0.26297951210E+03 0.  0.
         25    1    3    3    0    0 -0.54277805913E+02  0.23715829861E+02  0.98754863002E+02  0.17002515069E+03  0.12509000000E+03 0.  0.
         25    1    4    4    0    0  0.54417406716E+02 -0.45573183544E+01  0.31132238289E+02  0.13999552730E+03  0.12509000000E+03 0.  0.
         25    1    4    4    0    0 -0.13960080291E+00 -0.19158511507E+02 -0.27916693823E+02  0.12959134981E+03  0.12509000000E+03 0.  0.
<mgrwt>
<rscale>  2 0.42762223E+03</rscale>
<asrwt>0</asrwt>
<pdfrwt beam="1">  1       21 0.39822238E-01 0.42762223E+03</pdfrwt>
<pdfrwt beam="2">  1       21 0.24826590E-01 0.42762223E+03</pdfrwt>
<totfact> 0.87219913E+04</totfact>
</mgrwt>
</event>
<event>
 7    0  0.4725730E-002  0.4521174E+03  0.7546771E-02  0.1027092E+00
         21   -1    0    0  502  501  0.00000000000E+00  0.00000000000E+00  0.62500656199E+02  0.62500656199E+02  0.00000000000E+00 0. -1.
         21   -1    0    0  501  502 -0.00000000000E+00 -0.00000000000E+00 -0.81763212681E+03  0.81763212681E+03  0.00000000000E+00 0. -1.
      99926    2    1    2    0    0  0.00000000000E+00  0.00000000000E+00 -0.75513147061E+03  0.88013278300E+03  0.45211743808E+03 0.  0.
      99925    2    3    3    0    0 -0.63387668570E+02 -0.52506385545E+02 -0.61990976429E+03  0.67837219466E+03  0.26291786089E+03 0.  0.
         25    1    3    3    0    0  0.63387668570E+02  0.52506385545E+02 -0.13522170631E+03  0.20176058834E+03  0.12509000000E+03 0.  0.
         25    1    4    4    0    0 -0.46022302470E+02  0.11740679378E+02 -0.29907785846E+03  0.32764457785E+03  0.12509000000E+03 0.  0.
         25    1    4    4    0    0 -0.17365366099E+02 -0.64247064924E+02 -0.32083190584E+03  0.35072761681E+03  0.12509000000E+03 0.  0.
<mgrwt>
<rscale>  2 0.45211744E+03</rscale>
<asrwt>0</asrwt>
<pdfrwt beam="1">  1       21 0.91912731E-02 0.45211744E+03</pdfrwt>
<pdfrwt beam="2">  1       21 0.12024002E+00 0.45211744E+03</pdfrwt>
<totfact> 0.45113744E+04</totfact>
</mgrwt>
</event>
<event>
 7    0  0.4725730E-002  0.4535356E+03  0.7546771E-02  0.1026673E+00
         21   -1    0    0  502  501  0.00000000000E+00  0.00000000000E+00  0.61384997577E+02  0.61384997577E+02  0.00000000000E+00 0. -1.
         21   -1    0    0  501  502 -0.00000000000E+00 -0.00000000000E+00 -0.83772306249E+03  0.83772306249E+03  0.00000000000E+00 0. -1.
      99926    2    1    2    0    0  0.00000000000E+00  0.00000000000E+00 -0.77633806491E+03  0.89910806006E+03  0.45353556933E+03 0.  0.
      99925    2    3    3    0    0  0.81442196292E+02  0.56103893917E+02 -0.38515141009E+03  0.47666873275E+03  0.26285165748E+03 0.  0.
         25    1    4    4    0    0  0.53549502205E+01  0.43399095373E+02 -0.20614989371E+03  0.24506620279E+03  0.12509000000E+03 0.  0.
         25    1    4    4    0    0  0.76087246072E+02  0.12704798544E+02 -0.17900151637E+03  0.23160252996E+03  0.12509000000E+03 0.  0.
         25    1    3    3    0    0 -0.81442196292E+02 -0.56103893917E+02 -0.39118665482E+03  0.42243932731E+03  0.12509000000E+03 0.  0.
<mgrwt>
<rscale>  2 0.45353557E+03</rscale>
<asrwt>0</asrwt>
<pdfrwt beam="1">  1       21 0.90272056E-02 0.45353557E+03</pdfrwt>
<pdfrwt beam="2">  1       21 0.12319457E+00 0.45353557E+03</pdfrwt>
<totfact> 0.43772001E+04</totfact>
</mgrwt>
</event>
<event>
 7    0  0.4725730E-002  0.4545991E+03  0.7546771E-02  0.1026359E+00
         21   -1    0    0  502  501  0.00000000000E+00  0.00000000000E+00  0.75193425707E+02  0.75193425707E+02  0.00000000000E+00 0. -1.
         21   -1    0    0  501  502 -0.00000000000E+00 -0.00000000000E+00 -0.68709577774E+03  0.68709577774E+03  0.00000000000E+00 0. -1.
      99926    2    1    2    0    0  0.00000000000E+00  0.35527136788E-14 -0.61190235204E+03  0.76228920345E+03  0.45459909950E+03 0.  0.
      99925    2    3    3    0    0 -0.29067614923E+01 -0.27840688913E+02 -0.20124899600E+03  0.33209478212E+03  0.26268276057E+03 0.  0.
         25    1    4    4    0    0 -0.51803899193E+01 -0.34152785305E+02 -0.14554664925E+03  0.19499893433E+03  0.12509000000E+03 0.  0.
         25    1    4    4    0    0  0.22736284270E+01  0.63120963925E+01 -0.55702346759E+02  0.13709584779E+03  0.12509000000E+03 0.  0.
         25    1    3    3    0    0  0.29067614923E+01  0.27840688913E+02 -0.41065335603E+03  0.43019442133E+03  0.12509000000E+03 0.  0.
<mgrwt>
<rscale>  2 0.45459910E+03</rscale>
<asrwt>0</asrwt>
<pdfrwt beam="1">  1       21 0.11057857E-01 0.45459910E+03</pdfrwt>
<pdfrwt beam="2">  1       21 0.10104350E+00 0.45459910E+03</pdfrwt>
<totfact> 0.49799157E+04</totfact>
</mgrwt>
</event>
<event>
 7    0  0.4725730E-002  0.4641307E+03  0.7546771E-02  0.1023590E+00
         21   -1    0    0  502  501  0.00000000000E+00  0.00000000000E+00  0.13370911279E+03  0.13370911279E+03  0.00000000000E+00 0. -1.
         21   -1    0    0  501  502 -0.00000000000E+00 -0.00000000000E+00 -0.40277236978E+03  0.40277236978E+03  0.00000000000E+00 0. -1.
      99926    2    1    2    0    0  0.00000000000E+00  0.00000000000E+00 -0.26906325699E+03  0.53648148258E+03  0.46413074116E+03 0.  0.
      99925    2    3    3    0    0 -0.32647826053E+02 -0.11371143646E+03 -0.13589451930E+03  0.31881753948E+03  0.26302306320E+03 0.  0.
         25    1    4    4    0    0 -0.47027932255E+01 -0.77866882451E+02 -0.34238378592E+02  0.15134444924E+03  0.12509000000E+03 0.  0.
         25    1    3    3    0    0  0.32647826053E+02  0.11371143646E+03 -0.13316873769E+03  0.21766394310E+03  0.12509000000E+03 0.  0.
         25    1    4    4    0    0 -0.27945032827E+02 -0.35844554005E+02 -0.10165614070E+03  0.16747309024E+03  0.12509000000E+03 0.  0.
<mgrwt>
<rscale>  2 0.46413074E+03</rscale>
<asrwt>0</asrwt>
<pdfrwt beam="1">  1       21 0.19663105E-01 0.46413074E+03</pdfrwt>
<pdfrwt beam="2">  1       21 0.59231231E-01 0.46413074E+03</pdfrwt>
<totfact> 0.58425820E+04</totfact>
</mgrwt>
</event>
<event>
 7    0  0.4725730E-002  0.4552466E+03  0.7546771E-02  0.1026169E+00
         21   -1    0    0  502  501  0.00000000000E+00  0.00000000000E+00  0.14842612843E+03  0.14842612843E+03  0.00000000000E+00 0.  1.
         21   -1    0    0  501  502 -0.00000000000E+00 -0.00000000000E+00 -0.34907840829E+03  0.34907840829E+03  0.00000000000E+00 0.  1.
      99926    2    1    2    0    0 -0.71054273576E-14 -0.14210854715E-13 -0.20065227986E+03  0.49750453673E+03  0.45524655589E+03 0.  0.
      99925    2    3    3    0    0  0.46630761483E+02  0.92585767865E+02 -0.75974252418E+02  0.29271520362E+03  0.26298964062E+03 0.  0.
         25    1    4    4    0    0  0.38981509794E+02  0.84720898483E+02 -0.29324079443E+02  0.15875956186E+03  0.12509000000E+03 0.  0.
         25    1    3    3    0    0 -0.46630761483E+02 -0.92585767865E+02 -0.12467802744E+03  0.20478933311E+03  0.12509000000E+03 0.  0.
         25    1    4    4    0    0  0.76492516889E+01  0.78648693819E+01 -0.46650172975E+02  0.13395564176E+03  0.12509000000E+03 0.  0.
<mgrwt>
<rscale>  2 0.45524656E+03</rscale>
<asrwt>0</asrwt>
<pdfrwt beam="1">  1       21 0.21827372E-01 0.45524656E+03</pdfrwt>
<pdfrwt beam="2">  1       21 0.51335060E-01 0.45524656E+03</pdfrwt>
<totfact> 0.65318392E+04</totfact>
</mgrwt>
</event>
<event>
 7    0  0.4725730E-002  0.4571944E+03  0.7546771E-02  0.1025598E+00
         21   -1    0    0  502  501  0.00000000000E+00  0.00000000000E+00  0.38769040489E+03  0.38769040489E+03  0.00000000000E+00 0. -1.
         21   -1    0    0  501  502 -0.00000000000E+00 -0.00000000000E+00 -0.13478970195E+03  0.13478970195E+03  0.00000000000E+00 0. -1.
      99926    2    1    2    0    0 -0.14210854715E-13  0.00000000000E+00  0.25290070294E+03  0.52248010684E+03  0.45719437496E+03 0.  0.
      99925    2    3    3    0    0 -0.88408885531E+02  0.69877041397E+02  0.18785430121E+03  0.34198779555E+03  0.26261660623E+03 0.  0.
         25    1    4    4    0    0 -0.26457469858E+01  0.32535680888E+02  0.92864912441E+02  0.15917591077E+03  0.12509000000E+03 0.  0.
         25    1    4    4    0    0 -0.85763138545E+02  0.37341360510E+02  0.94989388766E+02  0.18281188478E+03  0.12509000000E+03 0.  0.
         25    1    3    3    0    0  0.88408885531E+02 -0.69877041397E+02  0.65046401736E+02  0.18049231129E+03  0.12509000000E+03 0.  0.
<mgrwt>
<rscale>  2 0.45719437E+03</rscale>
<asrwt>0</asrwt>
<pdfrwt beam="1">  1       21 0.57013295E-01 0.45719437E+03</pdfrwt>
<pdfrwt beam="2">  1       21 0.19822015E-01 0.45719437E+03</pdfrwt>
<totfact> 0.62621293E+04</totfact>
</mgrwt>
</event>
<event>
 7    0  0.4725730E-002  0.5050191E+03  0.7546771E-02  0.1012477E+00
         21   -1    0    0  502  501  0.00000000000E+00  0.00000000000E+00  0.30448527084E+03  0.30448527084E+03  0.00000000000E+00 0. -1.
         21   -1    0    0  501  502 -0.00000000000E+00 -0.00000000000E+00 -0.20940612411E+03  0.20940612411E+03  0.00000000000E+00 0. -1.
      99926    2    1    2    0    0  0.35527136788E-14  0.00000000000E+00  0.95079146734E+02  0.51389139495E+03  0.50501913000E+03 0.  0.
      99925    2    3    3    0    0 -0.22394422826E+02 -0.52680304005E+02 -0.89482218289E+02  0.28370205949E+03  0.26306475736E+03 0.  0.
         25    1    4    4    0    0 -0.45395424816E+02 -0.48470563037E+02 -0.54231613843E+02  0.15165327598E+03  0.12509000000E+03 0.  0.
         25    1    3    3    0    0  0.22394422826E+02  0.52680304005E+02  0.18456136502E+03  0.23018933547E+03  0.12509000000E+03 0.  0.
         25    1    4    4    0    0  0.23001001990E+02 -0.42097409677E+01 -0.35250604446E+02  0.13204878351E+03  0.12509000000E+03 0.  0.
<mgrwt>
<rscale>  2 0.50501913E+03</rscale>
<asrwt>0</asrwt>
<pdfrwt beam="1">  1       21 0.44777246E-01 0.50501913E+03</pdfrwt>
<pdfrwt beam="2">  1       21 0.30795018E-01 0.50501913E+03</pdfrwt>
<totfact> 0.44036639E+04</totfact>
</mgrwt>
</event>
<event>
 7    0  0.4725730E-002  0.4562242E+03  0.7546771E-02  0.1025882E+00
         21   -1    0    0  502  501  0.00000000000E+00  0.00000000000E+00  0.26636136999E+03  0.26636136999E+03  0.00000000000E+00 0.  1.
         21   -1    0    0  501  502 -0.00000000000E+00 -0.00000000000E+00 -0.19535540871E+03  0.19535540871E+03  0.00000000000E+00 0.  1.
      99926    2    1    2    0    0  0.00000000000E+00  0.00000000000E+00  0.71005961280E+02  0.46171677869E+03  0.45622421811E+03 0.  0.
      99925    2    3    3    0    0 -0.40928140184E+02 -0.99913045390E+02  0.65078569935E+01  0.28433232939E+03  0.26295397322E+03 0.  0.
         25    1    3    3    0    0  0.40928140184E+02  0.99913045390E+02  0.64498104287E+02  0.17738444930E+03  0.12509000000E+03 0.  0.
         25    1    4    4    0    0 -0.21910705892E+02 -0.63537575728E+02 -0.35073467617E+02  0.14626947321E+03  0.12509000000E+03 0.  0.
         25    1    4    4    0    0 -0.19017434293E+02 -0.36375469663E+02  0.41581324610E+02  0.13806285618E+03  0.12509000000E+03 0.  0.
<mgrwt>
<rscale>  2 0.45622422E+03</rscale>
<asrwt>0</asrwt>
<pdfrwt beam="1">  1       21 0.39170790E-01 0.45622422E+03</pdfrwt>
<pdfrwt beam="2">  1       21 0.28728737E-01 0.45622422E+03</pdfrwt>
<totfact> 0.67395254E+04</totfact>
</mgrwt>
</event>
<event>
 7    0  0.4725730E-002  0.4557783E+03  0.7546771E-02  0.1026013E+00
         21   -1    0    0  502  501  0.00000000000E+00  0.00000000000E+00  0.14324866139E+04  0.14324866139E+04  0.00000000000E+00 0.  1.
         21   -1    0    0  501  502 -0.00000000000E+00 -0.00000000000E+00 -0.36254061942E+02  0.36254061942E+02  0.00000000000E+00 0.  1.
      99926    2    1    2    0    0 -0.71054273576E-14  0.00000000000E+00  0.13962325519E+04  0.14687406758E+04  0.45577827254E+03 0.  0.
      99925    2    3    3    0    0  0.43020372700E+02  0.72465193255E+02  0.11236228815E+04  0.11571873141E+04  0.26353774551E+03 0.  0.
         25    1    4    4    0    0  0.49855089143E+02  0.62686122518E+02  0.53063625616E+03  0.55103305193E+03  0.12509000000E+03 0.  0.
         25    1    4    4    0    0 -0.68347164433E+01  0.97790707369E+01  0.59298662537E+03  0.60615426217E+03  0.12509000000E+03 0.  0.
         25    1    3    3    0    0 -0.43020372700E+02 -0.72465193255E+02  0.27260967039E+03  0.31155336170E+03  0.12509000000E+03 0.  0.
<mgrwt>
<rscale>  2 0.45577827E+03</rscale>
<asrwt>0</asrwt>
<pdfrwt beam="1">  1       21 0.21065976E+00 0.45577827E+03</pdfrwt>
<pdfrwt beam="2">  1       21 0.53314807E-02 0.45577827E+03</pdfrwt>
<totfact> 0.24407829E+04</totfact>
</mgrwt>
</event>
<event>
 7    0  0.4725730E-002  0.4447566E+03  0.7546771E-02  0.1029297E+00
         21   -1    0    0  502  501  0.00000000000E+00  0.00000000000E+00  0.12812146996E+03  0.12812146996E+03  0.00000000000E+00 0. -1.
         21   -1    0    0  501  502 -0.00000000000E+00 -0.00000000000E+00 -0.38597828458E+03  0.38597828458E+03  0.00000000000E+00 0. -1.
      99926    2    1    2    0    0  0.17763568394E-14  0.71054273576E-14 -0.25785681463E+03  0.51409975454E+03  0.44475658597E+03 0.  0.
      99925    2    3    3    0    0 -0.14087168101E+02 -0.52136611956E+02 -0.26555217512E+03  0.37763217126E+03  0.26300460918E+03 0.  0.
         25    1    4    4    0    0  0.15894131881E+02 -0.58262161001E+02 -0.15240223295E+03  0.20620633244E+03  0.12509000000E+03 0.  0.
         25    1    4    4    0    0 -0.29981299982E+02  0.61255490451E+01 -0.11314994218E+03  0.17142583882E+03  0.12509000000E+03 0.  0.
         25    1    3    3    0    0  0.14087168101E+02  0.52136611956E+02  0.76953604984E+01  0.13646758327E+03  0.12509000000E+03 0.  0.
<mgrwt>
<rscale>  2 0.44475659E+03</rscale>
<asrwt>0</asrwt>
<pdfrwt beam="1">  1       21 0.18841393E-01 0.44475659E+03</pdfrwt>
<pdfrwt beam="2">  1       21 0.56761512E-01 0.44475659E+03</pdfrwt>
<totfact> 0.69792807E+04</totfact>
</mgrwt>
</event>
<event>
 7    0  0.4725730E-002  0.4536384E+03  0.7546771E-02  0.1026643E+00
         21   -1    0    0  502  501  0.00000000000E+00  0.00000000000E+00  0.61893134473E+03  0.61893134473E+03  0.00000000000E+00 0. -1.
         21   -1    0    0  501  502 -0.00000000000E+00 -0.00000000000E+00 -0.83122223720E+02  0.83122223720E+02  0.00000000000E+00 0. -1.
      99926    2    1    2    0    0 -0.17763568394E-14  0.00000000000E+00  0.53580912101E+03  0.70205356845E+03  0.45363840095E+03 0.  0.
      99925    2    3    3    0    0 -0.11833641371E+02 -0.38803331814E+02  0.17563576748E+03  0.31862419253E+03  0.26273126882E+03 0.  0.
         25    1    3    3    0    0  0.11833641371E+02  0.38803331814E+02  0.36017335353E+03  0.38342937593E+03  0.12509000000E+03 0.  0.
         25    1    4    4    0    0 -0.35677532770E+02 -0.46811495251E+02  0.90274696938E+02  0.16510975574E+03  0.12509000000E+03 0.  0.
         25    1    4    4    0    0  0.23843891399E+02  0.80081634365E+01  0.85361070542E+02  0.15351443679E+03  0.12509000000E+03 0.  0.
<mgrwt>
<rscale>  2 0.45363840E+03</rscale>
<asrwt>0</asrwt>
<pdfrwt beam="1">  1       21 0.91019312E-01 0.45363840E+03</pdfrwt>
<pdfrwt beam="2">  1       21 0.12223857E-01 0.45363840E+03</pdfrwt>
<totfact> 0.53361062E+04</totfact>
</mgrwt>
</event>
<event>
 7    0  0.4725730E-002  0.4529257E+03  0.7546771E-02  0.1026853E+00
         21   -1    0    0  502  501  0.00000000000E+00  0.00000000000E+00  0.17522951725E+03  0.17522951725E+03  0.00000000000E+00 0. -1.
         21   -1    0    0  501  502 -0.00000000000E+00 -0.00000000000E+00 -0.29267574236E+03  0.29267574236E+03  0.00000000000E+00 0. -1.
      99926    2    1    2    0    0  0.00000000000E+00 -0.14210854715E-13 -0.11744622511E+03  0.46790525961E+03  0.45292572921E+03 0.  0.
      99925    2    3    3    0    0  0.73796569394E+02  0.83085216503E+02 -0.76743011168E+02  0.29570378871E+03  0.26306302294E+03 0.  0.
         25    1    3    3    0    0 -0.73796569394E+02 -0.83085216503E+02 -0.40703213946E+02  0.17220147090E+03  0.12509000000E+03 0.  0.
         25    1    4    4    0    0  0.10158926229E+01  0.17757451865E+02 -0.42170424180E+02  0.13319989456E+03  0.12509000000E+03 0.  0.
         25    1    4    4    0    0  0.72780676771E+02  0.65327764638E+02 -0.34572586988E+02  0.16250389415E+03  0.12509000000E+03 0.  0.
<mgrwt>
<rscale>  2 0.45292573E+03</rscale>
<asrwt>0</asrwt>
<pdfrwt beam="1">  1       21 0.25769047E-01 0.45292573E+03</pdfrwt>
<pdfrwt beam="2">  1       21 0.43040550E-01 0.45292573E+03</pdfrwt>
<totfact> 0.68715605E+04</totfact>
</mgrwt>
</event>
<event>
 6    0  0.4725730E-002  0.4445910E+03  0.7546771E-02  0.1029347E+00
         21   -1    0    0  502  501  0.00000000000E+00  0.00000000000E+00  0.61169828531E+03  0.61169828531E+03  0.00000000000E+00 0. -1.
         21   -1    0    0  501  502 -0.00000000000E+00 -0.00000000000E+00 -0.80783772822E+02  0.80783772822E+02  0.00000000000E+00 0. -1.
      99926    2    1    2    0    0  0.00000000000E+00  0.00000000000E+00  0.53091451249E+03  0.69248205814E+03  0.44459102697E+03 0.  0.
         25    1    3    3    0    0  0.56209658498E+02 -0.73505009288E+02  0.15844096444E+03  0.22206656527E+03  0.12509000000E+03 0.  0.
         25    1    3    3    0    0 -0.65196363650E+02  0.68186774612E+02  0.25001702069E+03  0.29505257295E+03  0.12509000000E+03 0.  0.
         25    1    3    3    0    0  0.89867051524E+01  0.53182346759E+01  0.12245652735E+03  0.17536291992E+03  0.12509000000E+03 0.  0.
<mgrwt>
<rscale>  2 0.44459103E+03</rscale>
<asrwt>0</asrwt>
<pdfrwt beam="1">  1       21 0.89955628E-01 0.44459103E+03</pdfrwt>
<pdfrwt beam="2">  1       21 0.11879967E-01 0.44459103E+03</pdfrwt>
<totfact> 0.57914225E+04</totfact>
</mgrwt>
</event>
<event>
 6    0  0.4725730E-002  0.4554657E+03  0.7546771E-02  0.1026105E+00
         21   -1    0    0  502  501  0.00000000000E+00  0.00000000000E+00  0.27285984134E+02  0.27285984134E+02  0.00000000000E+00 0.  1.
         21   -1    0    0  501  502 -0.00000000000E+00 -0.00000000000E+00 -0.19006915602E+04  0.19006915602E+04  0.00000000000E+00 0.  1.
      99926    2    1    2    0    0 -0.35527136788E-14  0.14210854715E-13 -0.18734055761E+04  0.19279775444E+04  0.45546565076E+03 0.  0.
         25    1    3    3    0    0  0.20100546507E+02  0.51260406573E+02 -0.45167751898E+03  0.47190226795E+03  0.12509000000E+03 0.  0.
         25    1    3    3    0    0  0.31632019180E+02 -0.91435831189E+02 -0.96958583271E+03  0.98239772544E+03  0.12509000000E+03 0.  0.
         25    1    3    3    0    0 -0.51732565687E+02  0.40175424616E+02 -0.45214222441E+03  0.47367755097E+03  0.12509000000E+03 0.  0.
<mgrwt>
<rscale>  2 0.45546565E+03</rscale>
<asrwt>0</asrwt>
<pdfrwt beam="1">  1       21 0.40126436E-02 0.45546565E+03</pdfrwt>
<pdfrwt beam="2">  1       21 0.27951354E+00 0.45546565E+03</pdfrwt>
<totfact> 0.14867702E+04</totfact>
</mgrwt>
</event>
<event>
 7    0  0.4725730E-002  0.4970327E+03  0.7546771E-02  0.1014556E+00
         21   -1    0    0  502  501  0.00000000000E+00  0.00000000000E+00  0.15433451406E+04  0.15433451406E+04  0.00000000000E+00 0. -1.
         21   -1    0    0  501  502 -0.00000000000E+00 -0.00000000000E+00 -0.40017212451E+02  0.40017212451E+02  0.00000000000E+00 0. -1.
      99926    2    1    2    0    0  0.00000000000E+00  0.00000000000E+00  0.15033279282E+04  0.15833623531E+04  0.49703267650E+03 0.  0.
      99925    2    3    3    0    0  0.41994665206E+02  0.88237543825E+02  0.12736173300E+04  0.13041422194E+04  0.26293803275E+03 0.  0.
         25    1    4    4    0    0  0.48540776184E+02  0.77106785375E+02  0.70275483665E+03  0.71959261520E+03  0.12509000000E+03 0.  0.
         25    1    4    4    0    0 -0.65461109776E+01  0.11130758449E+02  0.57086249333E+03  0.58454960418E+03  0.12509000000E+03 0.  0.
         25    1    3    3    0    0 -0.41994665206E+02 -0.88237543825E+02  0.22971059821E+03  0.27922013372E+03  0.12509000000E+03 0.  0.
<mgrwt>
<rscale>  2 0.49703268E+03</rscale>
<asrwt>0</asrwt>
<pdfrwt beam="1">  1       21 0.22696248E+00 0.49703268E+03</pdfrwt>
<pdfrwt beam="2">  1       21 0.58848852E-02 0.49703268E+03</pdfrwt>
<totfact> 0.15936987E+04</totfact>
</mgrwt>
</event>
<event>
 7    0  0.4725730E-002  0.4543520E+03  0.7546771E-02  0.1026432E+00
         21   -1    0    0  502  501  0.00000000000E+00  0.00000000000E+00  0.10959116180E+03  0.10959116180E+03  0.00000000000E+00 0. -1.
         21   -1    0    0  501  502 -0.00000000000E+00 -0.00000000000E+00 -0.47092236330E+03  0.47092236330E+03  0.00000000000E+00 0. -1.
      99926    2    1    2    0    0  0.14210854715E-13  0.14210854715E-13 -0.36133120150E+03  0.58051352510E+03  0.45435197331E+03 0.  0.
      99925    2    3    3    0    0 -0.81328351185E+02 -0.77099744065E+02 -0.24102051925E+03  0.37392010894E+03  0.26299560058E+03 0.  0.
         25    1    4    4    0    0 -0.82614983811E+02 -0.36236074692E+02 -0.12661870920E+03  0.19954471749E+03  0.12509000000E+03 0.  0.
         25    1    3    3    0    0  0.81328351185E+02  0.77099744065E+02 -0.12031068224E+03  0.20659341617E+03  0.12509000000E+03 0.  0.
         25    1    4    4    0    0  0.12866326265E+01 -0.40863669373E+02 -0.11440181005E+03  0.17437539145E+03  0.12509000000E+03 0.  0.
<mgrwt>
<rscale>  2 0.45435197E+03</rscale>
<asrwt>0</asrwt>
<pdfrwt beam="1">  1       21 0.16116347E-01 0.45435197E+03</pdfrwt>
<pdfrwt beam="2">  1       21 0.69253288E-01 0.45435197E+03</pdfrwt>
<totfact> 0.60201856E+04</totfact>
</mgrwt>
</event>
<event>
 7    0  0.4725730E-002  0.5183316E+03  0.7546771E-02  0.1009102E+00
         21   -1    0    0  502  501  0.00000000000E+00  0.00000000000E+00  0.60669090330E+02  0.60669090330E+02  0.00000000000E+00 0. -1.
         21   -1    0    0  501  502 -0.00000000000E+00 -0.00000000000E+00 -0.11071026635E+04  0.11071026635E+04  0.00000000000E+00 0. -1.
      99926    2    1    2    0    0  0.00000000000E+00  0.00000000000E+00 -0.10464335732E+04  0.11677717539E+04  0.51833159849E+03 0.  0.
      99925    2    3    3    0    0  0.10202985001E+03  0.13048115600E+03 -0.61738447165E+03  0.69115234385E+03  0.26285462562E+03 0.  0.
         25    1    4    4    0    0  0.57922388544E+02  0.58563192526E+02 -0.39474483257E+03  0.42220331779E+03  0.12509000000E+03 0.  0.
         25    1    3    3    0    0 -0.10202985001E+03 -0.13048115600E+03 -0.42904910156E+03  0.47661941003E+03  0.12509000000E+03 0.  0.
         25    1    4    4    0    0  0.44107461464E+02  0.71917963469E+02 -0.22263963908E+03  0.26894902606E+03  0.12509000000E+03 0.  0.
<mgrwt>
<rscale>  2 0.51833160E+03</rscale>
<asrwt>0</asrwt>
<pdfrwt beam="1">  1       21 0.89219266E-02 0.51833160E+03</pdfrwt>
<pdfrwt beam="2">  1       21 0.16280919E+00 0.51833160E+03</pdfrwt>
<totfact> 0.20848462E+04</totfact>
</mgrwt>
</event>
<event>
 7    0  0.4725730E-002  0.4533967E+03  0.7546771E-02  0.1026714E+00
         21   -1    0    0  502  501  0.00000000000E+00  0.00000000000E+00  0.15155573207E+03  0.15155573207E+03  0.00000000000E+00 0.  1.
         21   -1    0    0  501  502 -0.00000000000E+00 -0.00000000000E+00 -0.33909724189E+03  0.33909724189E+03  0.00000000000E+00 0.  1.
      99926    2    1    2    0    0  0.00000000000E+00  0.00000000000E+00 -0.18754150982E+03  0.49065297395E+03  0.45339665078E+03 0.  0.
      99925    2    3    3    0    0 -0.64914186066E+02  0.61684215610E+02 -0.45950743726E+02  0.28157345044E+03  0.26297023241E+03 0.  0.
         25    1    4    4    0    0  0.23606739885E+01  0.51614636546E+02 -0.19273717309E+02  0.13670635598E+03  0.12509000000E+03 0.  0.
         25    1    4    4    0    0 -0.67274860055E+02  0.10069579064E+02 -0.26677026418E+02  0.14486709446E+03  0.12509000000E+03 0.  0.
         25    1    3    3    0    0  0.64914186066E+02 -0.61684215610E+02 -0.14159076609E+03  0.20907952351E+03  0.12509000000E+03 0.  0.
<mgrwt>
<rscale>  2 0.45339665E+03</rscale>
<asrwt>0</asrwt>
<pdfrwt beam="1">  1       21 0.22287608E-01 0.45339665E+03</pdfrwt>
<pdfrwt beam="2">  1       21 0.49867242E-01 0.45339665E+03</pdfrwt>
<totfact> 0.66778381E+04</totfact>
</mgrwt>
</event>
<event>
 7    0  0.4725730E-002  0.4092715E+03  0.7546771E-02  0.1040616E+00
         21   -1    0    0  502  501  0.00000000000E+00  0.00000000000E+00  0.54305654783E+03  0.54305654783E+03  0.00000000000E+00 0. -1.
         21   -1    0    0  501  502 -0.00000000000E+00 -0.00000000000E+00 -0.77111273564E+02  0.77111273564E+02  0.00000000000E+00 0. -1.
      99926    2    1    2    0    0  0.00000000000E+00 -0.35527136788E-14  0.46594527427E+03  0.62016782140E+03  0.40927146014E+03 0.  0.
      99925    2    3    3    0    0 -0.52903481200E+02  0.25712930533E+02  0.28206439131E+03  0.39012517245E+03  0.26301596189E+03 0.  0.
         25    1    3    3    0    0  0.52903481200E+02 -0.25712930533E+02  0.18388088296E+03  0.23004264895E+03  0.12509000000E+03 0.  0.
         25    1    4    4    0    0 -0.22670093864E+02  0.48025772089E+02  0.17280716083E+03  0.21984137662E+03  0.12509000000E+03 0.  0.
         25    1    4    4    0    0 -0.30233387335E+02 -0.22312841555E+02  0.10925723048E+03  0.17028379582E+03  0.12509000000E+03 0.  0.
<mgrwt>
<rscale>  2 0.40927146E+03</rscale>
<asrwt>0</asrwt>
<pdfrwt beam="1">  1       21 0.79861255E-01 0.40927146E+03</pdfrwt>
<pdfrwt beam="2">  1       21 0.11339893E-01 0.40927146E+03</pdfrwt>
<totfact> 0.83861447E+04</totfact>
</mgrwt>
</event>
<event>
 7    0  0.4725730E-002  0.4504502E+03  0.7546771E-02  0.1027588E+00
         21   -1    0    0  502  501  0.00000000000E+00  0.00000000000E+00  0.87543254853E+03  0.87543254853E+03  0.00000000000E+00 0.  1.
         21   -1    0    0  501  502 -0.00000000000E+00 -0.00000000000E+00 -0.57944324719E+02  0.57944324719E+02  0.00000000000E+00 0.  1.
      99926    2    1    2    0    0  0.00000000000E+00 -0.71054273576E-14  0.81748822381E+03  0.93337687325E+03  0.45045020973E+03 0.  0.
      99925    2    3    3    0    0 -0.88784955828E+02  0.47456072877E+02  0.60053439046E+03  0.66346703434E+03  0.26346177008E+03 0.  0.
         25    1    4    4    0    0 -0.37907727038E+02 -0.15484813897E+02  0.24856638667E+03  0.28126416749E+03  0.12509000000E+03 0.  0.
         25    1    3    3    0    0  0.88784955828E+02 -0.47456072877E+02  0.21695383335E+03  0.26990983891E+03  0.12509000000E+03 0.  0.
         25    1    4    4    0    0 -0.50877228790E+02  0.62940886774E+02  0.35196800379E+03  0.38220286685E+03  0.12509000000E+03 0.  0.
<mgrwt>
<rscale>  2 0.45045021E+03</rscale>
<asrwt>0</asrwt>
<pdfrwt beam="1">  1       21 0.12874007E+00 0.45045021E+03</pdfrwt>
<pdfrwt beam="2">  1       21 0.85212248E-02 0.45045021E+03</pdfrwt>
<totfact> 0.43343291E+04</totfact>
</mgrwt>
</event>
<event>
 7    0  0.4725730E-002  0.4526353E+03  0.7546771E-02  0.1026939E+00
         21   -1    0    0  502  501  0.00000000000E+00  0.00000000000E+00  0.21547252929E+03  0.21547252929E+03  0.00000000000E+00 0.  1.
         21   -1    0    0  501  502 -0.00000000000E+00 -0.00000000000E+00 -0.23770857813E+03  0.23770857813E+03  0.00000000000E+00 0.  1.
      99926    2    1    2    0    0  0.71054273576E-14  0.00000000000E+00 -0.22236048844E+02  0.45318110742E+03  0.45263525520E+03 0.  0.
      99925    2    3    3    0    0  0.61983447330E+02  0.48554918862E+02 -0.92086442200E+02  0.28969987473E+03  0.26314744288E+03 0.  0.
         25    1    4    4    0    0  0.59966681493E+02 -0.43448548556E+01 -0.49434784197E+02  0.14733019596E+03  0.12509000000E+03 0.  0.
         25    1    3    3    0    0 -0.61983447330E+02 -0.48554918862E+02  0.69850393356E+02  0.16348123269E+03  0.12509000000E+03 0.  0.
         25    1    4    4    0    0  0.20167658367E+01  0.52899773717E+02 -0.42651658003E+02  0.14236967877E+03  0.12509000000E+03 0.  0.
<mgrwt>
<rscale>  2 0.45263526E+03</rscale>
<asrwt>0</asrwt>
<pdfrwt beam="1">  1       21 0.31687137E-01 0.45263526E+03</pdfrwt>
<pdfrwt beam="2">  1       21 0.34957144E-01 0.45263526E+03</pdfrwt>
<totfact> 0.69990563E+04</totfact>
</mgrwt>
</event>
<event>
 7    0  0.4725730E-002  0.4619741E+03  0.7546771E-02  0.1024210E+00
         21   -1    0    0  502  501  0.00000000000E+00  0.00000000000E+00  0.34014301162E+03  0.34014301162E+03  0.00000000000E+00 0.  1.
         21   -1    0    0  501  502 -0.00000000000E+00 -0.00000000000E+00 -0.15686054279E+03  0.15686054279E+03  0.00000000000E+00 0.  1.
      99926    2    1    2    0    0 -0.35527136788E-14 -0.14210854715E-13  0.18328246883E+03  0.49700355441E+03  0.46197410070E+03 0.  0.
      99925    2    3    3    0    0  0.26555081497E+02  0.10108694120E+03  0.52722326685E+02  0.28815623973E+03  0.26330710725E+03 0.  0.
         25    1    4    4    0    0 -0.11163950971E+02  0.75962039414E+02  0.50083936003E+02  0.15508311958E+03  0.12509000000E+03 0.  0.
         25    1    4    4    0    0  0.37719032468E+02  0.25124901787E+02  0.26383906822E+01  0.13307312015E+03  0.12509000000E+03 0.  0.
         25    1    3    3    0    0 -0.26555081497E+02 -0.10108694120E+03  0.13056014214E+03  0.20884731468E+03  0.12509000000E+03 0.  0.
<mgrwt>
<rscale>  2 0.46197410E+03</rscale>
<asrwt>0</asrwt>
<pdfrwt beam="1">  1       21 0.50021031E-01 0.46197410E+03</pdfrwt>
<pdfrwt beam="2">  1       21 0.23067727E-01 0.46197410E+03</pdfrwt>
<totfact> 0.61978533E+04</totfact>
</mgrwt>
</event>
<event>
 7    0  0.4725730E-002  0.4514792E+03  0.7546771E-02  0.1027282E+00
         21   -1    0    0  502  501  0.00000000000E+00  0.00000000000E+00  0.10115737075E+03  0.10115737075E+03  0.00000000000E+00 0. -1.
         21   -1    0    0  501  502 -0.00000000000E+00 -0.00000000000E+00 -0.50375336980E+03  0.50375336980E+03  0.00000000000E+00 0. -1.
      99926    2    1    2    0    0  0.22204460493E-15  0.00000000000E+00 -0.40259599905E+03  0.60491074054E+03  0.45147919727E+03 0.  0.
      99925    2    3    3    0    0 -0.18784537939E+01  0.91133650895E+02 -0.17235085269E+03  0.32747749373E+03  0.26311180430E+03 0.  0.
         25    1    4    4    0    0  0.25751034559E+02  0.34322389617E+02 -0.49791408647E+02  0.14130758891E+03  0.12509000000E+03 0.  0.
         25    1    3    3    0    0  0.18784537939E+01 -0.91133650895E+02 -0.23024514636E+03  0.27743324681E+03  0.12509000000E+03 0.  0.
         25    1    4    4    0    0 -0.27629488353E+02  0.56811261278E+02 -0.12255944404E+03  0.18616990481E+03  0.12509000000E+03 0.  0.
<mgrwt>
<rscale>  2 0.45147920E+03</rscale>
<asrwt>0</asrwt>
<pdfrwt beam="1">  1       21 0.14876084E-01 0.45147920E+03</pdfrwt>
<pdfrwt beam="2">  1       21 0.74081376E-01 0.45147920E+03</pdfrwt>
<totfact> 0.60029343E+04</totfact>
</mgrwt>
</event>
<event>
 7    0  0.4725730E-002  0.4570294E+03  0.7546771E-02  0.1025646E+00
         21   -1    0    0  502  501  0.00000000000E+00  0.00000000000E+00  0.33745240132E+03  0.33745240132E+03  0.00000000000E+00 0. -1.
         21   -1    0    0  501  502 -0.00000000000E+00 -0.00000000000E+00 -0.15474467460E+03  0.15474467460E+03  0.00000000000E+00 0. -1.
      99926    2    1    2    0    0  0.00000000000E+00  0.00000000000E+00  0.18270772672E+03  0.49219707592E+03  0.45702937340E+03 0.  0.
      99925    2    3    3    0    0  0.39435364382E+02  0.10726208168E+03  0.12847855899E+03  0.31429650577E+03  0.26308791551E+03 0.  0.
         25    1    3    3    0    0 -0.39435364382E+02 -0.10726208168E+03  0.54229167728E+02  0.17790057016E+03  0.12509000000E+03 0.  0.
         25    1    4    4    0    0  0.31177316600E+01  0.25218982757E+02  0.88267005444E+02  0.15519113922E+03  0.12509000000E+03 0.  0.
         25    1    4    4    0    0  0.36317632722E+02  0.82043098918E+02  0.40211553546E+02  0.15910536655E+03  0.12509000000E+03 0.  0.
<mgrwt>
<rscale>  2 0.45702937E+03</rscale>
<asrwt>0</asrwt>
<pdfrwt beam="1">  1       21 0.49625353E-01 0.45702937E+03</pdfrwt>
<pdfrwt beam="2">  1       21 0.22756570E-01 0.45702937E+03</pdfrwt>
<totfact> 0.64772560E+04</totfact>
</mgrwt>
</event>
<event>
 7    0  0.4725730E-002  0.4495821E+03  0.7546771E-02  0.1027847E+00
         21   -1    0    0  502  501  0.00000000000E+00  0.00000000000E+00  0.18511991080E+03  0.18511991080E+03  0.00000000000E+00 0. -1.
         21   -1    0    0  501  502 -0.00000000000E+00 -0.00000000000E+00 -0.27296373280E+03  0.27296373280E+03  0.00000000000E+00 0. -1.
      99926    2    1    2    0    0  0.00000000000E+00  0.00000000000E+00 -0.87843822001E+02  0.45808364360E+03  0.44958212539E+03 0.  0.
      99925    2    3    3    0    0 -0.67625230318E+02  0.37996078838E+02  0.21131389803E+02  0.27494441058E+03  0.26292778380E+03 0.  0.
         25    1    4    4    0    0 -0.53712660694E+02 -0.15516086749E+02  0.17525972707E+02  0.13813206248E+03  0.12509000000E+03 0.  0.
         25    1    4    4    0    0 -0.13912569623E+02  0.53512165587E+02  0.36054170964E+01  0.13681234810E+03  0.12509000000E+03 0.  0.
         25    1    3    3    0    0  0.67625230318E+02 -0.37996078838E+02 -0.10897521180E+03  0.18313923302E+03  0.12509000000E+03 0.  0.
<mgrwt>
<rscale>  2 0.44958213E+03</rscale>
<asrwt>0</asrwt>
<pdfrwt beam="1">  1       21 0.27223516E-01 0.44958213E+03</pdfrwt>
<pdfrwt beam="2">  1       21 0.40141725E-01 0.44958213E+03</pdfrwt>
<totfact> 0.71350501E+04</totfact>
</mgrwt>
</event>
<event>
 7    0  0.4725730E-002  0.4547849E+03  0.7546771E-02  0.1026305E+00
         21   -1    0    0  502  501  0.00000000000E+00  0.00000000000E+00  0.49382139978E+03  0.49382139978E+03  0.00000000000E+00 0.  1.
         21   -1    0    0  501  502 -0.00000000000E+00 -0.00000000000E+00 -0.10470856187E+03  0.10470856187E+03  0.00000000000E+00 0.  1.
      99926    2    1    2    0    0 -0.14210854715E-13  0.17763568394E-14  0.38911283791E+03  0.59852996166E+03  0.45478491001E+03 0.  0.
      99925    2    3    3    0    0  0.11060304289E+03  0.14913001425E+02  0.22162707332E+03  0.36156072283E+03  0.26296799417E+03 0.  0.
         25    1    4    4    0    0  0.42194845602E+02  0.41791821737E+02  0.86323288968E+02  0.16317530352E+03  0.12509000000E+03 0.  0.
         25    1    3    3    0    0 -0.11060304289E+03 -0.14913001425E+02  0.16748576459E+03  0.23696923882E+03  0.12509000000E+03 0.  0.
         25    1    4    4    0    0  0.68408197291E+02 -0.26878820311E+02  0.13530378435E+03  0.19838541932E+03  0.12509000000E+03 0.  0.
<mgrwt>
<rscale>  2 0.45478491E+03</rscale>
<asrwt>0</asrwt>
<pdfrwt beam="1">  1       21 0.72620793E-01 0.45478491E+03</pdfrwt>
<pdfrwt beam="2">  1       21 0.15398318E-01 0.45478491E+03</pdfrwt>
<totfact> 0.58868830E+04</totfact>
</mgrwt>
</event>
<event>
 7    0  0.4725730E-002  0.4521156E+03  0.7546771E-02  0.1027093E+00
         21   -1    0    0  502  501  0.00000000000E+00  0.00000000000E+00  0.11982389842E+04  0.11982389842E+04  0.00000000000E+00 0.  1.
         21   -1    0    0  501  502 -0.00000000000E+00 -0.00000000000E+00 -0.42647690629E+02  0.42647690629E+02  0.00000000000E+00 0.  1.
      99926    2    1    2    0    0  0.00000000000E+00  0.00000000000E+00  0.11555912936E+04  0.12408866748E+04  0.45211558477E+03 0.  0.
      99925    2    3    3    0    0  0.80904234761E+02 -0.11151339848E+02  0.52259464581E+03  0.59050054970E+03  0.26251835704E+03 0.  0.
         25    1    4    4    0    0  0.63221021041E+02 -0.37084880987E+02  0.30131318705E+03  0.33437902251E+03  0.12509000000E+03 0.  0.
         25    1    4    4    0    0  0.17683213720E+02  0.25933541139E+02  0.22128145875E+03  0.25612152719E+03  0.12509000000E+03 0.  0.
         25    1    3    3    0    0 -0.80904234761E+02  0.11151339848E+02  0.63299664778E+03  0.65038612514E+03  0.12509000000E+03 0.  0.
<mgrwt>
<rscale>  2 0.45211558E+03</rscale>
<asrwt>0</asrwt>
<pdfrwt beam="1">  1       21 0.17621159E+00 0.45211558E+03</pdfrwt>
<pdfrwt beam="2">  1       21 0.62717200E-02 0.45211558E+03</pdfrwt>
<totfact> 0.31584245E+04</totfact>
</mgrwt>
</event>
<event>
 7    0  0.4725730E-002  0.4551923E+03  0.7546771E-02  0.1026185E+00
         21   -1    0    0  502  501  0.00000000000E+00  0.00000000000E+00  0.11061140276E+03  0.11061140276E+03  0.00000000000E+00 0. -1.
         21   -1    0    0  501  502 -0.00000000000E+00 -0.00000000000E+00 -0.46830623253E+03  0.46830623253E+03  0.00000000000E+00 0. -1.
      99926    2    1    2    0    0  0.14210854715E-13  0.00000000000E+00 -0.35769482977E+03  0.57891763528E+03  0.45519230793E+03 0.  0.
      99925    2    3    3    0    0  0.10226162534E+03  0.11160894005E+02 -0.28532509845E+03  0.40152853843E+03  0.26312116941E+03 0.  0.
         25    1    4    4    0    0  0.29087383974E+02 -0.27482102076E+02 -0.11487159433E+03  0.17448304538E+03  0.12509000000E+03 0.  0.
         25    1    3    3    0    0 -0.10226162534E+03 -0.11160894005E+02 -0.72369731320E+02  0.17738909686E+03  0.12509000000E+03 0.  0.
         25    1    4    4    0    0  0.73174241368E+02  0.38642996081E+02 -0.17045350412E+03  0.22704549305E+03  0.12509000000E+03 0.  0.
<mgrwt>
<rscale>  2 0.45519231E+03</rscale>
<asrwt>0</asrwt>
<pdfrwt beam="1">  1       21 0.16266383E-01 0.45519231E+03</pdfrwt>
<pdfrwt beam="2">  1       21 0.68868563E-01 0.45519231E+03</pdfrwt>
<totfact> 0.59903948E+04</totfact>
</mgrwt>
</event>
<event>
 7    0  0.4725730E-002  0.4561824E+03  0.7546771E-02  0.1025894E+00
         21   -1    0    0  502  501  0.00000000000E+00  0.00000000000E+00  0.30579860934E+03  0.30579860934E+03  0.00000000000E+00 0.  1.
         21   -1    0    0  501  502 -0.00000000000E+00 -0.00000000000E+00 -0.17013027952E+03  0.17013027952E+03  0.00000000000E+00 0.  1.
      99926    2    1    2    0    0  0.00000000000E+00  0.00000000000E+00  0.13566832982E+03  0.47592888886E+03  0.45618243230E+03 0.  0.
      99925    2    3    3    0    0 -0.73504367561E+02  0.79453501703E+02  0.12396687835E+03  0.31009709743E+03  0.26282441272E+03 0.  0.
         25    1    3    3    0    0  0.73504367561E+02 -0.79453501703E+02  0.11701451474E+02  0.16583179143E+03  0.12509000000E+03 0.  0.
         25    1    4    4    0    0 -0.35400901614E+02  0.81262720376E+02  0.61846854731E+02  0.16531604610E+03  0.12509000000E+03 0.  0.
         25    1    4    4    0    0 -0.38103465947E+02 -0.18092186728E+01  0.62120023618E+02  0.14478105133E+03  0.12509000000E+03 0.  0.
<mgrwt>
<rscale>  2 0.45618243E+03</rscale>
<asrwt>0</asrwt>
<pdfrwt beam="1">  1       21 0.44970384E-01 0.45618243E+03</pdfrwt>
<pdfrwt beam="2">  1       21 0.25019159E-01 0.45618243E+03</pdfrwt>
<totfact> 0.66372656E+04</totfact>
</mgrwt>
</event>
<event>
 7    0  0.4725730E-002  0.4217989E+03  0.7546771E-02  0.1036482E+00
         21   -1    0    0  502  501  0.00000000000E+00  0.00000000000E+00  0.49670249966E+02  0.49670249966E+02  0.00000000000E+00 0.  1.
         21   -1    0    0  501  502 -0.00000000000E+00 -0.00000000000E+00 -0.89547719806E+03  0.89547719806E+03  0.00000000000E+00 0.  1.
      99926    2    1    2    0    0  0.35527136788E-14  0.00000000000E+00 -0.84580694810E+03  0.94514744803E+03  0.42179889173E+03 0.  0.
      99925    2    3    3    0    0  0.18527581417E+02  0.66326975411E+02 -0.63225323012E+03  0.68825206562E+03  0.26306694945E+03 0.  0.
         25    1    3    3    0    0 -0.18527581417E+02 -0.66326975411E+02 -0.21355371797E+03  0.25689538241E+03  0.12509000000E+03 0.  0.
         25    1    4    4    0    0 -0.22005524360E+02  0.67633789347E+01 -0.31449679116E+03  0.33924287192E+03  0.12509000000E+03 0.  0.
         25    1    4    4    0    0  0.40533105777E+02  0.59563596477E+02 -0.31775643896E+03  0.34900919370E+03  0.12509000000E+03 0.  0.
<mgrwt>
<rscale>  2 0.42179889E+03</rscale>
<asrwt>0</asrwt>
<pdfrwt beam="1">  1       21 0.73044486E-02 0.42179889E+03</pdfrwt>
<pdfrwt beam="2">  1       21 0.13168782E+00 0.42179889E+03</pdfrwt>
<totfact> 0.54069828E+04</totfact>
</mgrwt>
</event>
<event>
 7    0  0.4725730E-002  0.4538205E+03  0.7546771E-02  0.1026589E+00
         21   -1    0    0  502  501  0.00000000000E+00  0.00000000000E+00  0.16284734554E+03  0.16284734554E+03  0.00000000000E+00 0.  1.
         21   -1    0    0  501  502 -0.00000000000E+00 -0.00000000000E+00 -0.31617506614E+03  0.31617506614E+03  0.00000000000E+00 0.  1.
      99926    2    1    2    0    0  0.00000000000E+00  0.00000000000E+00 -0.15332772060E+03  0.47902241168E+03  0.45382053830E+03 0.  0.
      99925    2    3    3    0    0  0.55271414586E+02 -0.97469872044E+02 -0.98683904871E+02  0.30241901442E+03  0.26298943320E+03 0.  0.
         25    1    3    3    0    0 -0.55271414586E+02  0.97469872044E+02 -0.54643815728E+02  0.17660339726E+03  0.12509000000E+03 0.  0.
         25    1    4    4    0    0  0.28321854707E+02 -0.84460961575E+02 -0.77674356528E+02  0.17209472754E+03  0.12509000000E+03 0.  0.
         25    1    4    4    0    0  0.26949559879E+02 -0.13008910468E+02 -0.21009548343E+02  0.13032428688E+03  0.12509000000E+03 0.  0.
<mgrwt>
<rscale>  2 0.45382054E+03</rscale>
<asrwt>0</asrwt>
<pdfrwt beam="1">  1       21 0.23948139E-01 0.45382054E+03</pdfrwt>
<pdfrwt beam="2">  1       21 0.46496333E-01 0.45382054E+03</pdfrwt>
<totfact> 0.67400107E+04</totfact>
</mgrwt>
</event>
<event>
 7    0  0.4725730E-002  0.4541864E+03  0.7546771E-02  0.1026481E+00
         21   -1    0    0  502  501  0.00000000000E+00  0.00000000000E+00  0.78062845826E+02  0.78062845826E+02  0.00000000000E+00 0. -1.
         21   -1    0    0  501  502 -0.00000000000E+00 -0.00000000000E+00 -0.66063845500E+03  0.66063845500E+03  0.00000000000E+00 0. -1.
      99926    2    1    2    0    0  0.71054273576E-14  0.00000000000E+00 -0.58257560917E+03  0.73870130082E+03  0.45418638403E+03 0.  0.
      99925    2    3    3    0    0  0.35135267145E+02  0.90826674471E+02 -0.27503408830E+03  0.39270525034E+03  0.26284918132E+03 0.  0.
         25    1    3    3    0    0 -0.35135267145E+02 -0.90826674471E+02 -0.30754152087E+03  0.34599605048E+03  0.12509000000E+03 0.  0.
         25    1    4    4    0    0  0.51370296003E+02  0.57062308271E+02 -0.11698332626E+03  0.18769022633E+03  0.12509000000E+03 0.  0.
         25    1    4    4    0    0 -0.16235028858E+02  0.33764366200E+02 -0.15805076205E+03  0.20501502401E+03  0.12509000000E+03 0.  0.
<mgrwt>
<rscale>  2 0.45418638E+03</rscale>
<asrwt>0</asrwt>
<pdfrwt beam="1">  1       21 0.11479831E-01 0.45418638E+03</pdfrwt>
<pdfrwt beam="2">  1       21 0.97152709E-01 0.45418638E+03</pdfrwt>
<totfact> 0.51178167E+04</totfact>
</mgrwt>
</event>
<event>
 7    0  0.4725730E-002  0.4585404E+03  0.7546771E-02  0.1025205E+00
         21   -1    0    0  502  501  0.00000000000E+00  0.00000000000E+00  0.29632632873E+03  0.29632632873E+03  0.00000000000E+00 0. -1.
         21   -1    0    0  501  502 -0.00000000000E+00 -0.00000000000E+00 -0.17738834116E+03  0.17738834116E+03  0.00000000000E+00 0. -1.
      99926    2    1    2    0    0  0.00000000000E+00  0.00000000000E+00  0.11893798757E+03  0.47371466989E+03  0.45854044923E+03 0.  0.
      99925    2    3    3    0    0 -0.32648584097E+02  0.40739078412E+02  0.18212975401E+03  0.32416096716E+03  0.26302753237E+03 0.  0.
         25    1    4    4    0    0  0.55668268186E+01  0.32084706374E+02  0.12930996419E+03  0.18283597262E+03  0.12509000000E+03 0.  0.
         25    1    3    3    0    0  0.32648584097E+02 -0.40739078412E+02 -0.63191766435E+02  0.14955370272E+03  0.12509000000E+03 0.  0.
         25    1    4    4    0    0 -0.38215410915E+02  0.86543720387E+01  0.52819789812E+02  0.14132499454E+03  0.12509000000E+03 0.  0.
<mgrwt>
<rscale>  2 0.45854045E+03</rscale>
<asrwt>0</asrwt>
<pdfrwt beam="1">  1       21 0.43577402E-01 0.45854045E+03</pdfrwt>
<pdfrwt beam="2">  1       21 0.26086521E-01 0.45854045E+03</pdfrwt>
<totfact> 0.65306750E+04</totfact>
</mgrwt>
</event>
<event>
 7    0  0.4725730E-002  0.4466820E+03  0.7546771E-02  0.1028716E+00
         21   -1    0    0  502  501  0.00000000000E+00  0.00000000000E+00  0.16355577839E+03  0.16355577839E+03  0.00000000000E+00 0. -1.
         21   -1    0    0  501  502 -0.00000000000E+00 -0.00000000000E+00 -0.30497969864E+03  0.30497969864E+03  0.00000000000E+00 0. -1.
      99926    2    1    2    0    0 -0.71054273576E-14  0.00000000000E+00 -0.14142392026E+03  0.46853547703E+03  0.44668195398E+03 0.  0.
      99925    2    3    3    0    0 -0.16536802775E+02  0.10073450623E+03 -0.63133507482E+02  0.28909801321E+03  0.26300364043E+03 0.  0.
         25    1    4    4    0    0  0.32367383024E+02  0.49862297934E+02 -0.31519500173E+02  0.14203831606E+03  0.12509000000E+03 0.  0.
         25    1    3    3    0    0  0.16536802775E+02 -0.10073450623E+03 -0.78290412777E+02  0.17943746382E+03  0.12509000000E+03 0.  0.
         25    1    4    4    0    0 -0.48904185798E+02  0.50872208295E+02 -0.31614007309E+02  0.14705969714E+03  0.12509000000E+03 0.  0.
<mgrwt>
<rscale>  2 0.44668195E+03</rscale>
<asrwt>0</asrwt>
<pdfrwt beam="1">  1       21 0.24052321E-01 0.44668195E+03</pdfrwt>
<pdfrwt beam="2">  1       21 0.44849955E-01 0.44668195E+03</pdfrwt>
<totfact> 0.72193335E+04</totfact>
</mgrwt>
</event>
<event>
 7    0  0.4725730E-002  0.4526814E+03  0.7546771E-02  0.1026925E+00
         21   -1    0    0  502  501  0.00000000000E+00  0.00000000000E+00  0.37652878952E+03  0.37652878952E+03  0.00000000000E+00 0.  1.
         21   -1    0    0  501  502 -0.00000000000E+00 -0.00000000000E+00 -0.13605896691E+03  0.13605896691E+03  0.00000000000E+00 0.  1.
      99926    2    1    2    0    0  0.00000000000E+00  0.00000000000E+00  0.24046982261E+03  0.51258775643E+03  0.45268142491E+03 0.  0.
      99925    2    3    3    0    0 -0.53300288759E+02  0.92962186886E+02  0.11689020348E+03  0.30666952184E+03  0.26248807018E+03 0.  0.
         25    1    4    4    0    0  0.67943539005E+01  0.67762715971E+02  0.55967116102E+02  0.15302867413E+03  0.12509000000E+03 0.  0.
         25    1    3    3    0    0  0.53300288759E+02 -0.92962186886E+02  0.12357961913E+03  0.20591823459E+03  0.12509000000E+03 0.  0.
         25    1    4    4    0    0 -0.60094642660E+02  0.25199470915E+02  0.60923087383E+02  0.15364084772E+03  0.12509000000E+03 0.  0.
<mgrwt>
<rscale>  2 0.45268142E+03</rscale>
<asrwt>0</asrwt>
<pdfrwt beam="1">  1       21 0.55371881E-01 0.45268142E+03</pdfrwt>
<pdfrwt beam="2">  1       21 0.20008672E-01 0.45268142E+03</pdfrwt>
<totfact> 0.65593632E+04</totfact>
</mgrwt>
</event>
<event>
 7    0  0.4725730E-002  0.4539062E+03  0.7546771E-02  0.1026564E+00
         21   -1    0    0  502  501  0.00000000000E+00  0.00000000000E+00  0.50891056954E+02  0.50891056954E+02  0.00000000000E+00 0.  1.
         21   -1    0    0  501  502 -0.00000000000E+00 -0.00000000000E+00 -0.10121171966E+04  0.10121171966E+04  0.00000000000E+00 0.  1.
      99926    2    1    2    0    0  0.88817841970E-15  0.00000000000E+00 -0.96122613967E+03  0.10630082536E+04  0.45390621894E+03 0.  0.
      99925    2    3    3    0    0 -0.69680264859E+01 -0.79205141279E+02 -0.42017732652E+03  0.50202399880E+03  0.26297737897E+03 0.  0.
         25    1    4    4    0    0 -0.26774024067E+02 -0.19885563164E+02 -0.15270714709E+03  0.20019806407E+03  0.12509000000E+03 0.  0.
         25    1    4    4    0    0  0.19805997581E+02 -0.59319578115E+02 -0.26747017943E+03  0.30182593472E+03  0.12509000000E+03 0.  0.
         25    1    3    3    0    0  0.69680264859E+01  0.79205141279E+02 -0.54104881316E+03  0.56098425479E+03  0.12509000000E+03 0.  0.
<mgrwt>
<rscale>  2 0.45390622E+03</rscale>
<asrwt>0</asrwt>
<pdfrwt beam="1">  1       21 0.74839795E-02 0.45390622E+03</pdfrwt>
<pdfrwt beam="2">  1       21 0.14884075E+00 0.45390622E+03</pdfrwt>
<totfact> 0.37119516E+04</totfact>
</mgrwt>
</event>
<event>
 7    0  0.4725730E-002  0.4598419E+03  0.7546771E-02  0.1024827E+00
         21   -1    0    0  502  501  0.00000000000E+00  0.00000000000E+00  0.48938344145E+03  0.48938344145E+03  0.00000000000E+00 0. -1.
         21   -1    0    0  501  502 -0.00000000000E+00 -0.00000000000E+00 -0.10802092639E+03  0.10802092639E+03  0.00000000000E+00 0. -1.
      99926    2    1    2    0    0 -0.71054273576E-14  0.00000000000E+00  0.38136251507E+03  0.59740436784E+03  0.45984194112E+03 0.  0.
      99925    2    3    3    0    0  0.31177013868E+02 -0.75169237841E+02  0.34930679781E+03  0.44476918965E+03  0.26302466150E+03 0.  0.
         25    1    3    3    0    0 -0.31177013868E+02  0.75169237841E+02  0.32055717256E+02  0.15263517819E+03  0.12509000000E+03 0.  0.
         25    1    4    4    0    0 -0.24227055492E+02 -0.45286576853E+02  0.16670830845E+03  0.21465552047E+03  0.12509000000E+03 0.  0.
         25    1    4    4    0    0  0.55404069359E+02 -0.29882660989E+02  0.18259848936E+03  0.23011366918E+03  0.12509000000E+03 0.  0.
<mgrwt>
<rscale>  2 0.45984194E+03</rscale>
<asrwt>0</asrwt>
<pdfrwt beam="1">  1       21 0.71968152E-01 0.45984194E+03</pdfrwt>
<pdfrwt beam="2">  1       21 0.15885431E-01 0.45984194E+03</pdfrwt>
<totfact> 0.56639903E+04</totfact>
</mgrwt>
</event>
<event>
 7    0  0.4725730E-002  0.4477685E+03  0.7546771E-02  0.1028390E+00
         21   -1    0    0  502  501  0.00000000000E+00  0.00000000000E+00  0.45396675015E+03  0.45396675015E+03  0.00000000000E+00 0. -1.
         21   -1    0    0  501  502 -0.00000000000E+00 -0.00000000000E+00 -0.11041372173E+03  0.11041372173E+03  0.00000000000E+00 0. -1.
      99926    2    1    2    0    0  0.00000000000E+00  0.17763568394E-14  0.34355302842E+03  0.56438047188E+03  0.44776850459E+03 0.  0.
      99925    2    3    3    0    0 -0.33862033848E+02  0.84287042789E+01  0.34416096494E+03  0.43451300837E+03  0.26293935472E+03 0.  0.
         25    1    4    4    0    0 -0.27821047151E+02 -0.33944114844E+02  0.18522428314E+03  0.22777567202E+03  0.12509000000E+03 0.  0.
         25    1    3    3    0    0  0.33862033848E+02 -0.84287042789E+01 -0.60793651442E+00  0.12986746351E+03  0.12509000000E+03 0.  0.
         25    1    4    4    0    0 -0.60409866969E+01  0.42372819123E+02  0.15893668180E+03  0.20673733635E+03  0.12509000000E+03 0.  0.
<mgrwt>
<rscale>  2 0.44776850E+03</rscale>
<asrwt>0</asrwt>
<pdfrwt beam="1">  1       21 0.66759815E-01 0.44776850E+03</pdfrwt>
<pdfrwt beam="2">  1       21 0.16237312E-01 0.44776850E+03</pdfrwt>
<totfact> 0.64538841E+04</totfact>
</mgrwt>
</event>
<event>
 7    0  0.4725730E-002  0.4361745E+03  0.7546771E-02  0.1031927E+00
         21   -1    0    0  502  501  0.00000000000E+00  0.00000000000E+00  0.12131257593E+04  0.12131257593E+04  0.00000000000E+00 0. -1.
         21   -1    0    0  501  502 -0.00000000000E+00 -0.00000000000E+00 -0.39206204316E+02  0.39206204316E+02  0.00000000000E+00 0. -1.
      99926    2    1    2    0    0  0.00000000000E+00 -0.71054273576E-14  0.11739195550E+04  0.12523319636E+04  0.43617453562E+03 0.  0.
      99925    2    3    3    0    0  0.74748100364E+02 -0.44722619399E+02  0.85726444943E+03  0.90089867668E+03  0.26292336943E+03 0.  0.
         25    1    4    4    0    0  0.75102391492E+02 -0.69582118622E+01  0.47118702907E+03  0.49330873739E+03  0.12509000000E+03 0.  0.
         25    1    3    3    0    0 -0.74748100364E+02  0.44722619399E+02  0.31665510556E+03  0.35143328694E+03  0.12509000000E+03 0.  0.
         25    1    4    4    0    0 -0.35429112779E+00 -0.37764407537E+02  0.38607742036E+03  0.40758993929E+03  0.12509000000E+03 0.  0.
<mgrwt>
<rscale>  2 0.43617454E+03</rscale>
<asrwt>0</asrwt>
<pdfrwt beam="1">  1       21 0.17840082E+00 0.43617454E+03</pdfrwt>
<pdfrwt beam="2">  1       21 0.57656191E-02 0.43617454E+03</pdfrwt>
<totfact> 0.35445775E+04</totfact>
</mgrwt>
</event>
<event>
 7    0  0.4725730E-002  0.4565263E+03  0.7546771E-02  0.1025794E+00
         21   -1    0    0  502  501  0.00000000000E+00  0.00000000000E+00  0.12504049057E+03  0.12504049057E+03  0.00000000000E+00 0.  1.
         21   -1    0    0  501  502 -0.00000000000E+00 -0.00000000000E+00 -0.41669746993E+03  0.41669746993E+03  0.00000000000E+00 0.  1.
      99926    2    1    2    0    0  0.00000000000E+00  0.35527136788E-14 -0.29165697937E+03  0.54173796050E+03  0.45652625799E+03 0.  0.
      99925    2    3    3    0    0  0.19433093176E+02  0.27110934967E+02 -0.53470443888E+02  0.27064207029E+03  0.26320219212E+03 0.  0.
         25    1    3    3    0    0 -0.19433093176E+02 -0.27110934967E+02 -0.23818653548E+03  0.27109589021E+03  0.12509000000E+03 0.  0.
         25    1    4    4    0    0  0.19594703867E+02 -0.25784104222E+02 -0.19863519758E+02  0.13073193935E+03  0.12509000000E+03 0.  0.
         25    1    4    4    0    0 -0.16161069141E+00  0.52895039189E+02 -0.33606924129E+02  0.13991013094E+03  0.12509000000E+03 0.  0.
<mgrwt>
<rscale>  2 0.45652626E+03</rscale>
<asrwt>0</asrwt>
<pdfrwt beam="1">  1       21 0.18388308E-01 0.45652626E+03</pdfrwt>
<pdfrwt beam="2">  1       21 0.61279039E-01 0.45652626E+03</pdfrwt>
<totfact> 0.61667583E+04</totfact>
</mgrwt>
</event>
<event>
 7    0  0.4725730E-002  0.4510700E+03  0.7546771E-02  0.1027403E+00
         21   -1    0    0  502  501  0.00000000000E+00  0.00000000000E+00  0.20018614361E+03  0.20018614361E+03  0.00000000000E+00 0. -1.
         21   -1    0    0  501  502 -0.00000000000E+00 -0.00000000000E+00 -0.25409372889E+03  0.25409372889E+03  0.00000000000E+00 0. -1.
      99926    2    1    2    0    0  0.00000000000E+00  0.00000000000E+00 -0.53907585274E+02  0.45427987250E+03  0.45107003316E+03 0.  0.
      99925    2    3    3    0    0 -0.94814548751E+02  0.28363262610E+02  0.13053502087E+02  0.28128979001E+03  0.26298151784E+03 0.  0.
         25    1    4    4    0    0 -0.31912344749E+02 -0.24303575965E+02  0.40617188767E+01  0.13142704140E+03  0.12509000000E+03 0.  0.
         25    1    4    4    0    0 -0.62902204002E+02  0.52666838576E+02  0.89917832099E+01  0.14986274860E+03  0.12509000000E+03 0.  0.
         25    1    3    3    0    0  0.94814548751E+02 -0.28363262610E+02 -0.66961087361E+02  0.17299008249E+03  0.12509000000E+03 0.  0.
<mgrwt>
<rscale>  2 0.45107003E+03</rscale>
<asrwt>0</asrwt>
<pdfrwt beam="1">  1       21 0.29439139E-01 0.45107003E+03</pdfrwt>
<pdfrwt beam="2">  1       21 0.37366725E-01 0.45107003E+03</pdfrwt>
<totfact> 0.70792239E+04</totfact>
</mgrwt>
</event>
<event>
 7    0  0.4725730E-002  0.4527535E+03  0.7546771E-02  0.1026904E+00
         21   -1    0    0  502  501  0.00000000000E+00  0.00000000000E+00  0.17208782097E+03  0.17208782097E+03  0.00000000000E+00 0.  1.
         21   -1    0    0  501  502 -0.00000000000E+00 -0.00000000000E+00 -0.29779232809E+03  0.29779232809E+03  0.00000000000E+00 0.  1.
      99926    2    1    2    0    0  0.00000000000E+00  0.00000000000E+00 -0.12570450713E+03  0.46988014906E+03  0.45275349957E+03 0.  0.
      99925    2    3    3    0    0  0.28584368715E+02  0.55844892131E+01  0.31883433121E+02  0.26658302742E+03  0.26306216860E+03 0.  0.
         25    1    4    4    0    0 -0.29438887149E+01  0.15794473435E+02  0.50486032042E+02  0.13584726498E+03  0.12509000000E+03 0.  0.
         25    1    3    3    0    0 -0.28584368715E+02 -0.55844892131E+01 -0.15758794025E+03  0.20329712164E+03  0.12509000000E+03 0.  0.
         25    1    4    4    0    0  0.31528257430E+02 -0.10209984222E+02 -0.18602598921E+02  0.13073576244E+03  0.12509000000E+03 0.  0.
<mgrwt>
<rscale>  2 0.45275350E+03</rscale>
<asrwt>0</asrwt>
<pdfrwt beam="1">  1       21 0.25307033E-01 0.45275350E+03</pdfrwt>
<pdfrwt beam="2">  1       21 0.43792989E-01 0.45275350E+03</pdfrwt>
<totfact> 0.68660212E+04</totfact>
</mgrwt>
</event>
<event>
 7    0  0.4725730E-002  0.4569966E+03  0.7546771E-02  0.1025656E+00
         21   -1    0    0  502  501  0.00000000000E+00  0.00000000000E+00  0.29115539647E+03  0.29115539647E+03  0.00000000000E+00 0. -1.
         21   -1    0    0  501  502 -0.00000000000E+00 -0.00000000000E+00 -0.17932510946E+03  0.17932510946E+03  0.00000000000E+00 0. -1.
      99926    2    1    2    0    0  0.17763568394E-14  0.00000000000E+00  0.11183028701E+03  0.47048050593E+03  0.45699660104E+03 0.  0.
      99925    2    3    3    0    0  0.83723766855E+01  0.11447872430E+03  0.78728607326E+02  0.29751026482E+03  0.26294236831E+03 0.  0.
         25    1    4    4    0    0 -0.21650313953E+00  0.75861261087E+02  0.79104503383E+02  0.16631298315E+03  0.12509000000E+03 0.  0.
         25    1    4    4    0    0  0.85888798250E+01  0.38617463215E+02 -0.37589605707E+00  0.13119728168E+03  0.12509000000E+03 0.  0.
         25    1    3    3    0    0 -0.83723766855E+01 -0.11447872430E+03  0.33101679688E+02  0.17297024110E+03  0.12509000000E+03 0.  0.
<mgrwt>
<rscale>  2 0.45699660E+03</rscale>
<asrwt>0</asrwt>
<pdfrwt beam="1">  1       21 0.42816970E-01 0.45699660E+03</pdfrwt>
<pdfrwt beam="2">  1       21 0.26371340E-01 0.45699660E+03</pdfrwt>
<totfact> 0.66343032E+04</totfact>
</mgrwt>
</event>
<event>
 7    0  0.4725730E-002  0.4562594E+03  0.7546771E-02  0.1025872E+00
         21   -1    0    0  502  501  0.00000000000E+00  0.00000000000E+00  0.42597651902E+03  0.42597651902E+03  0.00000000000E+00 0. -1.
         21   -1    0    0  501  502 -0.00000000000E+00 -0.00000000000E+00 -0.12217379903E+03  0.12217379903E+03  0.00000000000E+00 0. -1.
      99926    2    1    2    0    0  0.14210854715E-13  0.00000000000E+00  0.30380271999E+03  0.54815031804E+03  0.45625944209E+03 0.  0.
      99925    2    3    3    0    0 -0.73074190663E+02  0.83561417093E+02  0.22363032405E+03  0.36268477155E+03  0.26307294408E+03 0.  0.
         25    1    4    4    0    0  0.27931177202E+01  0.26470315085E+02  0.88736358018E+02  0.15566029815E+03  0.12509000000E+03 0.  0.
         25    1    3    3    0    0  0.73074190663E+02 -0.83561417093E+02  0.80172395939E+02  0.18546554650E+03  0.12509000000E+03 0.  0.
         25    1    4    4    0    0 -0.75867308383E+02  0.57091102008E+02  0.13489396604E+03  0.20702447339E+03  0.12509000000E+03 0.  0.
<mgrwt>
<rscale>  2 0.45625944E+03</rscale>
<asrwt>0</asrwt>
<pdfrwt beam="1">  1       21 0.62643605E-01 0.45625944E+03</pdfrwt>
<pdfrwt beam="2">  1       21 0.17966735E-01 0.45625944E+03</pdfrwt>
<totfact> 0.61375009E+04</totfact>
</mgrwt>
</event>
<event>
 7    0  0.4725730E-002  0.4668107E+03  0.7546771E-02  0.1022824E+00
         21   -1    0    0  502  501  0.00000000000E+00  0.00000000000E+00  0.20053524767E+04  0.20053524767E+04  0.00000000000E+00 0.  1.
         21   -1    0    0  501  502 -0.00000000000E+00 -0.00000000000E+00 -0.27166320173E+02  0.27166320173E+02  0.00000000000E+00 0.  1.
      99926    2    1    2    0    0  0.00000000000E+00  0.00000000000E+00  0.19781861566E+04  0.20325187969E+04  0.46681065730E+03 0.  0.
      99925    2    3    3    0    0  0.89060607087E+02 -0.16015258585E+02  0.16007373740E+04  0.16247156927E+04  0.26296893608E+03 0.  0.
         25    1    4    4    0    0  0.76379752128E+02  0.90844186362E+01  0.73381784946E+03  0.74836657962E+03  0.12509000000E+03 0.  0.
         25    1    3    3    0    0 -0.89060607087E+02  0.16015258585E+02  0.37744878254E+03  0.40780310418E+03  0.12509000000E+03 0.  0.
         25    1    4    4    0    0  0.12680854959E+02 -0.25099677221E+02  0.86691952456E+03  0.87634911311E+03  0.12509000000E+03 0.  0.
<mgrwt>
<rscale>  2 0.46681066E+03</rscale>
<asrwt>0</asrwt>
<pdfrwt beam="1">  1       21 0.29490467E+00 0.46681066E+03</pdfrwt>
<pdfrwt beam="2">  1       21 0.39950485E-02 0.46681066E+03</pdfrwt>
<totfact> 0.12043466E+04</totfact>
</mgrwt>
</event>
<event>
 7    0  0.4725730E-002  0.4540524E+03  0.7546771E-02  0.1026520E+00
         21   -1    0    0  502  501  0.00000000000E+00  0.00000000000E+00  0.15383635156E+04  0.15383635156E+04  0.00000000000E+00 0.  1.
         21   -1    0    0  501  502 -0.00000000000E+00 -0.00000000000E+00 -0.33503712212E+02  0.33503712212E+02  0.00000000000E+00 0.  1.
      99926    2    1    2    0    0  0.00000000000E+00  0.00000000000E+00  0.15048598034E+04  0.15718672278E+04  0.45405236924E+03 0.  0.
      99925    2    3    3    0    0  0.29408484047E+02  0.79907281608E+02  0.69414657035E+03  0.74715304283E+03  0.26296040708E+03 0.  0.
         25    1    4    4    0    0 -0.24851134757E+02  0.45560317064E+02  0.32142818129E+03  0.34879349939E+03  0.12509000000E+03 0.  0.
         25    1    4    4    0    0  0.54259618803E+02  0.34346964544E+02  0.37271838906E+03  0.39835954344E+03  0.12509000000E+03 0.  0.
         25    1    3    3    0    0 -0.29408484047E+02 -0.79907281608E+02  0.81071323300E+03  0.82471418495E+03  0.12509000000E+03 0.  0.
<mgrwt>
<rscale>  2 0.45405237E+03</rscale>
<asrwt>0</asrwt>
<pdfrwt beam="1">  1       21 0.22622988E+00 0.45405237E+03</pdfrwt>
<pdfrwt beam="2">  1       21 0.49270175E-02 0.45405237E+03</pdfrwt>
<totfact> 0.22234652E+04</totfact>
</mgrwt>
</event>
<event>
 7    0  0.4725730E-002  0.4566642E+03  0.7546771E-02  0.1025753E+00
         21   -1    0    0  502  501  0.00000000000E+00  0.00000000000E+00  0.29979855318E+03  0.29979855318E+03  0.00000000000E+00 0. -1.
         21   -1    0    0  501  502 -0.00000000000E+00 -0.00000000000E+00 -0.17390193796E+03  0.17390193796E+03  0.00000000000E+00 0. -1.
      99926    2    1    2    0    0  0.00000000000E+00  0.51347814889E-15  0.12589661523E+03  0.47370049114E+03  0.45666420659E+03 0.  0.
      99925    2    3    3    0    0  0.18339964800E+02  0.10360444122E+00  0.19657257004E+03  0.32885932389E+03  0.26300440029E+03 0.  0.
         25    1    3    3    0    0 -0.18339964800E+02 -0.10360444122E+00 -0.70675954816E+02  0.14484116726E+03  0.12509000000E+03 0.  0.
         25    1    4    4    0    0 -0.18910199797E+02 -0.76687617442E+01  0.13213144288E+03  0.18309186727E+03  0.12509000000E+03 0.  0.
         25    1    4    4    0    0  0.37250164597E+02  0.77723661855E+01  0.64441127164E+02  0.14576745662E+03  0.12509000000E+03 0.  0.
<mgrwt>
<rscale>  2 0.45666421E+03</rscale>
<asrwt>0</asrwt>
<pdfrwt beam="1">  1       21 0.44088023E-01 0.45666421E+03</pdfrwt>
<pdfrwt beam="2">  1       21 0.25573814E-01 0.45666421E+03</pdfrwt>
<totfact> 0.66282044E+04</totfact>
</mgrwt>
</event>
<event>
 7    0  0.4725730E-002  0.4416185E+03  0.7546771E-02  0.1030251E+00
         21   -1    0    0  502  501  0.00000000000E+00  0.00000000000E+00  0.18963499351E+03  0.18963499351E+03  0.00000000000E+00 0. -1.
         21   -1    0    0  501  502 -0.00000000000E+00 -0.00000000000E+00 -0.25710828829E+03  0.25710828829E+03  0.00000000000E+00 0. -1.
      99926    2    1    2    0    0 -0.14210854715E-13  0.35527136788E-14 -0.67473294785E+02  0.44674328180E+03  0.44161851673E+03 0.  0.
      99925    2    3    3    0    0  0.99880032070E+02 -0.53631034208E+01 -0.48860895483E+02  0.28550211710E+03  0.26290547365E+03 0.  0.
         25    1    4    4    0    0  0.44631973137E+02  0.29391405636E+02  0.48267964677E+00  0.13602797077E+03  0.12509000000E+03 0.  0.
         25    1    4    4    0    0  0.55248058934E+02 -0.34754509057E+02 -0.49343575130E+02  0.14947414633E+03  0.12509000000E+03 0.  0.
         25    1    3    3    0    0 -0.99880032070E+02  0.53631034208E+01 -0.18612399302E+02  0.16124116470E+03  0.12509000000E+03 0.  0.
<mgrwt>
<rscale>  2 0.44161852E+03</rscale>
<asrwt>0</asrwt>
<pdfrwt beam="1">  1       21 0.27887499E-01 0.44161852E+03</pdfrwt>
<pdfrwt beam="2">  1       21 0.37810042E-01 0.44161852E+03</pdfrwt>
<totfact> 0.77058188E+04</totfact>
</mgrwt>
</event>
<event>
 7    0  0.4725730E-002  0.4528363E+03  0.7546771E-02  0.1026880E+00
         21   -1    0    0  502  501  0.00000000000E+00  0.00000000000E+00  0.19745724357E+02  0.19745724357E+02  0.00000000000E+00 0. -1.
         21   -1    0    0  501  502 -0.00000000000E+00 -0.00000000000E+00 -0.25962668559E+04  0.25962668559E+04  0.00000000000E+00 0. -1.
      99926    2    1    2    0    0  0.00000000000E+00 -0.26645352591E-14 -0.25765211316E+04  0.26160125803E+04  0.45283626045E+03 0.  0.
      99925    2    3    3    0    0 -0.55785161110E+02 -0.56971886076E+01 -0.21789454683E+04  0.21954672697E+04  0.26292344167E+03 0.  0.
         25    1    4    4    0    0 -0.35670151242E+02 -0.33973959101E+02 -0.13096919669E+04  0.13165740183E+04  0.12509000000E+03 0.  0.
         25    1    4    4    0    0 -0.20115009867E+02  0.28276770493E+02 -0.86925350150E+03  0.87889325139E+03  0.12509000000E+03 0.  0.
         25    1    3    3    0    0  0.55785161110E+02  0.56971886076E+01 -0.39757566320E+03  0.42054531055E+03  0.12509000000E+03 0.  0.
<mgrwt>
<rscale>  2 0.45283626E+03</rscale>
<asrwt>0</asrwt>
<pdfrwt beam="1">  1       21 0.29037847E-02 0.45283626E+03</pdfrwt>
<pdfrwt beam="2">  1       21 0.38180372E+00 0.45283626E+03</pdfrwt>
<totfact> 0.61185097E+03</totfact>
</mgrwt>
</event>
<event>
 7    0  0.4725730E-002  0.4503126E+03  0.7546771E-02  0.1027629E+00
         21   -1    0    0  502  501  0.00000000000E+00  0.00000000000E+00  0.23086789715E+03  0.23086789715E+03  0.00000000000E+00 0. -1.
         21   -1    0    0  501  502 -0.00000000000E+00 -0.00000000000E+00 -0.21958601104E+03  0.21958601104E+03  0.00000000000E+00 0. -1.
      99926    2    1    2    0    0  0.00000000000E+00  0.00000000000E+00  0.11281886119E+02  0.45045390819E+03  0.45031260525E+03 0.  0.
      99925    2    3    3    0    0 -0.71702486201E+02  0.54224960638E+02  0.68286842656E+02  0.28620207090E+03  0.26299608291E+03 0.  0.
         25    1    4    4    0    0 -0.69705017032E+02  0.20381148801E+02  0.12759672231E+02  0.14520502044E+03  0.12509000000E+03 0.  0.
         25    1    3    3    0    0  0.71702486201E+02 -0.54224960638E+02 -0.57004956537E+02  0.16425183729E+03  0.12509000000E+03 0.  0.
         25    1    4    4    0    0 -0.19974691689E+01  0.33843811838E+02  0.55527170425E+02  0.14099705046E+03  0.12509000000E+03 0.  0.
<mgrwt>
<rscale>  2 0.45031261E+03</rscale>
<asrwt>0</asrwt>
<pdfrwt beam="1">  1       21 0.33951161E-01 0.45031261E+03</pdfrwt>
<pdfrwt beam="2">  1       21 0.32292061E-01 0.45031261E+03</pdfrwt>
<totfact> 0.71517732E+04</totfact>
</mgrwt>
</event>
<event>
 7    0  0.4725730E-002  0.4538603E+03  0.7546771E-02  0.1026577E+00
         21   -1    0    0  502  501  0.00000000000E+00  0.00000000000E+00  0.52631444997E+02  0.52631444997E+02  0.00000000000E+00 0. -1.
         21   -1    0    0  501  502 -0.00000000000E+00 -0.00000000000E+00 -0.97845087806E+03  0.97845087806E+03  0.00000000000E+00 0. -1.
      99926    2    1    2    0    0 -0.71054273576E-14  0.00000000000E+00 -0.92581943307E+03  0.10310823231E+04  0.45386025854E+03 0.  0.
      99925    2    3    3    0    0 -0.50858192438E+02  0.85051588014E+02 -0.70202674803E+03  0.75621689720E+03  0.26306294359E+03 0.  0.
         25    1    4    4    0    0 -0.36081153405E+02  0.27616703426E+02 -0.44244388339E+03  0.46202665506E+03  0.12509000000E+03 0.  0.
         25    1    3    3    0    0  0.50858192438E+02 -0.85051588014E+02 -0.22379268503E+03  0.27486542586E+03  0.12509000000E+03 0.  0.
         25    1    4    4    0    0 -0.14777039033E+02  0.57434884588E+02 -0.25958286465E+03  0.29419024214E+03  0.12509000000E+03 0.  0.
<mgrwt>
<rscale>  2 0.45386026E+03</rscale>
<asrwt>0</asrwt>
<pdfrwt beam="1">  1       21 0.77399185E-02 0.45386026E+03</pdfrwt>
<pdfrwt beam="2">  1       21 0.14388983E+00 0.45386026E+03</pdfrwt>
<totfact> 0.38319112E+04</totfact>
</mgrwt>
</event>
<event>
 7    0  0.4725730E-002  0.4559312E+03  0.7546771E-02  0.1025968E+00
         21   -1    0    0  502  501  0.00000000000E+00  0.00000000000E+00  0.22668283633E+03  0.22668283633E+03  0.00000000000E+00 0.  1.
         21   -1    0    0  501  502 -0.00000000000E+00 -0.00000000000E+00 -0.22925566942E+03  0.22925566942E+03  0.00000000000E+00 0.  1.
      99926    2    1    2    0    0 -0.35527136788E-14 -0.17763568394E-14 -0.25728330901E+01  0.45593850574E+03  0.45593124651E+03 0.  0.
      99925    2    3    3    0    0 -0.29737113447E+02 -0.15741185292E+02  0.10741720848E+03  0.28600499470E+03  0.26292264924E+03 0.  0.
         25    1    4    4    0    0 -0.21225741222E+02 -0.99688765801E+01  0.97078907232E+02  0.16006790097E+03  0.12509000000E+03 0.  0.
         25    1    4    4    0    0 -0.85113722248E+01 -0.57723087118E+01  0.10338301248E+02  0.12593709373E+03  0.12509000000E+03 0.  0.
         25    1    3    3    0    0  0.29737113447E+02  0.15741185292E+02 -0.10999004157E+03  0.16993351104E+03  0.12509000000E+03 0.  0.
<mgrwt>
<rscale>  2 0.45593125E+03</rscale>
<asrwt>0</asrwt>
<pdfrwt beam="1">  1       21 0.33335711E-01 0.45593125E+03</pdfrwt>
<pdfrwt beam="2">  1       21 0.33714069E-01 0.45593125E+03</pdfrwt>
<totfact> 0.67970637E+04</totfact>
</mgrwt>
</event>
<event>
 7    0  0.4725730E-002  0.4548531E+03  0.7546771E-02  0.1026285E+00
         21   -1    0    0  502  501  0.00000000000E+00  0.00000000000E+00  0.87311135203E+02  0.87311135203E+02  0.00000000000E+00 0.  1.
         21   -1    0    0  501  502 -0.00000000000E+00 -0.00000000000E+00 -0.59239670764E+03  0.59239670764E+03  0.00000000000E+00 0.  1.
      99926    2    1    2    0    0  0.00000000000E+00  0.00000000000E+00 -0.50508557243E+03  0.67970784284E+03  0.45485307093E+03 0.  0.
      99925    2    3    3    0    0 -0.81958398880E+02 -0.34439140385E+02 -0.42162431139E+03  0.50501804997E+03  0.26338742814E+03 0.  0.
         25    1    4    4    0    0  0.34003538624E-01 -0.27115908314E+02 -0.20488944029E+03  0.24158324545E+03  0.12509000000E+03 0.  0.
         25    1    4    4    0    0 -0.81992402419E+02 -0.73232320707E+01 -0.21673487110E+03  0.26343480452E+03  0.12509000000E+03 0.  0.
         25    1    3    3    0    0  0.81958398880E+02  0.34439140385E+02 -0.83461261045E+02  0.17468979287E+03  0.12509000000E+03 0.  0.
<mgrwt>
<rscale>  2 0.45485307E+03</rscale>
<asrwt>0</asrwt>
<pdfrwt beam="1">  1       21 0.12839872E-01 0.45485307E+03</pdfrwt>
<pdfrwt beam="2">  1       21 0.87117166E-01 0.45485307E+03</pdfrwt>
<totfact> 0.54081576E+04</totfact>
</mgrwt>
</event>
<event>
 7    0  0.4725730E-002  0.4485895E+03  0.7546771E-02  0.1028144E+00
         21   -1    0    0  502  501  0.00000000000E+00  0.00000000000E+00  0.16290207817E+04  0.16290207817E+04  0.00000000000E+00 0. -1.
         21   -1    0    0  501  502 -0.00000000000E+00 -0.00000000000E+00 -0.30882432815E+02  0.30882432815E+02  0.00000000000E+00 0. -1.
      99926    2    1    2    0    0  0.00000000000E+00 -0.71054273576E-14  0.15981383489E+04  0.16599032145E+04  0.44858945527E+03 0.  0.
      99925    2    3    3    0    0  0.92975396658E+02  0.41092380272E+02  0.88720880321E+03  0.93093042002E+03  0.26298094670E+03 0.  0.
         25    1    4    4    0    0  0.82344263533E+02  0.25781724187E+01  0.50850510617E+03  0.53010581568E+03  0.12509000000E+03 0.  0.
         25    1    4    4    0    0  0.10631133125E+02  0.38514207853E+02  0.37870369704E+03  0.40082460434E+03  0.12509000000E+03 0.  0.
         25    1    3    3    0    0 -0.92975396658E+02 -0.41092380272E+02  0.71092954569E+03  0.72897279451E+03  0.12509000000E+03 0.  0.
<mgrwt>
<rscale>  2 0.44858946E+03</rscale>
<asrwt>0</asrwt>
<pdfrwt beam="1">  1       21 0.23956182E+00 0.44858946E+03</pdfrwt>
<pdfrwt beam="2">  1       21 0.45415353E-02 0.44858946E+03</pdfrwt>
<totfact> 0.21142295E+04</totfact>
</mgrwt>
</event>
<event>
 7    0  0.4725730E-002  0.4558599E+03  0.7546771E-02  0.1025989E+00
         21   -1    0    0  502  501  0.00000000000E+00  0.00000000000E+00  0.46660679209E+03  0.46660679209E+03  0.00000000000E+00 0.  1.
         21   -1    0    0  501  502 -0.00000000000E+00 -0.00000000000E+00 -0.11134014518E+03  0.11134014518E+03  0.00000000000E+00 0.  1.
      99926    2    1    2    0    0 -0.71054273576E-14  0.00000000000E+00  0.35526664691E+03  0.57794693727E+03  0.45585992574E+03 0.  0.
      99925    2    3    3    0    0 -0.59641378141E+02  0.32000871747E+02  0.10705089919E+03  0.29187052214E+03  0.26295885020E+03 0.  0.
         25    1    3    3    0    0  0.59641378141E+02 -0.32000871747E+02  0.24821574772E+03  0.28607641513E+03  0.12509000000E+03 0.  0.
         25    1    4    4    0    0 -0.49553838694E+02 -0.47801430105E+01  0.85080560529E+02  0.15926280977E+03  0.12509000000E+03 0.  0.
         25    1    4    4    0    0 -0.10087539447E+02  0.36781014757E+02  0.21970338663E+02  0.13260771237E+03  0.12509000000E+03 0.  0.
<mgrwt>
<rscale>  2 0.45585993E+03</rscale>
<asrwt>0</asrwt>
<pdfrwt beam="1">  1       21 0.68618645E-01 0.45585993E+03</pdfrwt>
<pdfrwt beam="2">  1       21 0.16373551E-01 0.45585993E+03</pdfrwt>
<totfact> 0.59650068E+04</totfact>
</mgrwt>
</event>
<event>
 7    0  0.4725730E-002  0.4681770E+03  0.7546771E-02  0.1022436E+00
         21   -1    0    0  502  501  0.00000000000E+00  0.00000000000E+00  0.14361098902E+03  0.14361098902E+03  0.00000000000E+00 0.  1.
         21   -1    0    0  501  502 -0.00000000000E+00 -0.00000000000E+00 -0.38156844200E+03  0.38156844200E+03  0.00000000000E+00 0.  1.
      99926    2    1    2    0    0  0.00000000000E+00 -0.14210854715E-13 -0.23795745298E+03  0.52517943102E+03  0.46817698078E+03 0.  0.
      99925    2    3    3    0    0 -0.59068104926E+02 -0.11016291313E+03 -0.15487040766E+03  0.32979295848E+03  0.26297080417E+03 0.  0.
         25    1    4    4    0    0 -0.32878120013E+02 -0.78917829706E+02 -0.44089630263E+02  0.15779860018E+03  0.12509000000E+03 0.  0.
         25    1    4    4    0    0 -0.26189984912E+02 -0.31245083425E+02 -0.11078077740E+03  0.17199435830E+03  0.12509000000E+03 0.  0.
         25    1    3    3    0    0  0.59068104926E+02  0.11016291313E+03 -0.83087045322E+02  0.19538647253E+03  0.12509000000E+03 0.  0.
<mgrwt>
<rscale>  2 0.46817698E+03</rscale>
<asrwt>0</asrwt>
<pdfrwt beam="1">  1       21 0.21119263E-01 0.46817698E+03</pdfrwt>
<pdfrwt beam="2">  1       21 0.56113005E-01 0.46817698E+03</pdfrwt>
<totfact> 0.57305777E+04</totfact>
</mgrwt>
</event>
<event>
 7    0  0.4725730E-002  0.4555640E+03  0.7546771E-02  0.1026076E+00
         21   -1    0    0  502  501  0.00000000000E+00  0.00000000000E+00  0.19208875368E+03  0.19208875368E+03  0.00000000000E+00 0. -1.
         21   -1    0    0  501  502 -0.00000000000E+00 -0.00000000000E+00 -0.27010758369E+03  0.27010758369E+03  0.00000000000E+00 0. -1.
      99926    2    1    2    0    0  0.00000000000E+00  0.00000000000E+00 -0.78018830012E+02  0.46219633736E+03  0.45556395428E+03 0.  0.
      99925    2    3    3    0    0  0.68868721918E+02 -0.18273657254E+02 -0.13898180020E+03  0.30586073923E+03  0.26297913151E+03 0.  0.
         25    1    4    4    0    0  0.35087372715E+02 -0.25818358075E+02 -0.28671641668E+02  0.13552594760E+03  0.12509000000E+03 0.  0.
         25    1    4    4    0    0  0.33781349203E+02  0.75447008209E+01 -0.11031015853E+03  0.17033479163E+03  0.12509000000E+03 0.  0.
         25    1    3    3    0    0 -0.68868721918E+02  0.18273657254E+02  0.60962970189E+02  0.15633559813E+03  0.12509000000E+03 0.  0.
<mgrwt>
<rscale>  2 0.45556395E+03</rscale>
<asrwt>0</asrwt>
<pdfrwt beam="1">  1       21 0.28248346E-01 0.45556395E+03</pdfrwt>
<pdfrwt beam="2">  1       21 0.39721703E-01 0.45556395E+03</pdfrwt>
<totfact> 0.67714639E+04</totfact>
</mgrwt>
</event>
<event>
 7    0  0.4725730E-002  0.4507357E+03  0.7546771E-02  0.1027503E+00
         21   -1    0    0  502  501  0.00000000000E+00  0.00000000000E+00  0.38152259466E+02  0.38152259466E+02  0.00000000000E+00 0. -1.
         21   -1    0    0  501  502 -0.00000000000E+00 -0.00000000000E+00 -0.13312623821E+04  0.13312623821E+04  0.00000000000E+00 0. -1.
      99926    2    1    2    0    0  0.00000000000E+00  0.71054273576E-14 -0.12931101227E+04  0.13694146416E+04  0.45073570002E+03 0.  0.
      99925    2    3    3    0    0  0.97399079708E+02 -0.44844658843E+02 -0.87784533517E+03  0.92265970208E+03  0.26304157313E+03 0.  0.
         25    1    4    4    0    0  0.82632519368E+01 -0.30849310543E+02 -0.36750705260E+03  0.38952394420E+03  0.12509000000E+03 0.  0.
         25    1    4    4    0    0  0.89135827772E+02 -0.13995348299E+02 -0.51033828257E+03  0.53313575788E+03  0.12509000000E+03 0.  0.
         25    1    3    3    0    0 -0.97399079708E+02  0.44844658843E+02 -0.41526478748E+03  0.44675493951E+03  0.12509000000E+03 0.  0.
<mgrwt>
<rscale>  2 0.45073570E+03</rscale>
<asrwt>0</asrwt>
<pdfrwt beam="1">  1       21 0.56106282E-02 0.45073570E+03</pdfrwt>
<pdfrwt beam="2">  1       21 0.19577382E+00 0.45073570E+03</pdfrwt>
<totfact> 0.28077733E+04</totfact>
</mgrwt>
</event>
<event>
 7    0  0.4725730E-002  0.4552003E+03  0.7546771E-02  0.1026183E+00
         21   -1    0    0  502  501  0.00000000000E+00  0.00000000000E+00  0.23723753484E+03  0.23723753484E+03  0.00000000000E+00 0.  1.
         21   -1    0    0  501  502 -0.00000000000E+00 -0.00000000000E+00 -0.21835428278E+03  0.21835428278E+03  0.00000000000E+00 0.  1.
      99926    2    1    2    0    0 -0.35527136788E-14  0.00000000000E+00  0.18883252060E+02  0.45559181761E+03  0.45520031532E+03 0.  0.
      99925    2    3    3    0    0  0.17203993755E+02 -0.13434861813E+02  0.12358371400E+03  0.29101305913E+03  0.26256274166E+03 0.  0.
         25    1    4    4    0    0 -0.14561093683E+02 -0.28528308954E+01  0.96589059344E+02  0.15873600278E+03  0.12509000000E+03 0.  0.
         25    1    4    4    0    0  0.31765087438E+02 -0.10582030918E+02  0.26994654651E+02  0.13227705636E+03  0.12509000000E+03 0.  0.
         25    1    3    3    0    0 -0.17203993755E+02  0.13434861813E+02 -0.10470046194E+03  0.16457875848E+03  0.12509000000E+03 0.  0.
<mgrwt>
<rscale>  2 0.45520032E+03</rscale>
<asrwt>0</asrwt>
<pdfrwt beam="1">  1       21 0.34887873E-01 0.45520032E+03</pdfrwt>
<pdfrwt beam="2">  1       21 0.32110924E-01 0.45520032E+03</pdfrwt>
<totfact> 0.68393101E+04</totfact>
</mgrwt>
</event>
<event>
 7    0  0.4725730E-002  0.4530651E+03  0.7546771E-02  0.1026812E+00
         21   -1    0    0  502  501  0.00000000000E+00  0.00000000000E+00  0.37675932153E+03  0.37675932153E+03  0.00000000000E+00 0.  1.
         21   -1    0    0  501  502 -0.00000000000E+00 -0.00000000000E+00 -0.13620632827E+03  0.13620632827E+03  0.00000000000E+00 0.  1.
      99926    2    1    2    0    0 -0.14210854715E-13  0.44408920985E-15  0.24055299326E+03  0.51296564979E+03  0.45306513362E+03 0.  0.
      99925    2    3    3    0    0  0.10669386885E+03 -0.23946450678E+01  0.11586680682E+03  0.30660802535E+03  0.26304761606E+03 0.  0.
         25    1    4    4    0    0  0.53536553220E+02  0.36605036027E+02  0.41738923341E+02  0.14695488088E+03  0.12509000000E+03 0.  0.
         25    1    4    4    0    0  0.53157315629E+02 -0.38999681095E+02  0.74127883482E+02  0.15965314447E+03  0.12509000000E+03 0.  0.
         25    1    3    3    0    0 -0.10669386885E+03  0.23946450678E+01  0.12468618644E+03  0.20635762444E+03  0.12509000000E+03 0.  0.
<mgrwt>
<rscale>  2 0.45306513E+03</rscale>
<asrwt>0</asrwt>
<pdfrwt beam="1">  1       21 0.55405782E-01 0.45306513E+03</pdfrwt>
<pdfrwt beam="2">  1       21 0.20030342E-01 0.45306513E+03</pdfrwt>
<totfact> 0.65366930E+04</totfact>
</mgrwt>
</event>
<event>
 7    0  0.4725730E-002  0.4629300E+03  0.7546771E-02  0.1023935E+00
         21   -1    0    0  502  501  0.00000000000E+00  0.00000000000E+00  0.32071685875E+03  0.32071685875E+03  0.00000000000E+00 0.  1.
         21   -1    0    0  501  502 -0.00000000000E+00 -0.00000000000E+00 -0.16705090731E+03  0.16705090731E+03  0.00000000000E+00 0.  1.
      99926    2    1    2    0    0  0.00000000000E+00  0.00000000000E+00  0.15366595144E+03  0.48776776606E+03  0.46292998280E+03 0.  0.
      99925    2    3    3    0    0 -0.58128836615E+02 -0.64124080451E+02  0.18463623334E+03  0.33253398816E+03  0.26267366690E+03 0.  0.
         25    1    3    3    0    0  0.58128836615E+02  0.64124080451E+02 -0.30970281894E+02  0.15523377790E+03  0.12509000000E+03 0.  0.
         25    1    4    4    0    0 -0.42984523441E+02  0.41690821775E+01  0.75200604845E+02  0.15220936098E+03  0.12509000000E+03 0.  0.
         25    1    4    4    0    0 -0.15144313174E+02 -0.68293162628E+02  0.10943562849E+03  0.18032462718E+03  0.12509000000E+03 0.  0.
<mgrwt>
<rscale>  2 0.46292998E+03</rscale>
<asrwt>0</asrwt>
<pdfrwt beam="1">  1       21 0.47164244E-01 0.46292998E+03</pdfrwt>
<pdfrwt beam="2">  1       21 0.24566310E-01 0.46292998E+03</pdfrwt>
<totfact> 0.62134500E+04</totfact>
</mgrwt>
</event>
<event>
 7    0  0.4725730E-002  0.4640103E+03  0.7546771E-02  0.1023624E+00
         21   -1    0    0  502  501  0.00000000000E+00  0.00000000000E+00  0.11736799039E+03  0.11736799039E+03  0.00000000000E+00 0.  1.
         21   -1    0    0  501  502 -0.00000000000E+00 -0.00000000000E+00 -0.45861225540E+03  0.45861225540E+03  0.00000000000E+00 0.  1.
      99926    2    1    2    0    0  0.00000000000E+00  0.35527136788E-14 -0.34124426501E+03  0.57598024580E+03  0.46401033948E+03 0.  0.
      99925    2    3    3    0    0  0.98982252153E+02  0.30433944949E+02 -0.29176396971E+03  0.40621711973E+03  0.26298749609E+03 0.  0.
         25    1    4    4    0    0  0.71534915637E+02 -0.94774980172E+01 -0.11670394209E+03  0.18567279102E+03  0.12509000000E+03 0.  0.
         25    1    4    4    0    0  0.27447336516E+02  0.39911442967E+02 -0.17506002761E+03  0.22054432872E+03  0.12509000000E+03 0.  0.
         25    1    3    3    0    0 -0.98982252153E+02 -0.30433944949E+02 -0.49480295304E+02  0.16976312606E+03  0.12509000000E+03 0.  0.
<mgrwt>
<rscale>  2 0.46401034E+03</rscale>
<asrwt>0</asrwt>
<pdfrwt beam="1">  1       21 0.17259998E-01 0.46401034E+03</pdfrwt>
<pdfrwt beam="2">  1       21 0.67442979E-01 0.46401034E+03</pdfrwt>
<totfact> 0.56078394E+04</totfact>
</mgrwt>
</event>
<event>
 7    0  0.4725730E-002  0.4653737E+03  0.7546771E-02  0.1023234E+00
         21   -1    0    0  502  501  0.00000000000E+00  0.00000000000E+00  0.95431126308E+03  0.95431126308E+03  0.00000000000E+00 0. -1.
         21   -1    0    0  501  502 -0.00000000000E+00 -0.00000000000E+00 -0.56735335743E+02  0.56735335743E+02  0.00000000000E+00 0. -1.
      99926    2    1    2    0    0  0.00000000000E+00  0.00000000000E+00  0.89757592734E+03  0.10110465988E+04  0.46537369893E+03 0.  0.
      99925    2    3    3    0    0  0.55538253264E+02 -0.24603241983E+02  0.79115072829E+03  0.83593621026E+03  0.26302101752E+03 0.  0.
         25    1    3    3    0    0 -0.55538253264E+02  0.24603241983E+02  0.10642519905E+03  0.17511038857E+03  0.12509000000E+03 0.  0.
         25    1    4    4    0    0  0.41774783146E+02 -0.11293450602E+00  0.51267165942E+03  0.52936271472E+03  0.12509000000E+03 0.  0.
         25    1    4    4    0    0  0.13763470117E+02 -0.24490307477E+02  0.27847906887E+03  0.30657349554E+03  0.12509000000E+03 0.  0.
<mgrwt>
<rscale>  2 0.46537370E+03</rscale>
<asrwt>0</asrwt>
<pdfrwt beam="1">  1       21 0.14033988E+00 0.46537370E+03</pdfrwt>
<pdfrwt beam="2">  1       21 0.83434323E-02 0.46537370E+03</pdfrwt>
<totfact> 0.35754503E+04</totfact>
</mgrwt>
</event>
<event>
 7    0  0.4725730E-002  0.4576561E+03  0.7546771E-02  0.1025463E+00
         21   -1    0    0  502  501  0.00000000000E+00  0.00000000000E+00  0.18401032581E+03  0.18401032581E+03  0.00000000000E+00 0. -1.
         21   -1    0    0  501  502 -0.00000000000E+00 -0.00000000000E+00 -0.28456159642E+03  0.28456159642E+03  0.00000000000E+00 0. -1.
      99926    2    1    2    0    0  0.35527136788E-14  0.00000000000E+00 -0.10055127062E+03  0.46857192223E+03  0.45765608079E+03 0.  0.
      99925    2    3    3    0    0 -0.30947747460E+02  0.11064904497E+03 -0.51213742625E+02  0.29170283507E+03  0.26318571832E+03 0.  0.
         25    1    4    4    0    0  0.61795134855E+01  0.86168865587E+02 -0.46044354507E+02  0.15884221878E+03  0.12509000000E+03 0.  0.
         25    1    3    3    0    0  0.30947747460E+02 -0.11064904497E+03 -0.49337527992E+02  0.17686908716E+03  0.12509000000E+03 0.  0.
         25    1    4    4    0    0 -0.37127260945E+02  0.24480179385E+02 -0.51693881178E+01  0.13286061629E+03  0.12509000000E+03 0.  0.
<mgrwt>
<rscale>  2 0.45765608E+03</rscale>
<asrwt>0</asrwt>
<pdfrwt beam="1">  1       21 0.27060342E-01 0.45765608E+03</pdfrwt>
<pdfrwt beam="2">  1       21 0.41847293E-01 0.45765608E+03</pdfrwt>
<totfact> 0.66138048E+04</totfact>
</mgrwt>
</event>
<event>
 7    0  0.4725730E-002  0.4328306E+03  0.7546771E-02  0.1032970E+00
         21   -1    0    0  502  501  0.00000000000E+00  0.00000000000E+00  0.14918751609E+04  0.14918751609E+04  0.00000000000E+00 0.  1.
         21   -1    0    0  501  502 -0.00000000000E+00 -0.00000000000E+00 -0.31393768347E+02  0.31393768347E+02  0.00000000000E+00 0.  1.
      99926    2    1    2    0    0  0.00000000000E+00  0.35527136788E-14  0.14604813926E+04  0.15232689293E+04  0.43283060523E+03 0.  0.
      99925    2    3    3    0    0 -0.22935692096E+02  0.22485686088E+02  0.63966410925E+03  0.69235366720E+03  0.26296725226E+03 0.  0.
         25    1    3    3    0    0  0.22935692096E+02 -0.22485686088E+02  0.82081728331E+03  0.83091526206E+03  0.12509000000E+03 0.  0.
         25    1    4    4    0    0  0.13676323582E+02 -0.14144571335E+02  0.36048207897E+03  0.38207584075E+03  0.12509000000E+03 0.  0.
         25    1    4    4    0    0 -0.36612015678E+02  0.36630257423E+02  0.27918203029E+03  0.31027782645E+03  0.12509000000E+03 0.  0.
<mgrwt>
<rscale>  2 0.43283061E+03</rscale>
<asrwt>0</asrwt>
<pdfrwt beam="1">  1       21 0.21939336E+00 0.43283061E+03</pdfrwt>
<pdfrwt beam="2">  1       21 0.46167317E-02 0.43283061E+03</pdfrwt>
<totfact> 0.27683433E+04</totfact>
</mgrwt>
</event>
<event>
 7    0  0.4725730E-002  0.4103686E+03  0.7546771E-02  0.1040247E+00
         21   -1    0    0  502  501  0.00000000000E+00  0.00000000000E+00  0.76211261146E+03  0.76211261146E+03  0.00000000000E+00 0.  1.
         21   -1    0    0  501  502 -0.00000000000E+00 -0.00000000000E+00 -0.55241959488E+02  0.55241959488E+02  0.00000000000E+00 0.  1.
      99926    2    1    2    0    0 -0.35527136788E-14  0.00000000000E+00  0.70687065197E+03  0.81735457095E+03  0.41036858558E+03 0.  0.
      99925    2    3    3    0    0 -0.23281494484E+02 -0.56625895507E+02  0.49988955320E+03  0.56788071785E+03  0.26239364376E+03 0.  0.
         25    1    3    3    0    0  0.23281494484E+02  0.56625895507E+02  0.20698109878E+03  0.24947385309E+03  0.12509000000E+03 0.  0.
         25    1    4    4    0    0  0.11390135909E+01 -0.63522954908E+02  0.29155461327E+03  0.32355534885E+03  0.12509000000E+03 0.  0.
         25    1    4    4    0    0 -0.24420508075E+02  0.68970594017E+01  0.20833493993E+03  0.24432536900E+03  0.12509000000E+03 0.  0.
<mgrwt>
<rscale>  2 0.41036859E+03</rscale>
<asrwt>0</asrwt>
<pdfrwt beam="1">  1       21 0.11207538E+00 0.41036859E+03</pdfrwt>
<pdfrwt beam="2">  1       21 0.81238180E-02 0.41036859E+03</pdfrwt>
<totfact> 0.67710705E+04</totfact>
</mgrwt>
</event>
<event>
 7    0  0.4725730E-002  0.4549441E+03  0.7546771E-02  0.1026258E+00
         21   -1    0    0  502  501  0.00000000000E+00  0.00000000000E+00  0.24038034871E+03  0.24038034871E+03  0.00000000000E+00 0. -1.
         21   -1    0    0  501  502 -0.00000000000E+00 -0.00000000000E+00 -0.21525693034E+03  0.21525693034E+03  0.00000000000E+00 0. -1.
      99926    2    1    2    0    0  0.00000000000E+00 -0.53290705182E-14  0.25123418363E+02  0.45563727905E+03  0.45494411075E+03 0.  0.
      99925    2    3    3    0    0 -0.91567288880E+02 -0.66201653358E+01  0.80237913099E+02  0.29097547227E+03  0.26419728951E+03 0.  0.
         25    1    4    4    0    0 -0.32713842001E+02  0.37141530711E+02  0.43585402382E+02  0.14141033966E+03  0.12509000000E+03 0.  0.
         25    1    3    3    0    0  0.91567288880E+02  0.66201653358E+01 -0.55114494736E+02  0.16466180678E+03  0.12509000000E+03 0.  0.
         25    1    4    4    0    0 -0.58853446879E+02 -0.43761696047E+02  0.36652510717E+02  0.14956513261E+03  0.12509000000E+03 0.  0.
<mgrwt>
<rscale>  2 0.45494411E+03</rscale>
<asrwt>0</asrwt>
<pdfrwt beam="1">  1       21 0.35350052E-01 0.45494411E+03</pdfrwt>
<pdfrwt beam="2">  1       21 0.31655431E-01 0.45494411E+03</pdfrwt>
<totfact> 0.68529717E+04</totfact>
</mgrwt>
</event>
<event>
 7    0  0.4725730E-002  0.4354726E+03  0.7546771E-02  0.1032145E+00
         21   -1    0    0  502  501  0.00000000000E+00  0.00000000000E+00  0.80536400906E+03  0.80536400906E+03  0.00000000000E+00 0. -1.
         21   -1    0    0  501  502 -0.00000000000E+00 -0.00000000000E+00 -0.58866662368E+02  0.58866662368E+02  0.00000000000E+00 0. -1.
      99926    2    1    2    0    0  0.35527136788E-14  0.00000000000E+00  0.74649734669E+03  0.86423067143E+03  0.43547257643E+03 0.  0.
      99925    2    3    3    0    0  0.19281652926E+02  0.76031778367E+02  0.37706875342E+03  0.46638948818E+03  0.26303174033E+03 0.  0.
         25    1    3    3    0    0 -0.19281652926E+02 -0.76031778367E+02  0.36942859327E+03  0.39784118325E+03  0.12509000000E+03 0.  0.
         25    1    4    4    0    0 -0.53215619401E+01  0.72653140829E+01  0.21599217325E+03  0.24976234867E+03  0.12509000000E+03 0.  0.
         25    1    4    4    0    0  0.24603214866E+02  0.68766464284E+02  0.16107658018E+03  0.21662713951E+03  0.12509000000E+03 0.  0.
<mgrwt>
<rscale>  2 0.43547258E+03</rscale>
<asrwt>0</asrwt>
<pdfrwt beam="1">  1       21 0.11843588E+00 0.43547258E+03</pdfrwt>
<pdfrwt beam="2">  1       21 0.86568626E-02 0.43547258E+03</pdfrwt>
<totfact> 0.52380013E+04</totfact>
</mgrwt>
</event>
<event>
 7    0  0.4725730E-002  0.4523239E+03  0.7546771E-02  0.1027031E+00
         21   -1    0    0  502  501  0.00000000000E+00  0.00000000000E+00  0.88914968506E+02  0.88914968506E+02  0.00000000000E+00 0. -1.
         21   -1    0    0  501  502 -0.00000000000E+00 -0.00000000000E+00 -0.57526015036E+03  0.57526015036E+03  0.00000000000E+00 0. -1.
      99926    2    1    2    0    0  0.00000000000E+00  0.00000000000E+00 -0.48634518185E+03  0.66417511886E+03  0.45232394653E+03 0.  0.
      99925    2    3    3    0    0 -0.85633894845E+02  0.13746184891E+02 -0.40801244122E+03  0.49298619428E+03  0.26275295244E+03 0.  0.
         25    1    4    4    0    0 -0.36078261201E+02 -0.96906888953E+01 -0.13545432920E+03  0.18812478248E+03  0.12509000000E+03 0.  0.
         25    1    3    3    0    0  0.85633894845E+02 -0.13746184891E+02 -0.78332740629E+02  0.17118892458E+03  0.12509000000E+03 0.  0.
         25    1    4    4    0    0 -0.49555633645E+02  0.23436873787E+02 -0.27255811202E+03  0.30486141180E+03  0.12509000000E+03 0.  0.
<mgrwt>
<rscale>  2 0.45232395E+03</rscale>
<asrwt>0</asrwt>
<pdfrwt beam="1">  1       21 0.13075730E-01 0.45232395E+03</pdfrwt>
<pdfrwt beam="2">  1       21 0.84597082E-01 0.45232395E+03</pdfrwt>
<totfact> 0.56064861E+04</totfact>
</mgrwt>
</event>
<event>
 7    0  0.4725730E-002  0.4553501E+03  0.7546771E-02  0.1026139E+00
         21   -1    0    0  502  501  0.00000000000E+00  0.00000000000E+00  0.28912202676E+02  0.28912202676E+02  0.00000000000E+00 0. -1.
         21   -1    0    0  501  502 -0.00000000000E+00 -0.00000000000E+00 -0.17928734776E+04  0.17928734776E+04  0.00000000000E+00 0. -1.
      99926    2    1    2    0    0  0.00000000000E+00  0.35527136788E-14 -0.17639612750E+04  0.18217856803E+04  0.45535006910E+03 0.  0.
      99925    2    3    3    0    0  0.10701274085E+03  0.30178470096E+02 -0.10177849502E+04  0.10570706468E+04  0.26296326870E+03 0.  0.
         25    1    3    3    0    0 -0.10701274085E+03 -0.30178470096E+02 -0.74617632481E+03  0.76471503357E+03  0.12509000000E+03 0.  0.
         25    1    4    4    0    0  0.87007037597E+02  0.42233684006E+02 -0.57991993885E+03  0.60108947107E+03  0.12509000000E+03 0.  0.
         25    1    4    4    0    0  0.20005703254E+02 -0.12055213909E+02 -0.43786501132E+03  0.45598117569E+03  0.12509000000E+03 0.  0.
<mgrwt>
<rscale>  2 0.45535007E+03</rscale>
<asrwt>0</asrwt>
<pdfrwt beam="1">  1       21 0.42517956E-02 0.45535007E+03</pdfrwt>
<pdfrwt beam="2">  1       21 0.26365780E+00 0.45535007E+03</pdfrwt>
<totfact> 0.16798922E+04</totfact>
</mgrwt>
</event>
<event>
 7    0  0.4725730E-002  0.4550432E+03  0.7546771E-02  0.1026229E+00
         21   -1    0    0  502  501  0.00000000000E+00  0.00000000000E+00  0.85122643416E+02  0.85122643416E+02  0.00000000000E+00 0. -1.
         21   -1    0    0  501  502 -0.00000000000E+00 -0.00000000000E+00 -0.60813519949E+03  0.60813519949E+03  0.00000000000E+00 0. -1.
      99926    2    1    2    0    0  0.00000000000E+00  0.71054273576E-14 -0.52301255608E+03  0.69325784291E+03  0.45504318799E+03 0.  0.
      99925    2    3    3    0    0  0.80218268455E+02  0.42275316943E+02 -0.43225831984E+03  0.51407633574E+03  0.26306852887E+03 0.  0.
         25    1    3    3    0    0 -0.80218268455E+02 -0.42275316943E+02 -0.90754236241E+02  0.17918150717E+03  0.12509000000E+03 0.  0.
         25    1    4    4    0    0  0.45412530015E+02  0.39006942235E+02 -0.15548926201E+03  0.20834648575E+03  0.12509000000E+03 0.  0.
         25    1    4    4    0    0  0.34805738441E+02  0.32683747077E+01 -0.27676905783E+03  0.30572984999E+03  0.12509000000E+03 0.  0.
<mgrwt>
<rscale>  2 0.45504319E+03</rscale>
<asrwt>0</asrwt>
<pdfrwt beam="1">  1       21 0.12518037E-01 0.45504319E+03</pdfrwt>
<pdfrwt beam="2">  1       21 0.89431641E-01 0.45504319E+03</pdfrwt>
<totfact> 0.53252491E+04</totfact>
</mgrwt>
</event>
<event>
 7    0  0.4725730E-002  0.4398101E+03  0.7546771E-02  0.1030805E+00
         21   -1    0    0  502  501  0.00000000000E+00  0.00000000000E+00  0.10946659386E+04  0.10946659386E+04  0.00000000000E+00 0. -1.
         21   -1    0    0  501  502 -0.00000000000E+00 -0.00000000000E+00 -0.44176253250E+02  0.44176253250E+02  0.00000000000E+00 0. -1.
      99926    2    1    2    0    0  0.00000000000E+00  0.00000000000E+00  0.10504896854E+04  0.11388421919E+04  0.43981013962E+03 0.  0.
      99925    2    3    3    0    0 -0.53165637162E+02 -0.78670477661E+02  0.60435777605E+03  0.66587621250E+03  0.26292048202E+03 0.  0.
         25    1    3    3    0    0  0.53165637162E+02  0.78670477661E+02  0.44613190931E+03  0.47296597936E+03  0.12509000000E+03 0.  0.
         25    1    4    4    0    0 -0.14568930632E+02 -0.46706954910E+02  0.39197979543E+03  0.41435427052E+03  0.12509000000E+03 0.  0.
         25    1    4    4    0    0 -0.38596706530E+02 -0.31963522750E+02  0.21237798063E+03  0.25152194198E+03  0.12509000000E+03 0.  0.
<mgrwt>
<rscale>  2 0.43981014E+03</rscale>
<asrwt>0</asrwt>
<pdfrwt beam="1">  1       21 0.16098027E+00 0.43981014E+03</pdfrwt>
<pdfrwt beam="2">  1       21 0.64965086E-02 0.43981014E+03</pdfrwt>
<totfact> 0.38519640E+04</totfact>
</mgrwt>
</event>
<event>
 7    0  0.4725730E-002  0.4525306E+03  0.7546771E-02  0.1026970E+00
         21   -1    0    0  502  501  0.00000000000E+00  0.00000000000E+00  0.56943611354E+03  0.56943611354E+03  0.00000000000E+00 0. -1.
         21   -1    0    0  501  502 -0.00000000000E+00 -0.00000000000E+00 -0.89906449616E+02  0.89906449616E+02  0.00000000000E+00 0. -1.
      99926    2    1    2    0    0 -0.71054273576E-14  0.00000000000E+00  0.47952966393E+03  0.65934256316E+03  0.45253057025E+03 0.  0.
      99925    2    3    3    0    0 -0.55597033180E+02  0.68081307377E+02  0.20337639987E+03  0.34369366349E+03  0.26274946201E+03 0.  0.
         25    1    4    4    0    0 -0.14032971643E+02  0.40985214575E+02  0.54910942387E+02  0.14331584630E+03  0.12509000000E+03 0.  0.
         25    1    4    4    0    0 -0.41564061536E+02  0.27096092802E+02  0.14846545748E+03  0.20037781719E+03  0.12509000000E+03 0.  0.
         25    1    3    3    0    0  0.55597033180E+02 -0.68081307377E+02  0.27615326406E+03  0.31564889967E+03  0.12509000000E+03 0.  0.
<mgrwt>
<rscale>  2 0.45253057E+03</rscale>
<asrwt>0</asrwt>
<pdfrwt beam="1">  1       21 0.83740603E-01 0.45253057E+03</pdfrwt>
<pdfrwt beam="2">  1       21 0.13221537E-01 0.45253057E+03</pdfrwt>
<totfact> 0.56253537E+04</totfact>
</mgrwt>
</event>
<event>
 7    0  0.4725730E-002  0.4562383E+03  0.7546771E-02  0.1025878E+00
         21   -1    0    0  502  501  0.00000000000E+00  0.00000000000E+00  0.28413038704E+03  0.28413038704E+03  0.00000000000E+00 0. -1.
         21   -1    0    0  501  502 -0.00000000000E+00 -0.00000000000E+00 -0.18314951019E+03  0.18314951019E+03  0.00000000000E+00 0. -1.
      99926    2    1    2    0    0  0.00000000000E+00 -0.71054273576E-14  0.10098087685E+03  0.46727989723E+03  0.45623827642E+03 0.  0.
      99925    2    3    3    0    0 -0.85377652296E+02  0.62437439306E+02  0.10723556594E+03  0.30334574406E+03  0.26330855759E+03 0.  0.
         25    1    3    3    0    0  0.85377652296E+02 -0.62437439306E+02 -0.62546890943E+01  0.16393415317E+03  0.12509000000E+03 0.  0.
         25    1    4    4    0    0 -0.24555648380E+02  0.54649031183E+02  0.23123610914E+02  0.14061189835E+03  0.12509000000E+03 0.  0.
         25    1    4    4    0    0 -0.60822003916E+02  0.77884081230E+01  0.84111955028E+02  0.16273384571E+03  0.12509000000E+03 0.  0.
<mgrwt>
<rscale>  2 0.45623828E+03</rscale>
<asrwt>0</asrwt>
<pdfrwt beam="1">  1       21 0.41783881E-01 0.45623828E+03</pdfrwt>
<pdfrwt beam="2">  1       21 0.26933751E-01 0.45623828E+03</pdfrwt>
<totfact> 0.66978679E+04</totfact>
</mgrwt>
</event>
<event>
 7    0  0.4725730E-002  0.4302877E+03  0.7546771E-02  0.1033769E+00
         21   -1    0    0  502  501  0.00000000000E+00  0.00000000000E+00  0.16416718777E+03  0.16416718777E+03  0.00000000000E+00 0.  1.
         21   -1    0    0  501  502 -0.00000000000E+00 -0.00000000000E+00 -0.28194956968E+03  0.28194956968E+03  0.00000000000E+00 0.  1.
      99926    2    1    2    0    0 -0.71054273576E-14  0.00000000000E+00 -0.11778238192E+03  0.44611675745E+03  0.43028766167E+03 0.  0.
      99925    2    3    3    0    0 -0.61102006024E+02 -0.60490186682E+02 -0.56557850921E+02  0.28244492383E+03  0.26302818608E+03 0.  0.
         25    1    4    4    0    0 -0.54687075869E+02 -0.20265379913E+02  0.29680139927E+01  0.13804955305E+03  0.12509000000E+03 0.  0.
         25    1    4    4    0    0 -0.64149301557E+01 -0.40224806769E+02 -0.59525864913E+02  0.14439537078E+03  0.12509000000E+03 0.  0.
         25    1    3    3    0    0  0.61102006024E+02  0.60490186682E+02 -0.61224530996E+02  0.16367183362E+03  0.12509000000E+03 0.  0.
<mgrwt>
<rscale>  2 0.43028766E+03</rscale>
<asrwt>0</asrwt>
<pdfrwt beam="1">  1       21 0.24142234E-01 0.43028766E+03</pdfrwt>
<pdfrwt beam="2">  1       21 0.41463172E-01 0.43028766E+03</pdfrwt>
<totfact> 0.84674025E+04</totfact>
</mgrwt>
</event>
<event>
 7    0  0.4725730E-002  0.4590698E+03  0.7546771E-02  0.1025051E+00
         21   -1    0    0  502  501  0.00000000000E+00  0.00000000000E+00  0.84615082210E+02  0.84615082210E+02  0.00000000000E+00 0.  1.
         21   -1    0    0  501  502 -0.00000000000E+00 -0.00000000000E+00 -0.62265825296E+03  0.62265825296E+03  0.00000000000E+00 0.  1.
      99926    2    1    2    0    0  0.00000000000E+00  0.00000000000E+00 -0.53804317075E+03  0.70727333517E+03  0.45906983897E+03 0.  0.
      99925    2    3    3    0    0  0.10379248855E+03  0.46974925175E+02 -0.29706136127E+03  0.41282594619E+03  0.26305947087E+03 0.  0.
         25    1    4    4    0    0  0.61795385449E+02  0.44842336550E+02 -0.20467877074E+03  0.25173480510E+03  0.12509000000E+03 0.  0.
         25    1    4    4    0    0  0.41997103104E+02  0.21325886254E+01 -0.92382590527E+02  0.16109114108E+03  0.12509000000E+03 0.  0.
         25    1    3    3    0    0 -0.10379248855E+03 -0.46974925175E+02 -0.24098180949E+03  0.29444738898E+03  0.12509000000E+03 0.  0.
<mgrwt>
<rscale>  2 0.45906984E+03</rscale>
<asrwt>0</asrwt>
<pdfrwt beam="1">  1       21 0.12443395E-01 0.45906984E+03</pdfrwt>
<pdfrwt beam="2">  1       21 0.91567387E-01 0.45906984E+03</pdfrwt>
<totfact> 0.50861441E+04</totfact>
</mgrwt>
</event>
<event>
 7    0  0.4725730E-002  0.4415707E+03  0.7546771E-02  0.1030266E+00
         21   -1    0    0  502  501  0.00000000000E+00  0.00000000000E+00  0.17516884349E+03  0.17516884349E+03  0.00000000000E+00 0. -1.
         21   -1    0    0  501  502 -0.00000000000E+00 -0.00000000000E+00 -0.27828109195E+03  0.27828109195E+03  0.00000000000E+00 0. -1.
      99926    2    1    2    0    0  0.71054273576E-14 -0.71054273576E-14 -0.10311224846E+03  0.45344993544E+03  0.44157072838E+03 0.  0.
      99925    2    3    3    0    0  0.63717861425E+02 -0.58743896272E+02 -0.11714414552E+03  0.30062580956E+03  0.26294926380E+03 0.  0.
         25    1    4    4    0    0  0.72227947718E+02 -0.37517900278E+02 -0.54583422262E+02  0.15890666241E+03  0.12509000000E+03 0.  0.
         25    1    3    3    0    0 -0.63717861425E+02  0.58743896272E+02  0.14031897067E+02  0.15282412587E+03  0.12509000000E+03 0.  0.
         25    1    4    4    0    0 -0.85100862926E+01 -0.21225995995E+02 -0.62560723261E+02  0.14171914715E+03  0.12509000000E+03 0.  0.
<mgrwt>
<rscale>  2 0.44157073E+03</rscale>
<asrwt>0</asrwt>
<pdfrwt beam="1">  1       21 0.25760124E-01 0.44157073E+03</pdfrwt>
<pdfrwt beam="2">  1       21 0.40923690E-01 0.44157073E+03</pdfrwt>
<totfact> 0.76518381E+04</totfact>
</mgrwt>
</event>
<event>
 7    0  0.4725730E-002  0.4549692E+03  0.7546771E-02  0.1026250E+00
         21   -1    0    0  502  501  0.00000000000E+00  0.00000000000E+00  0.78475165733E+03  0.78475165733E+03  0.00000000000E+00 0. -1.
         21   -1    0    0  501  502 -0.00000000000E+00 -0.00000000000E+00 -0.65943460888E+02  0.65943460888E+02  0.00000000000E+00 0. -1.
      99926    2    1    2    0    0  0.71054273576E-14  0.00000000000E+00  0.71880819644E+03  0.85069511822E+03  0.45496918675E+03 0.  0.
      99925    2    3    3    0    0 -0.41665159270E+02 -0.37956404850E+02  0.63569948160E+03  0.69028551517E+03  0.26306574727E+03 0.  0.
         25    1    4    4    0    0 -0.24231440105E+02 -0.58901707126E+02  0.30862475240E+03  0.33904766580E+03  0.12509000000E+03 0.  0.
         25    1    4    4    0    0 -0.17433719165E+02  0.20945302277E+02  0.32707472919E+03  0.35123784937E+03  0.12509000000E+03 0.  0.
         25    1    3    3    0    0  0.41665159270E+02  0.37956404850E+02  0.83108714845E+02  0.16040960305E+03  0.12509000000E+03 0.  0.
<mgrwt>
<rscale>  2 0.45496919E+03</rscale>
<asrwt>0</asrwt>
<pdfrwt beam="1">  1       21 0.11540465E+00 0.45496919E+03</pdfrwt>
<pdfrwt beam="2">  1       21 0.96975682E-02 0.45496919E+03</pdfrwt>
<totfact> 0.45419276E+04</totfact>
</mgrwt>
</event>
<event>
 7    0  0.4725730E-002  0.4593737E+03  0.7546771E-02  0.1024963E+00
         21   -1    0    0  502  501  0.00000000000E+00  0.00000000000E+00  0.11954848047E+03  0.11954848047E+03  0.00000000000E+00 0. -1.
         21   -1    0    0  501  502 -0.00000000000E+00 -0.00000000000E+00 -0.44129419081E+03  0.44129419081E+03  0.00000000000E+00 0. -1.
      99926    2    1    2    0    0  0.71054273576E-14  0.00000000000E+00 -0.32174571034E+03  0.56084267127E+03  0.45937370386E+03 0.  0.
      99925    2    3    3    0    0  0.41185665045E+02 -0.43109176511E+02 -0.77630553346E+02  0.28013930813E+03  0.26248213090E+03 0.  0.
         25    1    3    3    0    0 -0.41185665045E+02  0.43109176511E+02 -0.24411515699E+03  0.28070336314E+03  0.12509000000E+03 0.  0.
         25    1    4    4    0    0  0.54676704037E+02 -0.50864803400E+01 -0.26793178761E+02  0.13921493014E+03  0.12509000000E+03 0.  0.
         25    1    4    4    0    0 -0.13491038992E+02 -0.38022696171E+02 -0.50837374585E+02  0.14092437799E+03  0.12509000000E+03 0.  0.
<mgrwt>
<rscale>  2 0.45937370E+03</rscale>
<asrwt>0</asrwt>
<pdfrwt beam="1">  1       21 0.17580659E-01 0.45937370E+03</pdfrwt>
<pdfrwt beam="2">  1       21 0.64896204E-01 0.45937370E+03</pdfrwt>
<totfact> 0.59084922E+04</totfact>
</mgrwt>
</event>
<event>
 7    0  0.4725730E-002  0.4536920E+03  0.7546771E-02  0.1026627E+00
         21   -1    0    0  502  501  0.00000000000E+00  0.00000000000E+00  0.14131966039E+03  0.14131966039E+03  0.00000000000E+00 0. -1.
         21   -1    0    0  501  502 -0.00000000000E+00 -0.00000000000E+00 -0.36413264085E+03  0.36413264085E+03  0.00000000000E+00 0. -1.
      99926    2    1    2    0    0 -0.14210854715E-13  0.00000000000E+00 -0.22281298046E+03  0.50545230124E+03  0.45369197102E+03 0.  0.
      99925    2    3    3    0    0  0.95936485191E+02  0.44781286298E+01 -0.75537945618E+02  0.28967160977E+03  0.26264005302E+03 0.  0.
         25    1    4    4    0    0  0.22791675629E+02 -0.34527399110E+01 -0.25347828862E+01  0.12722151986E+03  0.12509000000E+03 0.  0.
         25    1    4    4    0    0  0.73144809562E+02  0.79308685408E+01 -0.73003162732E+02  0.16245008991E+03  0.12509000000E+03 0.  0.
         25    1    3    3    0    0 -0.95936485191E+02 -0.44781286298E+01 -0.14727503484E+03  0.21578069148E+03  0.12509000000E+03 0.  0.
<mgrwt>
<rscale>  2 0.45369197E+03</rscale>
<asrwt>0</asrwt>
<pdfrwt beam="1">  1       21 0.20782303E-01 0.45369197E+03</pdfrwt>
<pdfrwt beam="2">  1       21 0.53548917E-01 0.45369197E+03</pdfrwt>
<totfact> 0.65567369E+04</totfact>
</mgrwt>
</event>
<event>
 7    0  0.4725730E-002  0.4639048E+03  0.7546771E-02  0.1023655E+00
         21   -1    0    0  502  501  0.00000000000E+00  0.00000000000E+00  0.35794877593E+02  0.35794877593E+02  0.00000000000E+00 0. -1.
         21   -1    0    0  501  502 -0.00000000000E+00 -0.00000000000E+00 -0.15030616320E+04  0.15030616320E+04  0.00000000000E+00 0. -1.
      99926    2    1    2    0    0  0.00000000000E+00  0.14210854715E-13 -0.14672667544E+04  0.15388565096E+04  0.46390476234E+03 0.  0.
      99925    2    3    3    0    0 -0.45140772641E+02 -0.78227305955E+02 -0.11848432781E+04  0.12170371055E+04  0.26299909098E+03 0.  0.
         25    1    4    4    0    0 -0.19229127047E+02 -0.78314607763E+02 -0.57417732541E+03  0.59315263316E+03  0.12509000000E+03 0.  0.
         25    1    4    4    0    0 -0.25911645594E+02  0.87301808768E-01 -0.61066595268E+03  0.62388447236E+03  0.12509000000E+03 0.  0.
         25    1    3    3    0    0  0.45140772641E+02  0.78227305955E+02 -0.28242347628E+03  0.32181940402E+03  0.12509000000E+03 0.  0.
<mgrwt>
<rscale>  2 0.46390476E+03</rscale>
<asrwt>0</asrwt>
<pdfrwt beam="1">  1       21 0.52639526E-02 0.46390476E+03</pdfrwt>
<pdfrwt beam="2">  1       21 0.22103848E+00 0.46390476E+03</pdfrwt>
<totfact> 0.21329041E+04</totfact>
</mgrwt>
</event>
<event>
 7    0  0.4725730E-002  0.4574559E+03  0.7546771E-02  0.1025522E+00
         21   -1    0    0  502  501  0.00000000000E+00  0.00000000000E+00  0.19942271333E+03  0.19942271333E+03  0.00000000000E+00 0.  1.
         21   -1    0    0  501  502 -0.00000000000E+00 -0.00000000000E+00 -0.26233960291E+03  0.26233960291E+03  0.00000000000E+00 0.  1.
      99926    2    1    2    0    0  0.00000000000E+00  0.00000000000E+00 -0.62916889576E+02  0.46176231624E+03  0.45745590138E+03 0.  0.
      99925    2    3    3    0    0  0.91029874844E+02 -0.71575792922E+02 -0.37325424697E+02  0.28939073094E+03  0.26257241968E+03 0.  0.
         25    1    4    4    0    0  0.54857489922E+02 -0.59909017022E+02 -0.51721146642E+02  0.15786392758E+03  0.12509000000E+03 0.  0.
         25    1    3    3    0    0 -0.91029874844E+02  0.71575792922E+02 -0.25591464878E+02  0.17237158531E+03  0.12509000000E+03 0.  0.
         25    1    4    4    0    0  0.36172384922E+02 -0.11666775900E+02  0.14395721945E+02  0.13152680336E+03  0.12509000000E+03 0.  0.
<mgrwt>
<rscale>  2 0.45745590E+03</rscale>
<asrwt>0</asrwt>
<pdfrwt beam="1">  1       21 0.29326870E-01 0.45745590E+03</pdfrwt>
<pdfrwt beam="2">  1       21 0.38579353E-01 0.45745590E+03</pdfrwt>
<totfact> 0.66735684E+04</totfact>
</mgrwt>
</event>
<event>
 7    0  0.4725730E-002  0.4587049E+03  0.7546771E-02  0.1025158E+00
         21   -1    0    0  502  501  0.00000000000E+00  0.00000000000E+00  0.76199904415E+02  0.76199904415E+02  0.00000000000E+00 0.  1.
         21   -1    0    0  501  502 -0.00000000000E+00 -0.00000000000E+00 -0.69032286355E+03  0.69032286355E+03  0.00000000000E+00 0.  1.
      99926    2    1    2    0    0  0.00000000000E+00  0.00000000000E+00 -0.61412295914E+03  0.76652276797E+03  0.45870485595E+03 0.  0.
      99925    2    3    3    0    0 -0.16440387481E+02  0.16929419118E+02 -0.57608321029E+03  0.63366411313E+03  0.26287154947E+03 0.  0.
         25    1    3    3    0    0  0.16440387481E+02 -0.16929419118E+02 -0.38039748848E+02  0.13285865484E+03  0.12509000000E+03 0.  0.
         25    1    4    4    0    0 -0.27603045786E+01 -0.39833127585E+01 -0.19431031043E+03  0.23114387489E+03  0.12509000000E+03 0.  0.
         25    1    4    4    0    0 -0.13680082903E+02  0.20912731877E+02 -0.38177289986E+03  0.40252023824E+03  0.12509000000E+03 0.  0.
<mgrwt>
<rscale>  2 0.45870486E+03</rscale>
<asrwt>0</asrwt>
<pdfrwt beam="1">  1       21 0.11205869E-01 0.45870486E+03</pdfrwt>
<pdfrwt beam="2">  1       21 0.10151806E+00 0.45870486E+03</pdfrwt>
<totfact> 0.48014735E+04</totfact>
</mgrwt>
</event>
<event>
 7    0  0.4725730E-002  0.4580290E+03  0.7546771E-02  0.1025354E+00
         21   -1    0    0  502  501  0.00000000000E+00  0.00000000000E+00  0.39644053303E+03  0.39644053303E+03  0.00000000000E+00 0.  1.
         21   -1    0    0  501  502 -0.00000000000E+00 -0.00000000000E+00 -0.13229633740E+03  0.13229633740E+03  0.00000000000E+00 0.  1.
      99926    2    1    2    0    0  0.00000000000E+00  0.00000000000E+00  0.26414419564E+03  0.52873687043E+03  0.45802895330E+03 0.  0.
      99925    2    3    3    0    0  0.74785604944E+02 -0.12683480088E+02  0.62376102588E+02  0.27951482316E+03  0.26169447991E+03 0.  0.
         25    1    4    4    0    0  0.67588311681E+02 -0.21468463408E+02  0.54114050743E+02  0.15363890583E+03  0.12509000000E+03 0.  0.
         25    1    3    3    0    0 -0.74785604944E+02  0.12683480088E+02  0.20176809305E+03  0.24922204727E+03  0.12509000000E+03 0.  0.
         25    1    4    4    0    0  0.71972932637E+01  0.87849833195E+01  0.82620518454E+01  0.12587591733E+03  0.12509000000E+03 0.  0.
<mgrwt>
<rscale>  2 0.45802895E+03</rscale>
<asrwt>0</asrwt>
<pdfrwt beam="1">  1       21 0.58300078E-01 0.45802895E+03</pdfrwt>
<pdfrwt beam="2">  1       21 0.19455344E-01 0.45802895E+03</pdfrwt>
<totfact> 0.61795057E+04</totfact>
</mgrwt>
</event>
<event>
 7    0  0.4725730E-002  0.4486461E+03  0.7546771E-02  0.1028127E+00
         21   -1    0    0  502  501  0.00000000000E+00  0.00000000000E+00  0.12241983465E+03  0.12241983465E+03  0.00000000000E+00 0.  1.
         21   -1    0    0  501  502 -0.00000000000E+00 -0.00000000000E+00 -0.41105127256E+03  0.41105127256E+03  0.00000000000E+00 0.  1.
      99926    2    1    2    0    0  0.00000000000E+00  0.00000000000E+00 -0.28863143791E+03  0.53347110721E+03  0.44864609134E+03 0.  0.
      99925    2    3    3    0    0  0.45668098255E+02  0.16416646287E+02 -0.29623115430E+03  0.39908232322E+03  0.26298046021E+03 0.  0.
         25    1    4    4    0    0 -0.15766865578E+02 -0.59625202863E+01 -0.14380070224E+03  0.19133817121E+03  0.12509000000E+03 0.  0.
         25    1    4    4    0    0  0.61434963833E+02  0.22379166573E+02 -0.15243045206E+03  0.20774415201E+03  0.12509000000E+03 0.  0.
         25    1    3    3    0    0 -0.45668098255E+02 -0.16416646287E+02  0.75997163889E+01  0.13438878399E+03  0.12509000000E+03 0.  0.
<mgrwt>
<rscale>  2 0.44864609E+03</rscale>
<asrwt>0</asrwt>
<pdfrwt beam="1">  1       21 0.18002917E-01 0.44864609E+03</pdfrwt>
<pdfrwt beam="2">  1       21 0.60448716E-01 0.44864609E+03</pdfrwt>
<totfact> 0.66241228E+04</totfact>
</mgrwt>
</event>
<event>
 7    0  0.4725730E-002  0.4541923E+03  0.7546771E-02  0.1026479E+00
         21   -1    0    0  502  501  0.00000000000E+00  0.00000000000E+00  0.71846310126E+03  0.71846310126E+03  0.00000000000E+00 0. -1.
         21   -1    0    0  501  502 -0.00000000000E+00 -0.00000000000E+00 -0.71781926736E+02  0.71781926736E+02  0.00000000000E+00 0. -1.
      99926    2    1    2    0    0  0.71054273576E-14  0.17763568394E-14  0.64668117452E+03  0.79024502799E+03  0.45419231916E+03 0.  0.
      99925    2    3    3    0    0 -0.59162525904E+02 -0.15698052815E+02  0.24328504551E+03  0.36348680800E+03  0.26303690404E+03 0.  0.
         25    1    4    4    0    0 -0.52072828232E+01  0.30558104516E+01  0.15822902635E+03  0.20179293013E+03  0.12509000000E+03 0.  0.
         25    1    4    4    0    0 -0.53955243081E+02 -0.18753863266E+02  0.85056019163E+02  0.16169387787E+03  0.12509000000E+03 0.  0.
         25    1    3    3    0    0  0.59162525904E+02  0.15698052815E+02  0.40339612901E+03  0.42675821999E+03  0.12509000000E+03 0.  0.
<mgrwt>
<rscale>  2 0.45419232E+03</rscale>
<asrwt>0</asrwt>
<pdfrwt beam="1">  1       21 0.10565633E+00 0.45419232E+03</pdfrwt>
<pdfrwt beam="2">  1       21 0.10556166E-01 0.45419232E+03</pdfrwt>
<totfact> 0.48547297E+04</totfact>
</mgrwt>
</event>
<event>
 7    0  0.4725730E-002  0.4517118E+03  0.7546771E-02  0.1027213E+00
         21   -1    0    0  502  501  0.00000000000E+00  0.00000000000E+00  0.36240663360E+03  0.36240663360E+03  0.00000000000E+00 0.  1.
         21   -1    0    0  501  502 -0.00000000000E+00 -0.00000000000E+00 -0.14075597099E+03  0.14075597099E+03  0.00000000000E+00 0.  1.
      99926    2    1    2    0    0  0.26645352591E-14  0.00000000000E+00  0.22165066261E+03  0.50316260460E+03  0.45171184446E+03 0.  0.
      99925    2    3    3    0    0 -0.67275112395E+01  0.44971848201E+02  0.25154152637E+03  0.36674890156E+03  0.26299028646E+03 0.  0.
         25    1    3    3    0    0  0.67275112395E+01 -0.44971848201E+02 -0.29890863764E+02  0.13641370303E+03  0.12509000000E+03 0.  0.
         25    1    4    4    0    0 -0.41453773154E+02  0.99417353153E+01  0.13299559551E+03  0.18749023957E+03  0.12509000000E+03 0.  0.
         25    1    4    4    0    0  0.34726261914E+02  0.35030112886E+02  0.11854593087E+03  0.17925866199E+03  0.12509000000E+03 0.  0.
<mgrwt>
<rscale>  2 0.45171184E+03</rscale>
<asrwt>0</asrwt>
<pdfrwt beam="1">  1       21 0.53295093E-01 0.45171184E+03</pdfrwt>
<pdfrwt beam="2">  1       21 0.20699407E-01 0.45171184E+03</pdfrwt>
<totfact> 0.66774859E+04</totfact>
</mgrwt>
</event>
<event>
 7    0  0.4725730E-002  0.4431128E+03  0.7546771E-02  0.1029796E+00
         21   -1    0    0  502  501  0.00000000000E+00  0.00000000000E+00  0.35895574372E+03  0.35895574372E+03  0.00000000000E+00 0. -1.
         21   -1    0    0  501  502 -0.00000000000E+00 -0.00000000000E+00 -0.13675012746E+03  0.13675012746E+03  0.00000000000E+00 0. -1.
      99926    2    1    2    0    0  0.00000000000E+00  0.14210854715E-13  0.22220561626E+03  0.49570587119E+03  0.44311282404E+03 0.  0.
      99925    2    3    3    0    0 -0.61986417535E+02  0.75611863219E+02  0.17173874243E+03  0.32911090346E+03  0.26317355738E+03 0.  0.
         25    1    4    4    0    0 -0.17918558679E+02  0.53916782313E+02  0.12802361516E+03  0.18779150220E+03  0.12509000000E+03 0.  0.
         25    1    4    4    0    0 -0.44067858856E+02  0.21695080906E+02  0.43715127267E+02  0.14131940126E+03  0.12509000000E+03 0.  0.
         25    1    3    3    0    0  0.61986417535E+02 -0.75611863219E+02  0.50466873829E+02  0.16659496773E+03  0.12509000000E+03 0.  0.
<mgrwt>
<rscale>  2 0.44311282E+03</rscale>
<asrwt>0</asrwt>
<pdfrwt beam="1">  1       21 0.52787609E-01 0.44311282E+03</pdfrwt>
<pdfrwt beam="2">  1       21 0.20110313E-01 0.44311282E+03</pdfrwt>
<totfact> 0.72144082E+04</totfact>
</mgrwt>
</event>
<event>
 7    0  0.4725730E-002  0.4562727E+03  0.7546771E-02  0.1025868E+00
         21   -1    0    0  502  501  0.00000000000E+00  0.00000000000E+00  0.98867463902E+02  0.98867463902E+02  0.00000000000E+00 0. -1.
         21   -1    0    0  501  502 -0.00000000000E+00 -0.00000000000E+00 -0.52642399034E+03  0.52642399034E+03  0.00000000000E+00 0. -1.
      99926    2    1    2    0    0  0.00000000000E+00  0.00000000000E+00 -0.42755652644E+03  0.62529145424E+03  0.45627274677E+03 0.  0.
      99925    2    3    3    0    0 -0.14720711734E+02  0.69624761739E+02 -0.14607439465E+03  0.30915223584E+03  0.26300773629E+03 0.  0.
         25    1    4    4    0    0 -0.39777455791E+02  0.42532665383E+02 -0.48444364861E+02  0.14623829252E+03  0.12509000000E+03 0.  0.
         25    1    4    4    0    0  0.25056744057E+02  0.27092096356E+02 -0.97630029794E+02  0.16291394331E+03  0.12509000000E+03 0.  0.
         25    1    3    3    0    0  0.14720711734E+02 -0.69624761739E+02 -0.28148213178E+03  0.31613921841E+03  0.12509000000E+03 0.  0.
<mgrwt>
<rscale>  2 0.45627275E+03</rscale>
<asrwt>0</asrwt>
<pdfrwt beam="1">  1       21 0.14539333E-01 0.45627275E+03</pdfrwt>
<pdfrwt beam="2">  1       21 0.77415291E-01 0.45627275E+03</pdfrwt>
<totfact> 0.56577230E+04</totfact>
</mgrwt>
</event>
<event>
 7    0  0.4725730E-002  0.4497844E+03  0.7546771E-02  0.1027786E+00
         21   -1    0    0  502  501  0.00000000000E+00  0.00000000000E+00  0.57657303265E+02  0.57657303265E+02  0.00000000000E+00 0. -1.
         21   -1    0    0  501  502 -0.00000000000E+00 -0.00000000000E+00 -0.87719145603E+03  0.87719145603E+03  0.00000000000E+00 0. -1.
      99926    2    1    2    0    0  0.00000000000E+00  0.00000000000E+00 -0.81953415276E+03  0.93484875929E+03  0.44978436523E+03 0.  0.
      99925    2    3    3    0    0  0.68050012772E+02 -0.83708458293E+02 -0.53194454284E+03  0.60319652869E+03  0.26314092296E+03 0.  0.
         25    1    3    3    0    0 -0.68050012772E+02  0.83708458293E+02 -0.28758960992E+03  0.33165223060E+03  0.12509000000E+03 0.  0.
         25    1    4    4    0    0  0.29400125591E+02 -0.26958259378E+02 -0.33647004779E+03  0.36117961777E+03  0.12509000000E+03 0.  0.
         25    1    4    4    0    0  0.38649887181E+02 -0.56750198915E+02 -0.19547449505E+03  0.24201691092E+03  0.12509000000E+03 0.  0.
<mgrwt>
<rscale>  2 0.44978437E+03</rscale>
<asrwt>0</asrwt>
<pdfrwt beam="1">  1       21 0.84790155E-02 0.44978437E+03</pdfrwt>
<pdfrwt beam="2">  1       21 0.12899874E+00 0.44978437E+03</pdfrwt>
<totfact> 0.43508342E+04</totfact>
</mgrwt>
</event>
<event>
 7    0  0.4725730E-002  0.4538168E+03  0.7546771E-02  0.1026590E+00
         21   -1    0    0  502  501  0.00000000000E+00  0.00000000000E+00  0.82992715975E+02  0.82992715975E+02  0.00000000000E+00 0. -1.
         21   -1    0    0  501  502 -0.00000000000E+00 -0.00000000000E+00 -0.62038493224E+03  0.62038493224E+03  0.00000000000E+00 0. -1.
      99926    2    1    2    0    0  0.00000000000E+00 -0.14210854715E-13 -0.53739221627E+03  0.70337764822E+03  0.45381683740E+03 0.  0.
      99925    2    3    3    0    0 -0.86230560680E+02  0.71096966090E+02 -0.35092603542E+03  0.45256370745E+03  0.26301014958E+03 0.  0.
         25    1    4    4    0    0 -0.31634728569E+02 -0.55067574257E+01 -0.16496862049E+03  0.20950712225E+03  0.12509000000E+03 0.  0.
         25    1    4    4    0    0 -0.54595832111E+02  0.76603723516E+02 -0.18595741493E+03  0.24305658520E+03  0.12509000000E+03 0.  0.
         25    1    3    3    0    0  0.86230560680E+02 -0.71096966090E+02 -0.18646618085E+03  0.25081394077E+03  0.12509000000E+03 0.  0.
<mgrwt>
<rscale>  2 0.45381684E+03</rscale>
<asrwt>0</asrwt>
<pdfrwt beam="1">  1       21 0.12204811E-01 0.45381684E+03</pdfrwt>
<pdfrwt beam="2">  1       21 0.91233076E-01 0.45381684E+03</pdfrwt>
<totfact> 0.53213663E+04</totfact>
</mgrwt>
</event>
<event>
 7    0  0.4725730E-002  0.4506429E+03  0.7546771E-02  0.1027530E+00
         21   -1    0    0  502  501  0.00000000000E+00  0.00000000000E+00  0.22973605554E+03  0.22973605554E+03  0.00000000000E+00 0.  1.
         21   -1    0    0  501  502 -0.00000000000E+00 -0.00000000000E+00 -0.22099170469E+03  0.22099170469E+03  0.00000000000E+00 0.  1.
      99926    2    1    2    0    0  0.22204460493E-15  0.00000000000E+00  0.87443508551E+01  0.45072776023E+03  0.45064292979E+03 0.  0.
      99925    2    3    3    0    0 -0.14278718049E+01  0.87353233831E+02  0.72441367445E+02  0.28538737103E+03  0.26185028842E+03 0.  0.
         25    1    4    4    0    0  0.53614540270E+01  0.45075748170E+02  0.75767251271E+02  0.15312985577E+03  0.12509000000E+03 0.  0.
         25    1    4    4    0    0 -0.67893258319E+01  0.42277485661E+02 -0.33258838265E+01  0.13225751526E+03  0.12509000000E+03 0.  0.
         25    1    3    3    0    0  0.14278718049E+01 -0.87353233831E+02 -0.63697016590E+02  0.16534038920E+03  0.12509000000E+03 0.  0.
<mgrwt>
<rscale>  2 0.45064293E+03</rscale>
<asrwt>0</asrwt>
<pdfrwt beam="1">  1       21 0.33784714E-01 0.45064293E+03</pdfrwt>
<pdfrwt beam="2">  1       21 0.32498780E-01 0.45064293E+03</pdfrwt>
<totfact> 0.71306829E+04</totfact>
</mgrwt>
</event>
<event>
 7    0  0.4725730E-002  0.4407789E+03  0.7546771E-02  0.1030508E+00
         21   -1    0    0  502  501  0.00000000000E+00  0.00000000000E+00  0.41174225144E+03  0.41174225144E+03  0.00000000000E+00 0. -1.
         21   -1    0    0  501  502 -0.00000000000E+00 -0.00000000000E+00 -0.11796579364E+03  0.11796579364E+03  0.00000000000E+00 0. -1.
      99926    2    1    2    0    0  0.00000000000E+00  0.00000000000E+00  0.29377645780E+03  0.52970804508E+03  0.44077886277E+03 0.  0.
      99925    2    3    3    0    0  0.35217380047E+02  0.79320802939E+02  0.12930473626E+03  0.30558640640E+03  0.26292828551E+03 0.  0.
         25    1    3    3    0    0 -0.35217380047E+02 -0.79320802939E+02  0.16447172154E+03  0.22412163868E+03  0.12509000000E+03 0.  0.
         25    1    4    4    0    0  0.44503967723E+00  0.75156782502E+02  0.55114623452E+02  0.15599317240E+03  0.12509000000E+03 0.  0.
         25    1    4    4    0    0  0.34772340369E+02  0.41640204371E+01  0.74190112808E+02  0.14959323400E+03  0.12509000000E+03 0.  0.
<mgrwt>
<rscale>  2 0.44077886E+03</rscale>
<asrwt>0</asrwt>
<pdfrwt beam="1">  1       21 0.60550331E-01 0.44077886E+03</pdfrwt>
<pdfrwt beam="2">  1       21 0.17347911E-01 0.44077886E+03</pdfrwt>
<totfact> 0.70875654E+04</totfact>
</mgrwt>
</event>
<event>
 7    0  0.4725730E-002  0.4408584E+03  0.7546771E-02  0.1030484E+00
         21   -1    0    0  502  501  0.00000000000E+00  0.00000000000E+00  0.30541183873E+02  0.30541183873E+02  0.00000000000E+00 0.  1.
         21   -1    0    0  501  502 -0.00000000000E+00 -0.00000000000E+00 -0.15909346814E+04  0.15909346814E+04  0.00000000000E+00 0.  1.
      99926    2    1    2    0    0 -0.71054273576E-14  0.00000000000E+00 -0.15603934976E+04  0.16214758653E+04  0.44085838377E+03 0.  0.
      99925    2    3    3    0    0 -0.58765514931E+02  0.70644208785E+02 -0.11340838468E+04  0.11677893916E+04  0.26294847711E+03 0.  0.
         25    1    4    4    0    0 -0.38566740366E+02 -0.97454535422E+00 -0.46617793755E+03  0.48420834437E+03  0.12509000000E+03 0.  0.
         25    1    4    4    0    0 -0.20198774565E+02  0.71618754139E+02 -0.66790590921E+03  0.68358104721E+03  0.12509000000E+03 0.  0.
         25    1    3    3    0    0  0.58765514931E+02 -0.70644208785E+02 -0.42630965080E+03  0.45368647373E+03  0.12509000000E+03 0.  0.
<mgrwt>
<rscale>  2 0.44085838E+03</rscale>
<asrwt>0</asrwt>
<pdfrwt beam="1">  1       21 0.44913503E-02 0.44085838E+03</pdfrwt>
<pdfrwt beam="2">  1       21 0.23396100E+00 0.44085838E+03</pdfrwt>
<totfact> 0.23416509E+04</totfact>
</mgrwt>
</event>
<event>
 7    0  0.4725730E-002  0.4602474E+03  0.7546771E-02  0.1024709E+00
         21   -1    0    0  502  501  0.00000000000E+00  0.00000000000E+00  0.41334769585E+03  0.41334769585E+03  0.00000000000E+00 0. -1.
         21   -1    0    0  501  502 -0.00000000000E+00 -0.00000000000E+00 -0.12811713025E+03  0.12811713025E+03  0.00000000000E+00 0. -1.
      99926    2    1    2    0    0  0.14210854715E-13  0.00000000000E+00  0.28523056560E+03  0.54146482611E+03  0.46024741429E+03 0.  0.
      99925    2    3    3    0    0 -0.65804148307E+02  0.52626116745E+02  0.27581224210E+03  0.39034928417E+03  0.26305983475E+03 0.  0.
         25    1    3    3    0    0  0.65804148307E+02 -0.52626116745E+02  0.94183234964E+01  0.15111554194E+03  0.12509000000E+03 0.  0.
         25    1    4    4    0    0  0.36850731745E+01  0.43660840431E+02  0.12330962179E+03  0.18103209571E+03  0.12509000000E+03 0.  0.
         25    1    4    4    0    0 -0.69489221481E+02  0.89652763147E+01  0.15250262032E+03  0.20931718846E+03  0.12509000000E+03 0.  0.
<mgrwt>
<rscale>  2 0.46024741E+03</rscale>
<asrwt>0</asrwt>
<pdfrwt beam="1">  1       21 0.60786425E-01 0.46024741E+03</pdfrwt>
<pdfrwt beam="2">  1       21 0.18840755E-01 0.46024741E+03</pdfrwt>
<totfact> 0.59906795E+04</totfact>
</mgrwt>
</event>
<event>
 7    0  0.4725730E-002  0.4559085E+03  0.7546771E-02  0.1025975E+00
         21   -1    0    0  502  501  0.00000000000E+00  0.00000000000E+00  0.76530321672E+02  0.76530321672E+02  0.00000000000E+00 0.  1.
         21   -1    0    0  501  502 -0.00000000000E+00 -0.00000000000E+00 -0.67898765300E+03  0.67898765300E+03  0.00000000000E+00 0.  1.
      99926    2    1    2    0    0  0.00000000000E+00  0.00000000000E+00 -0.60245733133E+03  0.75551797467E+03  0.45590851492E+03 0.  0.
      99925    2    3    3    0    0 -0.79171491859E+02 -0.79084454433E+02 -0.41526592451E+03  0.50410077768E+03  0.26296260180E+03 0.  0.
         25    1    4    4    0    0 -0.19871584157E+02 -0.57207350050E+01 -0.15420245905E+03  0.19963344695E+03  0.12509000000E+03 0.  0.
         25    1    4    4    0    0 -0.59299907702E+02 -0.73363719428E+02 -0.26106346546E+03  0.30446733073E+03  0.12509000000E+03 0.  0.
         25    1    3    3    0    0  0.79171491859E+02  0.79084454433E+02 -0.18719140682E+03  0.25141719699E+03  0.12509000000E+03 0.  0.
<mgrwt>
<rscale>  2 0.45590851E+03</rscale>
<asrwt>0</asrwt>
<pdfrwt beam="1">  1       21 0.11254459E-01 0.45590851E+03</pdfrwt>
<pdfrwt beam="2">  1       21 0.99851124E-01 0.45590851E+03</pdfrwt>
<totfact> 0.49634912E+04</totfact>
</mgrwt>
</event>
<event>
 7    0  0.4725730E-002  0.4472967E+03  0.7546771E-02  0.1028531E+00
         21   -1    0    0  502  501  0.00000000000E+00  0.00000000000E+00  0.22469237338E+04  0.22469237338E+04  0.00000000000E+00 0. -1.
         21   -1    0    0  501  502 -0.00000000000E+00 -0.00000000000E+00 -0.22260913923E+02  0.22260913923E+02  0.00000000000E+00 0. -1.
      99926    2    1    2    0    0  0.00000000000E+00  0.35527136788E-14  0.22246628199E+04  0.22691846477E+04  0.44729666143E+03 0.  0.
      99925    2    3    3    0    0 -0.95015416652E+02 -0.12856931193E+02  0.16364921638E+04  0.16602630938E+04  0.26300895104E+03 0.  0.
         25    1    4    4    0    0 -0.53509458145E+02  0.26410733110E+02  0.68457416699E+03  0.69846265980E+03  0.12509000000E+03 0.  0.
         25    1    3    3    0    0  0.95015416652E+02  0.12856931193E+02  0.58817065612E+03  0.60892155398E+03  0.12509000000E+03 0.  0.
         25    1    4    4    0    0 -0.41505958508E+02 -0.39267664303E+02  0.95191799678E+03  0.96180043395E+03  0.12509000000E+03 0.  0.
<mgrwt>
<rscale>  2 0.44729666E+03</rscale>
<asrwt>0</asrwt>
<pdfrwt beam="1">  1       21 0.33042981E+00 0.44729666E+03</pdfrwt>
<pdfrwt beam="2">  1       21 0.32736654E-02 0.44729666E+03</pdfrwt>
<totfact> 0.10400230E+04</totfact>
</mgrwt>
</event>
<event>
 7    0  0.4725730E-002  0.4255633E+03  0.7546771E-02  0.1035271E+00
         21   -1    0    0  502  501  0.00000000000E+00  0.00000000000E+00  0.12496320018E+03  0.12496320018E+03  0.00000000000E+00 0.  1.
         21   -1    0    0  501  502 -0.00000000000E+00 -0.00000000000E+00 -0.36231494364E+03  0.36231494364E+03  0.00000000000E+00 0.  1.
      99926    2    1    2    0    0  0.00000000000E+00 -0.71054273576E-14 -0.23735174347E+03  0.48727814382E+03  0.42556331999E+03 0.  0.
      99925    2    3    3    0    0  0.32051164278E+02 -0.56577446897E+02 -0.95759102589E+02  0.28746756182E+03  0.26313401289E+03 0.  0.
         25    1    4    4    0    0  0.40847259549E+02  0.16490281978E+01 -0.33253015611E+02  0.13573683750E+03  0.12509000000E+03 0.  0.
         25    1    4    4    0    0 -0.87960952707E+01 -0.58226475095E+02 -0.62506086977E+02  0.15173072432E+03  0.12509000000E+03 0.  0.
         25    1    3    3    0    0 -0.32051164278E+02  0.56577446897E+02 -0.14159264088E+03  0.19981058200E+03  0.12509000000E+03 0.  0.
<mgrwt>
<rscale>  2 0.42556332E+03</rscale>
<asrwt>0</asrwt>
<pdfrwt beam="1">  1       21 0.18376941E-01 0.42556332E+03</pdfrwt>
<pdfrwt beam="2">  1       21 0.53281609E-01 0.42556332E+03</pdfrwt>
<totfact> 0.84188543E+04</totfact>
</mgrwt>
</event>
<event>
 7    0  0.4725730E-002  0.4542728E+03  0.7546771E-02  0.1026455E+00
         21   -1    0    0  502  501  0.00000000000E+00  0.00000000000E+00  0.53113054697E+03  0.53113054697E+03  0.00000000000E+00 0.  1.
         21   -1    0    0  501  502 -0.00000000000E+00 -0.00000000000E+00 -0.97134199076E+02  0.97134199076E+02  0.00000000000E+00 0.  1.
      99926    2    1    2    0    0  0.00000000000E+00  0.00000000000E+00  0.43399634790E+03  0.62826474605E+03  0.45427278274E+03 0.  0.
      99925    2    3    3    0    0 -0.99598553810E+02 -0.45779445419E+02  0.24049057789E+03  0.37310279617E+03  0.26335213860E+03 0.  0.
         25    1    4    4    0    0 -0.36634790402E+02  0.76522427534E+01  0.14622412374E+03  0.19603486208E+03  0.12509000000E+03 0.  0.
         25    1    4    4    0    0 -0.62963763407E+02 -0.53431688172E+02  0.94266454156E+02  0.17706793409E+03  0.12509000000E+03 0.  0.
         25    1    3    3    0    0  0.99598553810E+02  0.45779445419E+02  0.19350577001E+03  0.25516194989E+03  0.12509000000E+03 0.  0.
<mgrwt>
<rscale>  2 0.45427278E+03</rscale>
<asrwt>0</asrwt>
<pdfrwt beam="1">  1       21 0.78107433E-01 0.45427278E+03</pdfrwt>
<pdfrwt beam="2">  1       21 0.14284441E-01 0.45427278E+03</pdfrwt>
<totfact> 0.57299619E+04</totfact>
</mgrwt>
</event>
<event>
 7    0  0.4725730E-002  0.4511323E+03  0.7546771E-02  0.1027385E+00
         21   -1    0    0  502  501  0.00000000000E+00  0.00000000000E+00  0.26481589420E+03  0.26481589420E+03  0.00000000000E+00 0.  1.
         21   -1    0    0  501  502 -0.00000000000E+00 -0.00000000000E+00 -0.19213384818E+03  0.19213384818E+03  0.00000000000E+00 0.  1.
      99926    2    1    2    0    0  0.00000000000E+00  0.00000000000E+00  0.72682046024E+02  0.45694974238E+03  0.45113233895E+03 0.  0.
      99925    2    3    3    0    0 -0.34689763661E+02 -0.64243648347E+02 -0.36844346879E+02  0.27536184383E+03  0.26293727976E+03 0.  0.
         25    1    4    4    0    0 -0.23357096695E+02 -0.46255722260E+01  0.12229777462E+02  0.12792195058E+03  0.12509000000E+03 0.  0.
         25    1    4    4    0    0 -0.11332666966E+02 -0.59618076121E+02 -0.49074124342E+02  0.14743989325E+03  0.12509000000E+03 0.  0.
         25    1    3    3    0    0  0.34689763661E+02  0.64243648347E+02  0.10952639290E+03  0.18158789855E+03  0.12509000000E+03 0.  0.
<mgrwt>
<rscale>  2 0.45113234E+03</rscale>
<asrwt>0</asrwt>
<pdfrwt beam="1">  1       21 0.38943514E-01 0.45113234E+03</pdfrwt>
<pdfrwt beam="2">  1       21 0.28254978E-01 0.45113234E+03</pdfrwt>
<totfact> 0.70554505E+04</totfact>
</mgrwt>
</event>
<event>
 7    0  0.4725730E-002  0.4598246E+03  0.7546771E-02  0.1024832E+00
         21   -1    0    0  502  501  0.00000000000E+00  0.00000000000E+00  0.19955891490E+04  0.19955891490E+04  0.00000000000E+00 0.  1.
         21   -1    0    0  501  502 -0.00000000000E+00 -0.00000000000E+00 -0.26488253765E+02  0.26488253765E+02  0.00000000000E+00 0.  1.
      99926    2    1    2    0    0  0.00000000000E+00 -0.35527136788E-14  0.19691008952E+04  0.20220774027E+04  0.45982462652E+03 0.  0.
      99925    2    3    3    0    0 -0.11582999154E+03  0.13409858552E+02  0.12009009932E+04  0.12350735853E+04  0.26390747277E+03 0.  0.
         25    1    3    3    0    0  0.11582999154E+03 -0.13409858552E+02  0.76819990194E+03  0.78700381746E+03  0.12509000000E+03 0.  0.
         25    1    4    4    0    0 -0.62941690168E+02 -0.25787740501E+02  0.71447860840E+03  0.72852855392E+03  0.12509000000E+03 0.  0.
         25    1    4    4    0    0 -0.52888301375E+02  0.39197599053E+02  0.48642238485E+03  0.50654503134E+03  0.12509000000E+03 0.  0.
<mgrwt>
<rscale>  2 0.45982463E+03</rscale>
<asrwt>0</asrwt>
<pdfrwt beam="1">  1       21 0.29346889E+00 0.45982463E+03</pdfrwt>
<pdfrwt beam="2">  1       21 0.38953328E-02 0.45982463E+03</pdfrwt>
<totfact> 0.12864003E+04</totfact>
</mgrwt>
</event>
<event>
 7    0  0.4725730E-002  0.4538979E+03  0.7546771E-02  0.1026566E+00
         21   -1    0    0  502  501  0.00000000000E+00  0.00000000000E+00  0.25825256148E+03  0.25825256148E+03  0.00000000000E+00 0.  1.
         21   -1    0    0  501  502 -0.00000000000E+00 -0.00000000000E+00 -0.19943975423E+03  0.19943975423E+03  0.00000000000E+00 0.  1.
      99926    2    1    2    0    0  0.35527136788E-14 -0.14210854715E-13  0.58812807244E+02  0.45769231571E+03  0.45389790655E+03 0.  0.
      99925    2    3    3    0    0  0.20036262686E+02  0.10723660974E+03  0.11499554527E+02  0.28510264547E+03  0.26315420652E+03 0.  0.
         25    1    4    4    0    0 -0.13143421003E+02  0.20084597945E+02  0.19580329858E+02  0.12886829714E+03  0.12509000000E+03 0.  0.
         25    1    4    4    0    0  0.33179683689E+02  0.87152011794E+02 -0.80807753310E+01  0.15623434833E+03  0.12509000000E+03 0.  0.
         25    1    3    3    0    0 -0.20036262686E+02 -0.10723660974E+03  0.47313252717E+02  0.17258967024E+03  0.12509000000E+03 0.  0.
<mgrwt>
<rscale>  2 0.45389791E+03</rscale>
<asrwt>0</asrwt>
<pdfrwt beam="1">  1       21 0.37978318E-01 0.45389791E+03</pdfrwt>
<pdfrwt beam="2">  1       21 0.29329376E-01 0.45389791E+03</pdfrwt>
<totfact> 0.68953100E+04</totfact>
</mgrwt>
</event>
<event>
 7    0  0.4725730E-002  0.4459991E+03  0.7546771E-02  0.1028922E+00
         21   -1    0    0  502  501  0.00000000000E+00  0.00000000000E+00  0.55163525769E+02  0.55163525769E+02  0.00000000000E+00 0. -1.
         21   -1    0    0  501  502 -0.00000000000E+00 -0.00000000000E+00 -0.90147985305E+03  0.90147985305E+03  0.00000000000E+00 0. -1.
      99926    2    1    2    0    0 -0.35527136788E-14  0.00000000000E+00 -0.84631632728E+03  0.95664337882E+03  0.44599913499E+03 0.  0.
      99925    2    3    3    0    0  0.21980109105E+02  0.80153595399E+02 -0.67279332990E+03  0.72715380875E+03  0.26304766254E+03 0.  0.
         25    1    3    3    0    0 -0.21980109105E+02 -0.80153595399E+02 -0.17352299738E+03  0.22948957007E+03  0.12509000000E+03 0.  0.
         25    1    4    4    0    0  0.20284577468E+02  0.42201874575E+02 -0.44388336974E+03  0.46354332735E+03  0.12509000000E+03 0.  0.
         25    1    4    4    0    0  0.16955316369E+01  0.37951720824E+02 -0.22890996016E+03  0.26361048140E+03  0.12509000000E+03 0.  0.
<mgrwt>
<rscale>  2 0.44599913E+03</rscale>
<asrwt>0</asrwt>
<pdfrwt beam="1">  1       21 0.81122833E-02 0.44599913E+03</pdfrwt>
<pdfrwt beam="2">  1       21 0.13257056E+00 0.44599913E+03</pdfrwt>
<totfact> 0.43880804E+04</totfact>
</mgrwt>
</event>
<event>
 7    0  0.4725730E-002  0.4399993E+03  0.7546771E-02  0.1030747E+00
         21   -1    0    0  502  501  0.00000000000E+00  0.00000000000E+00  0.21035153514E+03  0.21035153514E+03  0.00000000000E+00 0.  1.
         21   -1    0    0  501  502 -0.00000000000E+00 -0.00000000000E+00 -0.23009032950E+03  0.23009032950E+03  0.00000000000E+00 0.  1.
      99926    2    1    2    0    0  0.35527136788E-14  0.00000000000E+00 -0.19738794358E+02  0.44044186465E+03  0.43999933651E+03 0.  0.
      99925    2    3    3    0    0  0.27776278804E+02 -0.77065765922E+02  0.42040581758E+02  0.27865542098E+03  0.26300338246E+03 0.  0.
         25    1    3    3    0    0 -0.27776278804E+02  0.77065765922E+02 -0.61779376116E+02  0.16178644367E+03  0.12509000000E+03 0.  0.
         25    1    4    4    0    0 -0.89018348341E+01 -0.23267970535E+02 -0.10929430866E+02  0.12801406827E+03  0.12509000000E+03 0.  0.
         25    1    4    4    0    0  0.36678113638E+02 -0.53797795387E+02  0.52970012624E+02  0.15064135271E+03  0.12509000000E+03 0.  0.
<mgrwt>
<rscale>  2 0.43999934E+03</rscale>
<asrwt>0</asrwt>
<pdfrwt beam="1">  1       21 0.30934049E-01 0.43999934E+03</pdfrwt>
<pdfrwt beam="2">  1       21 0.33836813E-01 0.43999934E+03</pdfrwt>
<totfact> 0.78622997E+04</totfact>
</mgrwt>
</event>
<event>
 7    0  0.4725730E-002  0.4580775E+03  0.7546771E-02  0.1025340E+00
         21   -1    0    0  502  501  0.00000000000E+00  0.00000000000E+00  0.27431268966E+02  0.27431268966E+02  0.00000000000E+00 0.  1.
         21   -1    0    0  501  502 -0.00000000000E+00 -0.00000000000E+00 -0.19123703139E+04  0.19123703139E+04  0.00000000000E+00 0.  1.
      99926    2    1    2    0    0  0.00000000000E+00  0.35527136788E-14 -0.18849390450E+04  0.19398015829E+04  0.45807748010E+03 0.  0.
      99925    2    3    3    0    0 -0.10087117370E+03  0.29060403324E+02 -0.97322096077E+03  0.10135743571E+04  0.26297231431E+03 0.  0.
         25    1    4    4    0    0 -0.43041385836E+02 -0.22675417314E+02 -0.40853840501E+03  0.43002078079E+03  0.12509000000E+03 0.  0.
         25    1    3    3    0    0  0.10087117370E+03 -0.29060403324E+02 -0.91171808421E+03  0.92622722584E+03  0.12509000000E+03 0.  0.
         25    1    4    4    0    0 -0.57829787862E+02  0.51735820639E+02 -0.56468255576E+03  0.58355357628E+03  0.12509000000E+03 0.  0.
<mgrwt>
<rscale>  2 0.45807748E+03</rscale>
<asrwt>0</asrwt>
<pdfrwt beam="1">  1       21 0.40340095E-02 0.45807748E+03</pdfrwt>
<pdfrwt beam="2">  1       21 0.28123098E+00 0.45807748E+03</pdfrwt>
<totfact> 0.14371389E+04</totfact>
</mgrwt>
</event>
<event>
 7    0  0.4725730E-002  0.4571281E+03  0.7546771E-02  0.1025617E+00
         21   -1    0    0  502  501  0.00000000000E+00  0.00000000000E+00  0.20330298352E+04  0.20330298352E+04  0.00000000000E+00 0. -1.
         21   -1    0    0  501  502 -0.00000000000E+00 -0.00000000000E+00 -0.25696390696E+02  0.25696390696E+02  0.00000000000E+00 0. -1.
      99926    2    1    2    0    0  0.00000000000E+00  0.00000000000E+00  0.20073334445E+04  0.20587262259E+04  0.45712811746E+03 0.  0.
      99925    2    3    3    0    0  0.81179571762E+02  0.39908197213E+02  0.93952301676E+03  0.97981501325E+03  0.26296610826E+03 0.  0.
         25    1    4    4    0    0  0.60938524460E+01  0.12285857293E+01  0.48373764954E+03  0.49968816890E+03  0.12509000000E+03 0.  0.
         25    1    3    3    0    0 -0.81179571762E+02 -0.39908197213E+02  0.10678104278E+04  0.10789112127E+04  0.12509000000E+03 0.  0.
         25    1    4    4    0    0  0.75085719317E+02  0.38679611483E+02  0.45578536723E+03  0.48012684435E+03  0.12509000000E+03 0.  0.
<mgrwt>
<rscale>  2 0.45712812E+03</rscale>
<asrwt>0</asrwt>
<pdfrwt beam="1">  1       21 0.29897487E+00 0.45712812E+03</pdfrwt>
<pdfrwt beam="2">  1       21 0.37788824E-02 0.45712812E+03</pdfrwt>
<totfact> 0.12565708E+04</totfact>
</mgrwt>
</event>
<event>
 7    0  0.4725730E-002  0.4552789E+03  0.7546771E-02  0.1026159E+00
         21   -1    0    0  502  501  0.00000000000E+00  0.00000000000E+00  0.17980833209E+03  0.17980833209E+03  0.00000000000E+00 0.  1.
         21   -1    0    0  501  502 -0.00000000000E+00 -0.00000000000E+00 -0.28819415224E+03  0.28819415224E+03  0.00000000000E+00 0.  1.
      99926    2    1    2    0    0 -0.14210854715E-13  0.71054273576E-14 -0.10838582015E+03  0.46800248433E+03  0.45527885886E+03 0.  0.
      99925    2    3    3    0    0  0.10022516382E+03 -0.47343879359E+02 -0.43525250883E+02  0.28872357335E+03  0.26302153518E+03 0.  0.
         25    1    4    4    0    0  0.24982466263E+02  0.11098847464E+02 -0.24057299938E+02  0.13028265355E+03  0.12509000000E+03 0.  0.
         25    1    3    3    0    0 -0.10022516382E+03  0.47343879359E+02 -0.64860569266E+02  0.17927891098E+03  0.12509000000E+03 0.  0.
         25    1    4    4    0    0  0.75242697554E+02 -0.58442726823E+02 -0.19467950946E+02  0.15844091980E+03  0.12509000000E+03 0.  0.
<mgrwt>
<rscale>  2 0.45527886E+03</rscale>
<asrwt>0</asrwt>
<pdfrwt beam="1">  1       21 0.26442402E-01 0.45527886E+03</pdfrwt>
<pdfrwt beam="2">  1       21 0.42381493E-01 0.45527886E+03</pdfrwt>
<totfact> 0.67435425E+04</totfact>
</mgrwt>
</event>
<event>
 7    0  0.4725730E-002  0.4563963E+03  0.7546771E-02  0.1025832E+00
         21   -1    0    0  502  501  0.00000000000E+00  0.00000000000E+00  0.97219066500E+02  0.97219066500E+02  0.00000000000E+00 0.  1.
         21   -1    0    0  501  502 -0.00000000000E+00 -0.00000000000E+00 -0.53563963608E+03  0.53563963608E+03  0.00000000000E+00 0.  1.
      99926    2    1    2    0    0 -0.17763568394E-14  0.00000000000E+00 -0.43842056958E+03  0.63285870258E+03  0.45639625502E+03 0.  0.
      99925    2    3    3    0    0 -0.15831206906E+02  0.11184450002E+03 -0.30108692922E+03  0.41544698217E+03  0.26302668449E+03 0.  0.
         25    1    3    3    0    0  0.15831206906E+02 -0.11184450002E+03 -0.13733364036E+03  0.21741172041E+03  0.12509000000E+03 0.  0.
         25    1    4    4    0    0 -0.44913660994E+02  0.75107312562E+02 -0.15834160854E+03  0.21994980891E+03  0.12509000000E+03 0.  0.
         25    1    4    4    0    0  0.29082454088E+02  0.36737187455E+02 -0.14274532068E+03  0.19549717326E+03  0.12509000000E+03 0.  0.
<mgrwt>
<rscale>  2 0.45639626E+03</rscale>
<asrwt>0</asrwt>
<pdfrwt beam="1">  1       21 0.14296922E-01 0.45639626E+03</pdfrwt>
<pdfrwt beam="2">  1       21 0.78770534E-01 0.45639626E+03</pdfrwt>
<totfact> 0.56079343E+04</totfact>
</mgrwt>
</event>
<event>
 7    0  0.4725730E-002  0.4478427E+03  0.7546771E-02  0.1028367E+00
         21   -1    0    0  502  501  0.00000000000E+00  0.00000000000E+00  0.33337241723E+02  0.33337241723E+02  0.00000000000E+00 0. -1.
         21   -1    0    0  501  502 -0.00000000000E+00 -0.00000000000E+00 -0.15040467885E+04  0.15040467885E+04  0.00000000000E+00 0. -1.
      99926    2    1    2    0    0  0.00000000000E+00  0.00000000000E+00 -0.14707095468E+04  0.15373840302E+04  0.44784270163E+03 0.  0.
      99925    2    3    3    0    0 -0.88033801920E+02 -0.55526711832E+02 -0.10078797441E+04  0.10467802182E+04  0.26285752924E+03 0.  0.
         25    1    4    4    0    0 -0.47524081032E+02 -0.61771265480E+02 -0.61588014568E+03  0.63326936564E+03  0.12509000000E+03 0.  0.
         25    1    3    3    0    0  0.88033801920E+02  0.55526711832E+02 -0.46282980268E+03  0.49060381200E+03  0.12509000000E+03 0.  0.
         25    1    4    4    0    0 -0.40509720889E+02  0.62445536486E+01 -0.39199959841E+03  0.41351085256E+03  0.12509000000E+03 0.  0.
<mgrwt>
<rscale>  2 0.44784270E+03</rscale>
<asrwt>0</asrwt>
<pdfrwt beam="1">  1       21 0.49025359E-02 0.44784270E+03</pdfrwt>
<pdfrwt beam="2">  1       21 0.22118334E+00 0.44784270E+03</pdfrwt>
<totfact> 0.24194877E+04</totfact>
</mgrwt>
</event>
<event>
 7    0  0.4725730E-002  0.4597844E+03  0.7546771E-02  0.1024844E+00
         21   -1    0    0  502  501  0.00000000000E+00  0.00000000000E+00  0.73579731450E+03  0.73579731450E+03  0.00000000000E+00 0. -1.
         21   -1    0    0  501  502 -0.00000000000E+00 -0.00000000000E+00 -0.71827426528E+02  0.71827426528E+02  0.00000000000E+00 0. -1.
      99926    2    1    2    0    0  0.00000000000E+00  0.35527136788E-14  0.66396988797E+03  0.80762474103E+03  0.45978441708E+03 0.  0.
      99925    2    3    3    0    0 -0.11597738665E+03 -0.15472138078E+02  0.43169034436E+03  0.51902218429E+03  0.26331983045E+03 0.  0.
         25    1    4    4    0    0 -0.40896847131E+02 -0.40775744925E+02  0.24087517188E+03  0.27749517114E+03  0.12509000000E+03 0.  0.
         25    1    4    4    0    0 -0.75080539522E+02  0.25303606846E+02  0.19081517248E+03  0.24152701315E+03  0.12509000000E+03 0.  0.
         25    1    3    3    0    0  0.11597738665E+03  0.15472138078E+02  0.23227954361E+03  0.28860255673E+03  0.12509000000E+03 0.  0.
<mgrwt>
<rscale>  2 0.45978442E+03</rscale>
<asrwt>0</asrwt>
<pdfrwt beam="1">  1       21 0.10820548E+00 0.45978442E+03</pdfrwt>
<pdfrwt beam="2">  1       21 0.10562857E-01 0.45978442E+03</pdfrwt>
<totfact> 0.45659639E+04</totfact>
</mgrwt>
</event>
<event>
 7    0  0.4725730E-002  0.4549679E+03  0.7546771E-02  0.1026251E+00
         21   -1    0    0  502  501  0.00000000000E+00  0.00000000000E+00  0.56919956291E+02  0.56919956291E+02  0.00000000000E+00 0.  1.
         21   -1    0    0  501  502 -0.00000000000E+00 -0.00000000000E+00 -0.90915308530E+03  0.90915308530E+03  0.00000000000E+00 0.  1.
      99926    2    1    2    0    0 -0.14210854715E-13 -0.35527136788E-14 -0.85223312901E+03  0.96607304159E+03  0.45496792800E+03 0.  0.
      99925    2    3    3    0    0  0.92008015691E+02  0.20370125467E+02 -0.66901103256E+03  0.72503723162E+03  0.26310227779E+03 0.  0.
         25    1    4    4    0    0  0.73472223802E+02 -0.11561663608E+02 -0.40957551256E+03  0.43466245332E+03  0.12509000000E+03 0.  0.
         25    1    3    3    0    0 -0.92008015691E+02 -0.20370125467E+02 -0.18322209645E+03  0.24103580998E+03  0.12509000000E+03 0.  0.
         25    1    4    4    0    0  0.18535791890E+02  0.31931789074E+02 -0.25943552000E+03  0.29037477830E+03  0.12509000000E+03 0.  0.
<mgrwt>
<rscale>  2 0.45496793E+03</rscale>
<asrwt>0</asrwt>
<pdfrwt beam="1">  1       21 0.83705832E-02 0.45496793E+03</pdfrwt>
<pdfrwt beam="2">  1       21 0.13369896E+00 0.45496793E+03</pdfrwt>
<totfact> 0.40506915E+04</totfact>
</mgrwt>
</event>
<event>
 7    0  0.4725730E-002  0.4559136E+03  0.7546771E-02  0.1025973E+00
         21   -1    0    0  502  501  0.00000000000E+00  0.00000000000E+00  0.70511579616E+03  0.70511579616E+03  0.00000000000E+00 0. -1.
         21   -1    0    0  501  502 -0.00000000000E+00 -0.00000000000E+00 -0.73696141873E+02  0.73696141873E+02  0.00000000000E+00 0. -1.
      99926    2    1    2    0    0  0.00000000000E+00  0.00000000000E+00  0.63141965428E+03  0.77881193803E+03  0.45591364862E+03 0.  0.
      99925    2    3    3    0    0 -0.55070064248E+02  0.84389349611E+02  0.48812905417E+03  0.56355864889E+03  0.26300970117E+03 0.  0.
         25    1    4    4    0    0 -0.34137091676E+02  0.65815016942E+02  0.19176782545E+03  0.24066442292E+03  0.12509000000E+03 0.  0.
         25    1    3    3    0    0  0.55070064248E+02 -0.84389349611E+02  0.14329060011E+03  0.21525328914E+03  0.12509000000E+03 0.  0.
         25    1    4    4    0    0 -0.20932972573E+02  0.18574332669E+02  0.29636122872E+03  0.32289422597E+03  0.12509000000E+03 0.  0.
<mgrwt>
<rscale>  2 0.45591365E+03</rscale>
<asrwt>0</asrwt>
<pdfrwt beam="1">  1       21 0.10369350E+00 0.45591365E+03</pdfrwt>
<pdfrwt beam="2">  1       21 0.10837668E-01 0.45591365E+03</pdfrwt>
<totfact> 0.48458309E+04</totfact>
</mgrwt>
</event>
<event>
 7    0  0.4725730E-002  0.4599499E+03  0.7546771E-02  0.1024796E+00
         21   -1    0    0  502  501  0.00000000000E+00  0.00000000000E+00  0.11535426593E+03  0.11535426593E+03  0.00000000000E+00 0. -1.
         21   -1    0    0  501  502 -0.00000000000E+00 -0.00000000000E+00 -0.45848733698E+03  0.45848733698E+03  0.00000000000E+00 0. -1.
      99926    2    1    2    0    0  0.00000000000E+00  0.00000000000E+00 -0.34313307105E+03  0.57384160291E+03  0.45994986768E+03 0.  0.
      99925    2    3    3    0    0  0.11207870224E+03 -0.35787357105E+02 -0.22076216060E+03  0.36297548840E+03  0.26300742044E+03 0.  0.
         25    1    4    4    0    0  0.94979953495E+02 -0.33269606896E+01 -0.10831755455E+03  0.19082049407E+03  0.12509000000E+03 0.  0.
         25    1    4    4    0    0  0.17098748742E+02 -0.32460396415E+02 -0.11244460604E+03  0.17215499433E+03  0.12509000000E+03 0.  0.
         25    1    3    3    0    0 -0.11207870224E+03  0.35787357105E+02 -0.12237091045E+03  0.21086611451E+03  0.12509000000E+03 0.  0.
<mgrwt>
<rscale>  2 0.45994987E+03</rscale>
<asrwt>0</asrwt>
<pdfrwt beam="1">  1       21 0.16963863E-01 0.45994987E+03</pdfrwt>
<pdfrwt beam="2">  1       21 0.67424608E-01 0.45994987E+03</pdfrwt>
<totfact> 0.58013805E+04</totfact>
</mgrwt>
</event>
<event>
 7    0  0.4725730E-002  0.4476813E+03  0.7546771E-02  0.1028416E+00
         21   -1    0    0  502  501  0.00000000000E+00  0.00000000000E+00  0.15246117946E+03  0.15246117946E+03  0.00000000000E+00 0. -1.
         21   -1    0    0  501  502 -0.00000000000E+00 -0.00000000000E+00 -0.32863869892E+03  0.32863869892E+03  0.00000000000E+00 0. -1.
      99926    2    1    2    0    0  0.71054273576E-14  0.00000000000E+00 -0.17617751946E+03  0.48109987838E+03  0.44768133155E+03 0.  0.
      99925    2    3    3    0    0 -0.52520624470E+02 -0.31082168025E+02 -0.18305240701E+02  0.27063448535E+03  0.26302742378E+03 0.  0.
         25    1    3    3    0    0  0.52520624470E+02  0.31082168025E+02 -0.15787227876E+03  0.21046539303E+03  0.12509000000E+03 0.  0.
         25    1    4    4    0    0 -0.42647210789E+02  0.20758410809E+02 -0.17050168974E+02  0.13486256919E+03  0.12509000000E+03 0.  0.
         25    1    4    4    0    0 -0.98734136807E+01 -0.51840578835E+02 -0.12550717264E+01  0.13577191616E+03  0.12509000000E+03 0.  0.
<mgrwt>
<rscale>  2 0.44768133E+03</rscale>
<asrwt>0</asrwt>
<pdfrwt beam="1">  1       21 0.22420762E-01 0.44768133E+03</pdfrwt>
<pdfrwt beam="2">  1       21 0.48329220E-01 0.44768133E+03</pdfrwt>
<totfact> 0.70635587E+04</totfact>
</mgrwt>
</event>
<event>
 7    0  0.4725730E-002  0.4499229E+03  0.7546771E-02  0.1027745E+00
         21   -1    0    0  502  501  0.00000000000E+00  0.00000000000E+00  0.21892146112E+03  0.21892146112E+03  0.00000000000E+00 0.  1.
         21   -1    0    0  501  502 -0.00000000000E+00 -0.00000000000E+00 -0.23116809278E+03  0.23116809278E+03  0.00000000000E+00 0.  1.
      99926    2    1    2    0    0  0.00000000000E+00  0.00000000000E+00 -0.12246631664E+02  0.45008955390E+03  0.44992291177E+03 0.  0.
      99925    2    3    3    0    0  0.32182354287E+02  0.90089799333E+02 -0.58190515068E+02  0.28604619258E+03  0.26321932371E+03 0.  0.
         25    1    3    3    0    0 -0.32182354287E+02 -0.90089799333E+02  0.45943883404E+02  0.16404336132E+03  0.12509000000E+03 0.  0.
         25    1    4    4    0    0 -0.17601039078E+02  0.29742719179E+02 -0.47220039132E+02  0.13810020317E+03  0.12509000000E+03 0.  0.
         25    1    4    4    0    0  0.49783393366E+02  0.60347080153E+02 -0.10970475936E+02  0.14794598940E+03  0.12509000000E+03 0.  0.
<mgrwt>
<rscale>  2 0.44992291E+03</rscale>
<asrwt>0</asrwt>
<pdfrwt beam="1">  1       21 0.32194333E-01 0.44992291E+03</pdfrwt>
<pdfrwt beam="2">  1       21 0.33995308E-01 0.44992291E+03</pdfrwt>
<totfact> 0.71770687E+04</totfact>
</mgrwt>
</event>
<event>
 7    0  0.4725730E-002  0.4558858E+03  0.7546771E-02  0.1025981E+00
         21   -1    0    0  502  501  0.00000000000E+00  0.00000000000E+00  0.13669788475E+04  0.13669788475E+04  0.00000000000E+00 0.  1.
         21   -1    0    0  501  502 -0.00000000000E+00 -0.00000000000E+00 -0.38009337013E+02  0.38009337013E+02  0.00000000000E+00 0.  1.
      99926    2    1    2    0    0 -0.71054273576E-14  0.00000000000E+00  0.13289695104E+04  0.14049881845E+04  0.45588577386E+03 0.  0.
      99925    2    3    3    0    0 -0.52695505041E+02 -0.76996005445E+02  0.10375050933E+04  0.10743763037E+04  0.26298749467E+03 0.  0.
         25    1    3    3    0    0  0.52695505041E+02  0.76996005445E+02  0.29146441718E+03  0.33061188074E+03  0.12509000000E+03 0.  0.
         25    1    4    4    0    0  0.95627304009E+01 -0.17561304066E+02  0.50493375633E+03  0.52058183947E+03  0.12509000000E+03 0.  0.
         25    1    4    4    0    0 -0.62258235442E+02 -0.59434701379E+02  0.53257133694E+03  0.55379446425E+03  0.12509000000E+03 0.  0.
<mgrwt>
<rscale>  2 0.45588577E+03</rscale>
<asrwt>0</asrwt>
<pdfrwt beam="1">  1       21 0.20102627E+00 0.45588577E+03</pdfrwt>
<pdfrwt beam="2">  1       21 0.55896093E-02 0.45588577E+03</pdfrwt>
<totfact> 0.26019818E+04</totfact>
</mgrwt>
</event>
<event>
 6    0  0.4725730E-002  0.4625139E+03  0.7546771E-02  0.1024055E+00
         21   -1    0    0  502  501  0.00000000000E+00  0.00000000000E+00  0.16182000973E+03  0.16182000973E+03  0.00000000000E+00 0. -1.
         21   -1    0    0  501  502 -0.00000000000E+00 -0.00000000000E+00 -0.33048927970E+03  0.33048927970E+03  0.00000000000E+00 0. -1.
      99926    2    1    2    0    0  0.00000000000E+00  0.00000000000E+00 -0.16866926997E+03  0.49230928943E+03  0.46251390663E+03 0.  0.
         25    1    3    3    0    0 -0.25177964398E+02 -0.30094950652E+02 -0.94974600470E+02  0.16188674677E+03  0.12509000000E+03 0.  0.
         25    1    3    3    0    0  0.82768902501E+02 -0.14866830635E+02 -0.10308285032E+03  0.18260694402E+03  0.12509000000E+03 0.  0.
         25    1    3    3    0    0 -0.57590938103E+02  0.44961781287E+02  0.29388180825E+02  0.14781559864E+03  0.12509000000E+03 0.  0.
<mgrwt>
<rscale>  2 0.46251391E+03</rscale>
<asrwt>0</asrwt>
<pdfrwt beam="1">  1       21 0.23797061E-01 0.46251391E+03</pdfrwt>
<pdfrwt beam="2">  1       21 0.48601364E-01 0.46251391E+03</pdfrwt>
<totfact> 0.62030888E+04</totfact>
</mgrwt>
</event>
<event>
 7    0  0.4725730E-002  0.4684799E+03  0.7546771E-02  0.1022350E+00
         21   -1    0    0  502  501  0.00000000000E+00  0.00000000000E+00  0.10759750995E+03  0.10759750995E+03  0.00000000000E+00 0. -1.
         21   -1    0    0  501  502 -0.00000000000E+00 -0.00000000000E+00 -0.50994071440E+03  0.50994071440E+03  0.00000000000E+00 0. -1.
      99926    2    1    2    0    0  0.00000000000E+00 -0.61062266354E-15 -0.40234320445E+03  0.61753822434E+03  0.46847988682E+03 0.  0.
      99925    2    3    3    0    0 -0.11008876998E+03 -0.43159640150E+00 -0.17096816487E+03  0.33240379887E+03  0.26294951712E+03 0.  0.
         25    1    4    4    0    0 -0.84612215554E+02 -0.26100560114E+02 -0.74860750648E+02  0.17056408282E+03  0.12509000000E+03 0.  0.
         25    1    4    4    0    0 -0.25476554426E+02  0.25668963712E+02 -0.96107414225E+02  0.16183971605E+03  0.12509000000E+03 0.  0.
         25    1    3    3    0    0  0.11008876998E+03  0.43159640150E+00 -0.23137503958E+03  0.28513442548E+03  0.12509000000E+03 0.  0.
<mgrwt>
<rscale>  2 0.46847989E+03</rscale>
<asrwt>0</asrwt>
<pdfrwt beam="1">  1       21 0.15823163E-01 0.46847989E+03</pdfrwt>
<pdfrwt beam="2">  1       21 0.74991281E-01 0.46847989E+03</pdfrwt>
<totfact> 0.51865363E+04</totfact>
</mgrwt>
</event>
<event>
 7    0  0.4725730E-002  0.4581043E+03  0.7546771E-02  0.1025332E+00
         21   -1    0    0  502  501  0.00000000000E+00  0.00000000000E+00  0.54349291408E+03  0.54349291408E+03  0.00000000000E+00 0. -1.
         21   -1    0    0  501  502 -0.00000000000E+00 -0.00000000000E+00 -0.96532784271E+02  0.96532784271E+02  0.00000000000E+00 0. -1.
      99926    2    1    2    0    0  0.00000000000E+00  0.00000000000E+00  0.44696012981E+03  0.64002569836E+03  0.45810428607E+03 0.  0.
      99925    2    3    3    0    0 -0.56243705831E+02 -0.89182330952E+02  0.21254378891E+03  0.35416669188E+03  0.26294931229E+03 0.  0.
         25    1    4    4    0    0 -0.27609328978E+02 -0.55202510368E+02  0.15769241514E+03  0.21053265326E+03  0.12509000000E+03 0.  0.
         25    1    3    3    0    0  0.56243705831E+02  0.89182330952E+02  0.23441634091E+03  0.28585900648E+03  0.12509000000E+03 0.  0.
         25    1    4    4    0    0 -0.28634376853E+02 -0.33979820584E+02  0.54851373764E+02  0.14363403861E+03  0.12509000000E+03 0.  0.
<mgrwt>
<rscale>  2 0.45810429E+03</rscale>
<asrwt>0</asrwt>
<pdfrwt beam="1">  1       21 0.79925427E-01 0.45810429E+03</pdfrwt>
<pdfrwt beam="2">  1       21 0.14195998E-01 0.45810429E+03</pdfrwt>
<totfact> 0.54921892E+04</totfact>
</mgrwt>
</event>
<event>
 7    0  0.4725730E-002  0.4560733E+03  0.7546771E-02  0.1025926E+00
         21   -1    0    0  502  501  0.00000000000E+00  0.00000000000E+00  0.34328157369E+03  0.34328157369E+03  0.00000000000E+00 0.  1.
         21   -1    0    0  501  502 -0.00000000000E+00 -0.00000000000E+00 -0.15148121269E+03  0.15148121269E+03  0.00000000000E+00 0.  1.
      99926    2    1    2    0    0  0.00000000000E+00 -0.26645352591E-14  0.19180036101E+03  0.49476278638E+03  0.45607327953E+03 0.  0.
      99925    2    3    3    0    0  0.65812898209E+02  0.44035812157E+01  0.22156091184E+03  0.35025006174E+03  0.26312570949E+03 0.  0.
         25    1    4    4    0    0  0.41288747341E+02  0.41317742238E+02  0.10230681854E+03  0.17183163184E+03  0.12509000000E+03 0.  0.
         25    1    4    4    0    0  0.24524150868E+02 -0.36914161022E+02  0.11925409330E+03  0.17841842990E+03  0.12509000000E+03 0.  0.
         25    1    3    3    0    0 -0.65812898209E+02 -0.44035812157E+01 -0.29760550827E+02  0.14451272464E+03  0.12509000000E+03 0.  0.
<mgrwt>
<rscale>  2 0.45607328E+03</rscale>
<asrwt>0</asrwt>
<pdfrwt beam="1">  1       21 0.50482584E-01 0.45607328E+03</pdfrwt>
<pdfrwt beam="2">  1       21 0.22276649E-01 0.45607328E+03</pdfrwt>
<totfact> 0.65083869E+04</totfact>
</mgrwt>
</event>
<event>
 7    0  0.4725730E-002  0.4511807E+03  0.7546771E-02  0.1027371E+00
         21   -1    0    0  502  501  0.00000000000E+00  0.00000000000E+00  0.16521938040E+03  0.16521938040E+03  0.00000000000E+00 0. -1.
         21   -1    0    0  501  502 -0.00000000000E+00 -0.00000000000E+00 -0.30802074040E+03  0.30802074040E+03  0.00000000000E+00 0. -1.
      99926    2    1    2    0    0  0.00000000000E+00  0.17763568394E-14 -0.14280136001E+03  0.47324012080E+03  0.45118065508E+03 0.  0.
      99925    2    3    3    0    0  0.43388476648E+02 -0.94683498610E+01 -0.19529884525E+03  0.33049663194E+03  0.26289574970E+03 0.  0.
         25    1    4    4    0    0 -0.15251247045E+01 -0.19647384139E+02 -0.58496688431E+02  0.13949091858E+03  0.12509000000E+03 0.  0.
         25    1    4    4    0    0  0.44913601353E+02  0.10179034278E+02 -0.13680215682E+03  0.19100571336E+03  0.12509000000E+03 0.  0.
         25    1    3    3    0    0 -0.43388476648E+02  0.94683498610E+01  0.52497485244E+02  0.14274348886E+03  0.12509000000E+03 0.  0.
<mgrwt>
<rscale>  2 0.45118066E+03</rscale>
<asrwt>0</asrwt>
<pdfrwt beam="1">  1       21 0.24296968E-01 0.45118066E+03</pdfrwt>
<pdfrwt beam="2">  1       21 0.45297167E-01 0.45118066E+03</pdfrwt>
<totfact> 0.69271515E+04</totfact>
</mgrwt>
</event>
<event>
 7    0  0.4725730E-002  0.4405009E+03  0.7546771E-02  0.1030593E+00
         21   -1    0    0  502  501  0.00000000000E+00  0.00000000000E+00  0.19659202694E+03  0.19659202694E+03  0.00000000000E+00 0. -1.
         21   -1    0    0  501  502 -0.00000000000E+00 -0.00000000000E+00 -0.24675601552E+03  0.24675601552E+03  0.00000000000E+00 0. -1.
      99926    2    1    2    0    0  0.14210854715E-13  0.00000000000E+00 -0.50163988578E+02  0.44334804247E+03  0.44050092056E+03 0.  0.
      99925    2    3    3    0    0 -0.66352088849E+02 -0.37080433620E+02  0.31758070011E+02  0.27560928715E+03  0.26301016311E+03 0.  0.
         25    1    3    3    0    0  0.66352088849E+02  0.37080433620E+02 -0.81922058589E+02  0.16773875532E+03  0.12509000000E+03 0.  0.
         25    1    4    4    0    0  0.66638426629E+01 -0.29698986516E+02  0.15760111976E+02  0.12970090913E+03  0.12509000000E+03 0.  0.
         25    1    4    4    0    0 -0.73015931512E+02 -0.73814471045E+01  0.15997958035E+02  0.14590837802E+03  0.12509000000E+03 0.  0.
<mgrwt>
<rscale>  2 0.44050092E+03</rscale>
<asrwt>0</asrwt>
<pdfrwt beam="1">  1       21 0.28910592E-01 0.44050092E+03</pdfrwt>
<pdfrwt beam="2">  1       21 0.36287649E-01 0.44050092E+03</pdfrwt>
<totfact> 0.78053845E+04</totfact>
</mgrwt>
</event>
<event>
 7    0  0.4725730E-002  0.4484306E+03  0.7546771E-02  0.1028191E+00
         21   -1    0    0  502  501  0.00000000000E+00  0.00000000000E+00  0.44772389459E+03  0.44772389459E+03  0.00000000000E+00 0.  1.
         21   -1    0    0  501  502 -0.00000000000E+00 -0.00000000000E+00 -0.11228462343E+03  0.11228462343E+03  0.00000000000E+00 0.  1.
      99926    2    1    2    0    0  0.00000000000E+00  0.71054273576E-14  0.33543927116E+03  0.56000851802E+03  0.44843063635E+03 0.  0.
      99925    2    3    3    0    0  0.86597890231E+02 -0.62126683956E+02  0.23188830278E+03  0.36576838158E+03  0.26202176350E+03 0.  0.
         25    1    4    4    0    0  0.56082516149E+02 -0.23874774574E+02  0.71115830995E+02  0.15626971235E+03  0.12509000000E+03 0.  0.
         25    1    3    3    0    0 -0.86597890231E+02  0.62126683956E+02  0.10355096838E+03  0.19424013644E+03  0.12509000000E+03 0.  0.
         25    1    4    4    0    0  0.30515374082E+02 -0.38251909381E+02  0.16077247178E+03  0.20949866923E+03  0.12509000000E+03 0.  0.
<mgrwt>
<rscale>  2 0.44843064E+03</rscale>
<asrwt>0</asrwt>
<pdfrwt beam="1">  1       21 0.65841749E-01 0.44843064E+03</pdfrwt>
<pdfrwt beam="2">  1       21 0.16512445E-01 0.44843064E+03</pdfrwt>
<totfact> 0.64496563E+04</totfact>
</mgrwt>
</event>
<event>
 7    0  0.4725730E-002  0.4590770E+03  0.7546771E-02  0.1025049E+00
         21   -1    0    0  502  501  0.00000000000E+00  0.00000000000E+00  0.78518867686E+02  0.78518867686E+02  0.00000000000E+00 0. -1.
         21   -1    0    0  501  502 -0.00000000000E+00 -0.00000000000E+00 -0.67102237231E+03  0.67102237231E+03  0.00000000000E+00 0. -1.
      99926    2    1    2    0    0 -0.14210854715E-13  0.00000000000E+00 -0.59250350462E+03  0.74954124000E+03  0.45907697335E+03 0.  0.
      99925    2    3    3    0    0  0.10902804923E+03 -0.40532676486E+02 -0.39089987742E+03  0.48530357428E+03  0.26303389830E+03 0.  0.
         25    1    3    3    0    0 -0.10902804923E+03  0.40532676486E+02 -0.20160362720E+03  0.26423766572E+03  0.12509000000E+03 0.  0.
         25    1    4    4    0    0  0.70742456729E+02 -0.52064558556E+02 -0.24716970739E+03  0.29061243227E+03  0.12509000000E+03 0.  0.
         25    1    4    4    0    0  0.38285592503E+02  0.11531882071E+02 -0.14373017003E+03  0.19469114201E+03  0.12509000000E+03 0.  0.
<mgrwt>
<rscale>  2 0.45907697E+03</rscale>
<asrwt>0</asrwt>
<pdfrwt beam="1">  1       21 0.11546893E-01 0.45907697E+03</pdfrwt>
<pdfrwt beam="2">  1       21 0.98679758E-01 0.45907697E+03</pdfrwt>
<totfact> 0.48714503E+04</totfact>
</mgrwt>
</event>
<event>
 7    0  0.4725730E-002  0.4462456E+03  0.7546771E-02  0.1028848E+00
         21   -1    0    0  502  501  0.00000000000E+00  0.00000000000E+00  0.54147704546E+03  0.54147704546E+03  0.00000000000E+00 0.  1.
         21   -1    0    0  501  502 -0.00000000000E+00 -0.00000000000E+00 -0.91940726712E+02  0.91940726712E+02  0.00000000000E+00 0.  1.
      99926    2    1    2    0    0  0.00000000000E+00  0.17763568394E-14  0.44953631875E+03  0.63341777217E+03  0.44624564113E+03 0.  0.
      99925    2    3    3    0    0 -0.37247448782E+02  0.98569932260E+01  0.14687156603E+03  0.30366332809E+03  0.26297457512E+03 0.  0.
         25    1    4    4    0    0 -0.10565185876E+02 -0.20881916730E+01  0.27990044419E+02  0.12863488789E+03  0.12509000000E+03 0.  0.
         25    1    4    4    0    0 -0.26682262906E+02  0.11945184899E+02  0.11888152161E+03  0.17502844020E+03  0.12509000000E+03 0.  0.
         25    1    3    3    0    0  0.37247448782E+02 -0.98569932260E+01  0.30266475271E+03  0.32975444408E+03  0.12509000000E+03 0.  0.
<mgrwt>
<rscale>  2 0.44624564E+03</rscale>
<asrwt>0</asrwt>
<pdfrwt beam="1">  1       21 0.79628976E-01 0.44624564E+03</pdfrwt>
<pdfrwt beam="2">  1       21 0.13520695E-01 0.44624564E+03</pdfrwt>
<totfact> 0.60757543E+04</totfact>
</mgrwt>
</event>
<event>
 7    0  0.4725730E-002  0.4596925E+03  0.7546771E-02  0.1024870E+00
         21   -1    0    0  502  501  0.00000000000E+00  0.00000000000E+00  0.41895430969E+03  0.41895430969E+03  0.00000000000E+00 0. -1.
         21   -1    0    0  501  502 -0.00000000000E+00 -0.00000000000E+00 -0.12609801418E+03  0.12609801418E+03  0.00000000000E+00 0. -1.
      99926    2    1    2    0    0  0.71054273576E-14  0.00000000000E+00  0.29285629551E+03  0.54505232386E+03  0.45969253412E+03 0.  0.
      99925    2    3    3    0    0 -0.45675725717E+02 -0.51340140600E+02  0.70471048649E+02  0.28080851963E+03  0.26299272621E+03 0.  0.
         25    1    3    3    0    0  0.45675725717E+02  0.51340140600E+02  0.22238524686E+03  0.26424380424E+03  0.12509000000E+03 0.  0.
         25    1    4    4    0    0 -0.59532438724E+02 -0.11085307714E+02  0.25986701965E+02  0.14138533194E+03  0.12509000000E+03 0.  0.
         25    1    4    4    0    0  0.13856713008E+02 -0.40254832886E+02  0.44484346684E+02  0.13942318769E+03  0.12509000000E+03 0.  0.
<mgrwt>
<rscale>  2 0.45969253E+03</rscale>
<asrwt>0</asrwt>
<pdfrwt beam="1">  1       21 0.61610928E-01 0.45969253E+03</pdfrwt>
<pdfrwt beam="2">  1       21 0.18543826E-01 0.45969253E+03</pdfrwt>
<totfact> 0.59937835E+04</totfact>
</mgrwt>
</event>
<event>
 7    0  0.4725730E-002  0.4525591E+03  0.7546771E-02  0.1026962E+00
         21   -1    0    0  502  501  0.00000000000E+00  0.00000000000E+00  0.59582989771E+03  0.59582989771E+03  0.00000000000E+00 0. -1.
         21   -1    0    0  501  502 -0.00000000000E+00 -0.00000000000E+00 -0.85934638924E+02  0.85934638924E+02  0.00000000000E+00 0. -1.
      99926    2    1    2    0    0  0.71054273576E-14  0.00000000000E+00  0.50989525878E+03  0.68176453663E+03  0.45255906629E+03 0.  0.
      99925    2    3    3    0    0 -0.63130882111E+02  0.33152878610E+01  0.18365323755E+03  0.32669008820E+03  0.26268118063E+03 0.  0.
         25    1    3    3    0    0  0.63130882111E+02 -0.33152878610E+01  0.32624202123E+03  0.35507444843E+03  0.12509000000E+03 0.  0.
         25    1    4    4    0    0 -0.34062055582E+02 -0.24590487979E+02  0.12843388292E+03  0.18414039783E+03  0.12509000000E+03 0.  0.
         25    1    4    4    0    0 -0.29068826529E+02  0.27905775840E+02  0.55219354633E+02  0.14254969038E+03  0.12509000000E+03 0.  0.
<mgrwt>
<rscale>  2 0.45255907E+03</rscale>
<asrwt>0</asrwt>
<pdfrwt beam="1">  1       21 0.87622042E-01 0.45255907E+03</pdfrwt>
<pdfrwt beam="2">  1       21 0.12637447E-01 0.45255907E+03</pdfrwt>
<totfact> 0.54953165E+04</totfact>
</mgrwt>
</event>
<event>
 7    0  0.4725730E-002  0.4560387E+03  0.7546771E-02  0.1025936E+00
         21   -1    0    0  502  501  0.00000000000E+00  0.00000000000E+00  0.32707115610E+03  0.32707115610E+03  0.00000000000E+00 0. -1.
         21   -1    0    0  501  502 -0.00000000000E+00 -0.00000000000E+00 -0.15896487383E+03  0.15896487383E+03  0.00000000000E+00 0. -1.
      99926    2    1    2    0    0  0.00000000000E+00  0.00000000000E+00  0.16810628228E+03  0.48603602993E+03  0.45603870477E+03 0.  0.
      99925    2    3    3    0    0 -0.45196760888E+02 -0.80642883504E+02  0.17900671002E+03  0.33011185195E+03  0.26150413134E+03 0.  0.
         25    1    4    4    0    0 -0.56749635646E+02 -0.32787351862E+02  0.73362078632E+02  0.15913841230E+03  0.12509000000E+03 0.  0.
         25    1    3    3    0    0  0.45196760888E+02  0.80642883504E+02 -0.10900427742E+02  0.15592417798E+03  0.12509000000E+03 0.  0.
         25    1    4    4    0    0  0.11552874758E+02 -0.47855531642E+02  0.10564463139E+03  0.17097343965E+03  0.12509000000E+03 0.  0.
<mgrwt>
<rscale>  2 0.45603870E+03</rscale>
<asrwt>0</asrwt>
<pdfrwt beam="1">  1       21 0.48098699E-01 0.45603870E+03</pdfrwt>
<pdfrwt beam="2">  1       21 0.23377187E-01 0.45603870E+03</pdfrwt>
<totfact> 0.65719705E+04</totfact>
</mgrwt>
</event>
<event>
 7    0  0.4725730E-002  0.4614993E+03  0.7546771E-02  0.1024347E+00
         21   -1    0    0  502  501  0.00000000000E+00  0.00000000000E+00  0.50598000526E+03  0.50598000526E+03  0.00000000000E+00 0.  1.
         21   -1    0    0  501  502 -0.00000000000E+00 -0.00000000000E+00 -0.10523221979E+03  0.10523221979E+03  0.00000000000E+00 0.  1.
      99926    2    1    2    0    0  0.00000000000E+00  0.71054273576E-14  0.40074778548E+03  0.61121222505E+03  0.46149929197E+03 0.  0.
      99925    2    3    3    0    0 -0.10083803173E+03 -0.63054026902E+02  0.24052920471E+03  0.37570931494E+03  0.26298112491E+03 0.  0.
         25    1    4    4    0    0 -0.73686668511E+02 -0.17664358484E+02  0.84717276128E+02  0.16901561955E+03  0.12509000000E+03 0.  0.
         25    1    4    4    0    0 -0.27151363217E+02 -0.45389668418E+02  0.15581192858E+03  0.20669369539E+03  0.12509000000E+03 0.  0.
         25    1    3    3    0    0  0.10083803173E+03  0.63054026902E+02  0.16021858076E+03  0.23550291012E+03  0.12509000000E+03 0.  0.
<mgrwt>
<rscale>  2 0.46149929E+03</rscale>
<asrwt>0</asrwt>
<pdfrwt beam="1">  1       21 0.74408823E-01 0.46149929E+03</pdfrwt>
<pdfrwt beam="2">  1       21 0.15475327E-01 0.46149929E+03</pdfrwt>
<totfact> 0.55109250E+04</totfact>
</mgrwt>
</event>
<event>
 7    0  0.4725730E-002  0.4569176E+03  0.7546771E-02  0.1025679E+00
         21   -1    0    0  502  501  0.00000000000E+00  0.00000000000E+00  0.49621765473E+03  0.49621765473E+03  0.00000000000E+00 0. -1.
         21   -1    0    0  501  502 -0.00000000000E+00 -0.00000000000E+00 -0.10518251426E+03  0.10518251426E+03  0.00000000000E+00 0. -1.
      99926    2    1    2    0    0  0.00000000000E+00  0.00000000000E+00  0.39103514047E+03  0.60140016899E+03  0.45691758796E+03 0.  0.
      99925    2    3    3    0    0 -0.87433427227E+02  0.74576027498E+02  0.24879670881E+03  0.37984776523E+03  0.26301774533E+03 0.  0.
         25    1    3    3    0    0  0.87433427227E+02 -0.74576027498E+02  0.14223843166E+03  0.22155240377E+03  0.12509000000E+03 0.  0.
         25    1    4    4    0    0 -0.27313205848E+02  0.74646251661E+02  0.12565978654E+03  0.19430893997E+03  0.12509000000E+03 0.  0.
         25    1    4    4    0    0 -0.60120221379E+02 -0.70224162240E-01  0.12313692227E+03  0.18553882525E+03  0.12509000000E+03 0.  0.
<mgrwt>
<rscale>  2 0.45691759E+03</rscale>
<asrwt>0</asrwt>
<pdfrwt beam="1">  1       21 0.72973184E-01 0.45691759E+03</pdfrwt>
<pdfrwt beam="2">  1       21 0.15468017E-01 0.45691759E+03</pdfrwt>
<totfact> 0.57712784E+04</totfact>
</mgrwt>
</event>
<event>
 7    0  0.4725730E-002  0.4493256E+03  0.7546771E-02  0.1027923E+00
         21   -1    0    0  502  501  0.00000000000E+00  0.00000000000E+00  0.21602636467E+03  0.21602636467E+03  0.00000000000E+00 0. -1.
         21   -1    0    0  501  502 -0.00000000000E+00 -0.00000000000E+00 -0.23364448165E+03  0.23364448165E+03  0.00000000000E+00 0. -1.
      99926    2    1    2    0    0  0.00000000000E+00  0.00000000000E+00 -0.17618116976E+02  0.44967084632E+03  0.44932557460E+03 0.  0.
      99925    2    3    3    0    0 -0.78695909849E+02 -0.44085838535E+02 -0.70182040951E+02  0.28673809458E+03  0.26297644120E+03 0.  0.
         25    1    3    3    0    0  0.78695909849E+02  0.44085838535E+02  0.52563923975E+02  0.16293275174E+03  0.12509000000E+03 0.  0.
         25    1    4    4    0    0 -0.13069311224E+02 -0.50073248499E+02 -0.20717335669E+02  0.13694835964E+03  0.12509000000E+03 0.  0.
         25    1    4    4    0    0 -0.65626598625E+02  0.59874099636E+01 -0.49464705282E+02  0.14978973494E+03  0.12509000000E+03 0.  0.
<mgrwt>
<rscale>  2 0.44932557E+03</rscale>
<asrwt>0</asrwt>
<pdfrwt beam="1">  1       21 0.31768583E-01 0.44932557E+03</pdfrwt>
<pdfrwt beam="2">  1       21 0.34359483E-01 0.44932557E+03</pdfrwt>
<totfact> 0.72149705E+04</totfact>
</mgrwt>
</event>
<event>
 7    0  0.4725730E-002  0.4573060E+03  0.7546771E-02  0.1025565E+00
         21   -1    0    0  502  501  0.00000000000E+00  0.00000000000E+00  0.10192003696E+03  0.10192003696E+03  0.00000000000E+00 0. -1.
         21   -1    0    0  501  502 -0.00000000000E+00 -0.00000000000E+00 -0.51297263583E+03  0.51297263583E+03  0.00000000000E+00 0. -1.
      99926    2    1    2    0    0  0.00000000000E+00  0.00000000000E+00 -0.41105259887E+03  0.61489267279E+03  0.45730598072E+03 0.  0.
      99925    2    3    3    0    0  0.37278589403E+02 -0.13334475553E+02 -0.11261474440E+03  0.28888628857E+03  0.26306977326E+03 0.  0.
         25    1    3    3    0    0 -0.37278589403E+02  0.13334475553E+02 -0.29843785448E+03  0.32600638422E+03  0.12509000000E+03 0.  0.
         25    1    4    4    0    0  0.36985773575E+02  0.12282399713E+02 -0.23332851546E+02  0.13308168488E+03  0.12509000000E+03 0.  0.
         25    1    4    4    0    0  0.29281582806E+00 -0.25616875266E+02 -0.89281892853E+02  0.15580460369E+03  0.12509000000E+03 0.  0.
<mgrwt>
<rscale>  2 0.45730598E+03</rscale>
<asrwt>0</asrwt>
<pdfrwt beam="1">  1       21 0.14988241E-01 0.45730598E+03</pdfrwt>
<pdfrwt beam="2">  1       21 0.75437151E-01 0.45730598E+03</pdfrwt>
<totfact> 0.56730549E+04</totfact>
</mgrwt>
</event>
<event>
 7    0  0.4725730E-002  0.4277645E+03  0.7546771E-02  0.1034568E+00
         21   -1    0    0  502  501  0.00000000000E+00  0.00000000000E+00  0.55413977849E+03  0.55413977849E+03  0.00000000000E+00 0.  1.
         21   -1    0    0  501  502 -0.00000000000E+00 -0.00000000000E+00 -0.82552473069E+02  0.82552473069E+02  0.00000000000E+00 0.  1.
      99926    2    1    2    0    0 -0.35527136788E-14 -0.35527136788E-14  0.47158730542E+03  0.63669225156E+03  0.42776446388E+03 0.  0.
      99925    2    3    3    0    0  0.31930202741E+02 -0.62353130472E+01  0.18785789793E+03  0.32490979254E+03  0.26309193545E+03 0.  0.
         25    1    3    3    0    0 -0.31930202741E+02  0.62353130472E+01  0.28372940750E+03  0.31178245902E+03  0.12509000000E+03 0.  0.
         25    1    4    4    0    0 -0.14746214878E+01 -0.28739534565E+02  0.12525876390E+03  0.17934715328E+03  0.12509000000E+03 0.  0.
         25    1    4    4    0    0  0.33404824229E+02  0.22504221518E+02  0.62599134031E+02  0.14556263926E+03  0.12509000000E+03 0.  0.
<mgrwt>
<rscale>  2 0.42776446E+03</rscale>
<asrwt>0</asrwt>
<pdfrwt beam="1">  1       21 0.81491142E-01 0.42776446E+03</pdfrwt>
<pdfrwt beam="2">  1       21 0.12140070E-01 0.42776446E+03</pdfrwt>
<totfact> 0.70429542E+04</totfact>
</mgrwt>
</event>
<event>
 7    0  0.4725730E-002  0.4588886E+03  0.7546771E-02  0.1025104E+00
         21   -1    0    0  502  501  0.00000000000E+00  0.00000000000E+00  0.10129474274E+04  0.10129474274E+04  0.00000000000E+00 0.  1.
         21   -1    0    0  501  502 -0.00000000000E+00 -0.00000000000E+00 -0.51971775847E+02  0.51971775847E+02  0.00000000000E+00 0.  1.
      99926    2    1    2    0    0 -0.14210854715E-13  0.71054273576E-14  0.96097565155E+03  0.10649192032E+04  0.45888855571E+03 0.  0.
      99925    2    3    3    0    0 -0.84090120129E+02  0.35977202770E+02  0.77103763669E+03  0.81978767730E+03  0.26303477191E+03 0.  0.
         25    1    3    3    0    0  0.84090120129E+02 -0.35977202770E+02  0.18993801485E+03  0.24513152594E+03  0.12509000000E+03 0.  0.
         25    1    4    4    0    0 -0.31880328465E+02 -0.20890090023E+02  0.33368821381E+03  0.35839654483E+03  0.12509000000E+03 0.  0.
         25    1    4    4    0    0 -0.52209791664E+02  0.56867292793E+02  0.43734942288E+03  0.46139113248E+03  0.12509000000E+03 0.  0.
<mgrwt>
<rscale>  2 0.45888856E+03</rscale>
<asrwt>0</asrwt>
<pdfrwt beam="1">  1       21 0.14896284E+00 0.45888856E+03</pdfrwt>
<pdfrwt beam="2">  1       21 0.76429089E-02 0.45888856E+03</pdfrwt>
<totfact> 0.35640764E+04</totfact>
</mgrwt>
</event>
<event>
 7    0  0.4725730E-002  0.4562416E+03  0.7546771E-02  0.1025877E+00
         21   -1    0    0  502  501  0.00000000000E+00  0.00000000000E+00  0.42016742851E+03  0.42016742851E+03  0.00000000000E+00 0. -1.
         21   -1    0    0  501  502 -0.00000000000E+00 -0.00000000000E+00 -0.12385325783E+03  0.12385325783E+03  0.00000000000E+00 0. -1.
      99926    2    1    2    0    0 -0.35527136788E-14  0.00000000000E+00  0.29631417069E+03  0.54402068634E+03  0.45624162394E+03 0.  0.
      99925    2    3    3    0    0 -0.26499186503E+02 -0.34554218089E+02  0.60356236245E+02  0.27342900908E+03  0.26310520117E+03 0.  0.
         25    1    4    4    0    0  0.11141120429E+02 -0.49868322795E+02  0.32813242706E+02  0.13905103804E+03  0.12509000000E+03 0.  0.
         25    1    3    3    0    0  0.26499186503E+02  0.34554218089E+02  0.23595793444E+03  0.27059167725E+03  0.12509000000E+03 0.  0.
         25    1    4    4    0    0 -0.37640306932E+02  0.15314104707E+02  0.27542993539E+02  0.13437797104E+03  0.12509000000E+03 0.  0.
<mgrwt>
<rscale>  2 0.45624162E+03</rscale>
<asrwt>0</asrwt>
<pdfrwt beam="1">  1       21 0.61789327E-01 0.45624162E+03</pdfrwt>
<pdfrwt beam="2">  1       21 0.18213715E-01 0.45624162E+03</pdfrwt>
<totfact> 0.61655359E+04</totfact>
</mgrwt>
</event>
<event>
 7    0  0.4725730E-002  0.4539497E+03  0.7546771E-02  0.1026551E+00
         21   -1    0    0  502  501  0.00000000000E+00  0.00000000000E+00  0.72362478892E+03  0.72362478892E+03  0.00000000000E+00 0. -1.
         21   -1    0    0  501  502 -0.00000000000E+00 -0.00000000000E+00 -0.71193767980E+02  0.71193767980E+02  0.00000000000E+00 0. -1.
      99926    2    1    2    0    0  0.00000000000E+00 -0.71054273576E-14  0.65243102094E+03  0.79481855690E+03  0.45394966825E+03 0.  0.
      99925    2    3    3    0    0 -0.49168417676E+02 -0.57123655528E+02  0.55642918719E+03  0.62004869250E+03  0.26299485812E+03 0.  0.
         25    1    4    4    0    0 -0.31769454711E+02 -0.20375208478E+02  0.36588777349E+03  0.38851746198E+03  0.12509000000E+03 0.  0.
         25    1    3    3    0    0  0.49168417676E+02  0.57123655528E+02  0.96001833745E+02  0.17476986439E+03  0.12509000000E+03 0.  0.
         25    1    4    4    0    0 -0.17398962964E+02 -0.36748447050E+02  0.19054141370E+03  0.23153123053E+03  0.12509000000E+03 0.  0.
<mgrwt>
<rscale>  2 0.45394967E+03</rscale>
<asrwt>0</asrwt>
<pdfrwt beam="1">  1       21 0.10641541E+00 0.45394967E+03</pdfrwt>
<pdfrwt beam="2">  1       21 0.10469672E-01 0.45394967E+03</pdfrwt>
<totfact> 0.48414312E+04</totfact>
</mgrwt>
</event>
<event>
 7    0  0.4725730E-002  0.4512182E+03  0.7546771E-02  0.1027359E+00
         21   -1    0    0  502  501  0.00000000000E+00  0.00000000000E+00  0.21987334077E+04  0.21987334077E+04  0.00000000000E+00 0.  1.
         21   -1    0    0  501  502 -0.00000000000E+00 -0.00000000000E+00 -0.23149444603E+02  0.23149444603E+02  0.00000000000E+00 0.  1.
      99926    2    1    2    0    0  0.00000000000E+00  0.00000000000E+00  0.21755839631E+04  0.22218828523E+04  0.45121816106E+03 0.  0.
      99925    2    3    3    0    0  0.78267377471E+02  0.23558666221E+02  0.10145305577E+04  0.10512534013E+04  0.26302218201E+03 0.  0.
         25    1    3    3    0    0 -0.78267377471E+02 -0.23558666221E+02  0.11610534054E+04  0.11706294510E+04  0.12509000000E+03 0.  0.
         25    1    4    4    0    0  0.80028877710E+02  0.25644799933E+01  0.53659116279E+03  0.55676636204E+03  0.12509000000E+03 0.  0.
         25    1    4    4    0    0 -0.17615002391E+01  0.20994186228E+02  0.47793939490E+03  0.49448703930E+03  0.12509000000E+03 0.  0.
<mgrwt>
<rscale>  2 0.45121816E+03</rscale>
<asrwt>0</asrwt>
<pdfrwt beam="1">  1       21 0.32334300E+00 0.45121816E+03</pdfrwt>
<pdfrwt beam="2">  1       21 0.34043316E-02 0.45121816E+03</pdfrwt>
<totfact> 0.10725380E+04</totfact>
</mgrwt>
</event>
<event>
 7    0  0.4725730E-002  0.4440451E+03  0.7546771E-02  0.1029513E+00
         21   -1    0    0  502  501  0.00000000000E+00  0.00000000000E+00  0.12829167012E+03  0.12829167012E+03  0.00000000000E+00 0.  1.
         21   -1    0    0  501  502 -0.00000000000E+00 -0.00000000000E+00 -0.38423391799E+03  0.38423391799E+03  0.00000000000E+00 0.  1.
      99926    2    1    2    0    0  0.71054273576E-14  0.00000000000E+00 -0.25594224787E+03  0.51252558811E+03  0.44404509255E+03 0.  0.
      99925    2    3    3    0    0  0.40739354098E+02  0.38771441214E+02 -0.26190748715E+03  0.37524481084E+03  0.26277407904E+03 0.  0.
         25    1    4    4    0    0 -0.94342511958E-02  0.19616838379E+02 -0.17652900822E+03  0.21724368640E+03  0.12509000000E+03 0.  0.
         25    1    4    4    0    0  0.40748788349E+02  0.19154602835E+02 -0.85378478922E+02  0.15800112444E+03  0.12509000000E+03 0.  0.
         25    1    3    3    0    0 -0.40739354098E+02 -0.38771441214E+02  0.59652392777E+01  0.13728077726E+03  0.12509000000E+03 0.  0.
<mgrwt>
<rscale>  2 0.44404509E+03</rscale>
<asrwt>0</asrwt>
<pdfrwt beam="1">  1       21 0.18866422E-01 0.44404509E+03</pdfrwt>
<pdfrwt beam="2">  1       21 0.56504988E-01 0.44404509E+03</pdfrwt>
<totfact> 0.70314984E+04</totfact>
</mgrwt>
</event>
<event>
 7    0  0.4725730E-002  0.4615643E+03  0.7546771E-02  0.1024329E+00
         21   -1    0    0  502  501  0.00000000000E+00  0.00000000000E+00  0.10040016764E+04  0.10040016764E+04  0.00000000000E+00 0.  1.
         21   -1    0    0  501  502 -0.00000000000E+00 -0.00000000000E+00 -0.53048121835E+02  0.53048121835E+02  0.00000000000E+00 0.  1.
      99926    2    1    2    0    0  0.00000000000E+00 -0.17763568394E-14  0.95095355461E+03  0.10570497983E+04  0.46156431082E+03 0.  0.
      99925    2    3    3    0    0  0.79608961695E+02  0.11374661816E+02  0.39342735384E+03  0.48003165095E+03  0.26301774359E+03 0.  0.
         25    1    3    3    0    0 -0.79608961695E+02 -0.11374661816E+02  0.55752620076E+03  0.57701814733E+03  0.12509000000E+03 0.  0.
         25    1    4    4    0    0  0.45542682153E+02  0.44238457452E+02  0.18082589345E+03  0.22885953958E+03  0.12509000000E+03 0.  0.
         25    1    4    4    0    0  0.34066279542E+02 -0.32863795636E+02  0.21260146039E+03  0.25117211136E+03  0.12509000000E+03 0.  0.
<mgrwt>
<rscale>  2 0.46156431E+03</rscale>
<asrwt>0</asrwt>
<pdfrwt beam="1">  1       21 0.14764729E+00 0.46156431E+03</pdfrwt>
<pdfrwt beam="2">  1       21 0.78011950E-02 0.46156431E+03</pdfrwt>
<totfact> 0.35182420E+04</totfact>
</mgrwt>
</event>
<event>
 7    0  0.4725730E-002  0.4464046E+03  0.7546771E-02  0.1028800E+00
         21   -1    0    0  502  501  0.00000000000E+00  0.00000000000E+00  0.80629564644E+02  0.80629564644E+02  0.00000000000E+00 0. -1.
         21   -1    0    0  501  502 -0.00000000000E+00 -0.00000000000E+00 -0.61787834409E+03  0.61787834409E+03  0.00000000000E+00 0. -1.
      99926    2    1    2    0    0 -0.71054273576E-14  0.17763568394E-14 -0.53724877945E+03  0.69850790874E+03  0.44640457833E+03 0.  0.
      99925    2    3    3    0    0 -0.49202628360E+02  0.13304767910E+02 -0.48414476081E+03  0.55336845724E+03  0.26310185205E+03 0.  0.
         25    1    4    4    0    0 -0.28194840703E+02  0.26761354575E+02 -0.31788451941E+03  0.34381564089E+03  0.12509000000E+03 0.  0.
         25    1    3    3    0    0  0.49202628360E+02 -0.13304767910E+02 -0.53104018634E+02  0.14513945150E+03  0.12509000000E+03 0.  0.
         25    1    4    4    0    0 -0.21007787657E+02 -0.13456586665E+02 -0.16626024141E+03  0.20955281635E+03  0.12509000000E+03 0.  0.
<mgrwt>
<rscale>  2 0.44640458E+03</rscale>
<asrwt>0</asrwt>
<pdfrwt beam="1">  1       21 0.11857289E-01 0.44640458E+03</pdfrwt>
<pdfrwt beam="2">  1       21 0.90864463E-01 0.44640458E+03</pdfrwt>
<totfact> 0.56724956E+04</totfact>
</mgrwt>
</event>
<event>
 7    0  0.4725730E-002  0.4537445E+03  0.7546771E-02  0.1026611E+00
         21   -1    0    0  502  501  0.00000000000E+00  0.00000000000E+00  0.55048260785E+02  0.55048260785E+02  0.00000000000E+00 0. -1.
         21   -1    0    0  501  502 -0.00000000000E+00 -0.00000000000E+00 -0.93501607787E+03  0.93501607787E+03  0.00000000000E+00 0. -1.
      99926    2    1    2    0    0  0.00000000000E+00  0.88817841970E-15 -0.87996781709E+03  0.99006433866E+03  0.45374446065E+03 0.  0.
      99925    2    3    3    0    0  0.66721964534E+02 -0.55236783821E+01 -0.75022453219E+03  0.79780628382E+03  0.26301271116E+03 0.  0.
         25    1    4    4    0    0  0.71537093233E+01 -0.30701863872E+02 -0.40182192316E+03  0.42202149949E+03  0.12509000000E+03 0.  0.
         25    1    4    4    0    0  0.59568255210E+02  0.25178185489E+02 -0.34840260903E+03  0.37578478433E+03  0.12509000000E+03 0.  0.
         25    1    3    3    0    0 -0.66721964534E+02  0.55236783821E+01 -0.12974328490E+03  0.19225805484E+03  0.12509000000E+03 0.  0.
<mgrwt>
<rscale>  2 0.45374446E+03</rscale>
<asrwt>0</asrwt>
<pdfrwt beam="1">  1       21 0.80953330E-02 0.45374446E+03</pdfrwt>
<pdfrwt beam="2">  1       21 0.13750236E+00 0.45374446E+03</pdfrwt>
<totfact> 0.39945734E+04</totfact>
</mgrwt>
</event>
<event>
 7    0  0.4725730E-002  0.4543059E+03  0.7546771E-02  0.1026446E+00
         21   -1    0    0  502  501  0.00000000000E+00  0.00000000000E+00  0.34930205244E+03  0.34930205244E+03  0.00000000000E+00 0. -1.
         21   -1    0    0  501  502 -0.00000000000E+00 -0.00000000000E+00 -0.14771875226E+03  0.14771875226E+03  0.00000000000E+00 0. -1.
      99926    2    1    2    0    0  0.00000000000E+00 -0.35527136788E-14  0.20158330017E+03  0.49702080470E+03  0.45430590289E+03 0.  0.
      99925    2    3    3    0    0  0.10568896340E+03  0.19486378347E+02  0.16198298219E+03  0.32741665024E+03  0.26346404007E+03 0.  0.
         25    1    4    4    0    0  0.78796962571E+02 -0.14182705144E+02  0.59209599931E+02  0.15988556927E+03  0.12509000000E+03 0.  0.
         25    1    3    3    0    0 -0.10568896340E+03 -0.19486378347E+02  0.39600317977E+02  0.16960415446E+03  0.12509000000E+03 0.  0.
         25    1    4    4    0    0  0.26892000827E+02  0.33669083491E+02  0.10277338226E+03  0.16753108098E+03  0.12509000000E+03 0.  0.
<mgrwt>
<rscale>  2 0.45430590E+03</rscale>
<asrwt>0</asrwt>
<pdfrwt beam="1">  1       21 0.51367949E-01 0.45430590E+03</pdfrwt>
<pdfrwt beam="2">  1       21 0.21723346E-01 0.45430590E+03</pdfrwt>
<totfact> 0.65842510E+04</totfact>
</mgrwt>
</event>
<event>
 7    0  0.4725730E-002  0.4491392E+03  0.7546771E-02  0.1027979E+00
         21   -1    0    0  502  501  0.00000000000E+00  0.00000000000E+00  0.50121640452E+03  0.50121640452E+03  0.00000000000E+00 0. -1.
         21   -1    0    0  501  502 -0.00000000000E+00 -0.00000000000E+00 -0.10061824293E+03  0.10061824293E+03  0.00000000000E+00 0. -1.
      99926    2    1    2    0    0 -0.71054273576E-14  0.00000000000E+00  0.40059816159E+03  0.60183464745E+03  0.44913923878E+03 0.  0.
      99925    2    3    3    0    0 -0.31394185579E+02  0.97795565771E+02  0.29788497221E+03  0.41013938162E+03  0.26254387845E+03 0.  0.
         25    1    4    4    0    0  0.56031622193E+01  0.36905000622E+02  0.18872944708E+03  0.22947698533E+03  0.12509000000E+03 0.  0.
         25    1    4    4    0    0 -0.36997347798E+02  0.60890565149E+02  0.10915552512E+03  0.18066239629E+03  0.12509000000E+03 0.  0.
         25    1    3    3    0    0  0.31394185579E+02 -0.97795565771E+02  0.10271318938E+03  0.19169526584E+03  0.12509000000E+03 0.  0.
<mgrwt>
<rscale>  2 0.44913924E+03</rscale>
<asrwt>0</asrwt>
<pdfrwt beam="1">  1       21 0.73708293E-01 0.44913924E+03</pdfrwt>
<pdfrwt beam="2">  1       21 0.14796801E-01 0.44913924E+03</pdfrwt>
<totfact> 0.61357584E+04</totfact>
</mgrwt>
</event>
<event>
 7    0  0.4725730E-002  0.4549123E+03  0.7546771E-02  0.1026267E+00
         21   -1    0    0  502  501  0.00000000000E+00  0.00000000000E+00  0.22742036904E+03  0.22742036904E+03  0.00000000000E+00 0.  1.
         21   -1    0    0  501  502 -0.00000000000E+00 -0.00000000000E+00 -0.22749197813E+03  0.22749197813E+03  0.00000000000E+00 0.  1.
      99926    2    1    2    0    0  0.00000000000E+00  0.00000000000E+00 -0.71609094164E-01  0.45491234717E+03  0.45491234153E+03 0.  0.
      99925    2    3    3    0    0 -0.63078650167E+02  0.92903938420E+02 -0.12165776720E+02  0.28637797420E+03  0.26316207953E+03 0.  0.
         25    1    4    4    0    0 -0.45135978523E+02  0.34462031052E+02  0.30570161704E+02  0.14073709898E+03  0.12509000000E+03 0.  0.
         25    1    3    3    0    0  0.63078650167E+02 -0.92903938420E+02  0.12094167626E+02  0.16853437297E+03  0.12509000000E+03 0.  0.
         25    1    4    4    0    0 -0.17942671644E+02  0.58441907368E+02 -0.42735938424E+02  0.14564087522E+03  0.12509000000E+03 0.  0.
<mgrwt>
<rscale>  2 0.45491234E+03</rscale>
<asrwt>0</asrwt>
<pdfrwt beam="1">  1       21 0.33444172E-01 0.45491234E+03</pdfrwt>
<pdfrwt beam="2">  1       21 0.33454702E-01 0.45491234E+03</pdfrwt>
<totfact> 0.68600179E+04</totfact>
</mgrwt>
</event>
<event>
 7    0  0.4725730E-002  0.4519922E+03  0.7546771E-02  0.1027130E+00
         21   -1    0    0  502  501  0.00000000000E+00  0.00000000000E+00  0.22926123213E+03  0.22926123213E+03  0.00000000000E+00 0.  1.
         21   -1    0    0  501  502 -0.00000000000E+00 -0.00000000000E+00 -0.22277749761E+03  0.22277749761E+03  0.00000000000E+00 0.  1.
      99926    2    1    2    0    0  0.00000000000E+00  0.00000000000E+00  0.64837345247E+01  0.45203872974E+03  0.45199222822E+03 0.  0.
      99925    2    3    3    0    0 -0.31203299537E+02 -0.33938651207E+02 -0.96203533256E+02  0.28376020760E+03  0.26294344955E+03 0.  0.
         25    1    4    4    0    0  0.30641303604E+01 -0.41594451239E+02 -0.76231329788E+02  0.15230958936E+03  0.12509000000E+03 0.  0.
         25    1    4    4    0    0 -0.34267429897E+02  0.76558000320E+01 -0.19972203469E+02  0.13145061825E+03  0.12509000000E+03 0.  0.
         25    1    3    3    0    0  0.31203299537E+02  0.33938651207E+02  0.10268726778E+03  0.16827852214E+03  0.12509000000E+03 0.  0.
<mgrwt>
<rscale>  2 0.45199223E+03</rscale>
<asrwt>0</asrwt>
<pdfrwt beam="1">  1       21 0.33714887E-01 0.45199223E+03</pdfrwt>
<pdfrwt beam="2">  1       21 0.32761397E-01 0.45199223E+03</pdfrwt>
<totfact> 0.70438609E+04</totfact>
</mgrwt>
</event>
<event>
 7    0  0.4725730E-002  0.4566627E+03  0.7546771E-02  0.1025754E+00
         21   -1    0    0  502  501  0.00000000000E+00  0.00000000000E+00  0.88448462735E+03  0.88448462735E+03  0.00000000000E+00 0. -1.
         21   -1    0    0  501  502 -0.00000000000E+00 -0.00000000000E+00 -0.58944156743E+02  0.58944156743E+02  0.00000000000E+00 0. -1.
      99926    2    1    2    0    0 -0.35527136788E-14  0.00000000000E+00  0.82554047061E+03  0.94342878409E+03  0.45666267862E+03 0.  0.
      99925    2    3    3    0    0 -0.25225281270E+02 -0.83468642805E+02  0.67284180952E+03  0.72763323654E+03  0.26292717077E+03 0.  0.
         25    1    3    3    0    0  0.25225281270E+02  0.83468642805E+02  0.15269866108E+03  0.21579554755E+03  0.12509000000E+03 0.  0.
         25    1    4    4    0    0 -0.36505908110E+02 -0.76645740490E+02  0.37402710768E+03  0.40342413939E+03  0.12509000000E+03 0.  0.
         25    1    4    4    0    0  0.11280626840E+02 -0.68229023149E+01  0.29881470184E+03  0.32420909715E+03  0.12509000000E+03 0.  0.
<mgrwt>
<rscale>  2 0.45666268E+03</rscale>
<asrwt>0</asrwt>
<pdfrwt beam="1">  1       21 0.13007126E+00 0.45666268E+03</pdfrwt>
<pdfrwt beam="2">  1       21 0.86682589E-02 0.45666268E+03</pdfrwt>
<totfact> 0.40873970E+04</totfact>
</mgrwt>
</event>
<event>
 7    0  0.4725730E-002  0.4678577E+03  0.7546771E-02  0.1022527E+00
         21   -1    0    0  502  501  0.00000000000E+00  0.00000000000E+00  0.56037881670E+03  0.56037881670E+03  0.00000000000E+00 0.  1.
         21   -1    0    0  501  502 -0.00000000000E+00 -0.00000000000E+00 -0.97653063039E+02  0.97653063039E+02  0.00000000000E+00 0.  1.
      99926    2    1    2    0    0  0.00000000000E+00 -0.14210854715E-13  0.46272575366E+03  0.65803187974E+03  0.46785770449E+03 0.  0.
      99925    2    3    3    0    0  0.75179262827E+02  0.89963310977E+02  0.22778645646E+03  0.36718948195E+03  0.26305156724E+03 0.  0.
         25    1    4    4    0    0  0.75864615101E+02  0.63176458719E+02  0.13911771580E+03  0.21153711663E+03  0.12509000000E+03 0.  0.
         25    1    4    4    0    0 -0.68535227462E+00  0.26786852258E+02  0.88668740658E+02  0.15565236533E+03  0.12509000000E+03 0.  0.
         25    1    3    3    0    0 -0.75179262827E+02 -0.89963310977E+02  0.23493929720E+03  0.29084239778E+03  0.12509000000E+03 0.  0.
<mgrwt>
<rscale>  2 0.46785770E+03</rscale>
<asrwt>0</asrwt>
<pdfrwt beam="1">  1       21 0.82408648E-01 0.46785770E+03</pdfrwt>
<pdfrwt beam="2">  1       21 0.14360745E-01 0.46785770E+03</pdfrwt>
<totfact> 0.49976433E+04</totfact>
</mgrwt>
</event>
<event>
 7    0  0.4725730E-002  0.4522154E+03  0.7546771E-02  0.1027063E+00
         21   -1    0    0  502  501  0.00000000000E+00  0.00000000000E+00  0.47384341342E+02  0.47384341342E+02  0.00000000000E+00 0. -1.
         21   -1    0    0  501  502 -0.00000000000E+00 -0.00000000000E+00 -0.10789365311E+04  0.10789365311E+04  0.00000000000E+00 0. -1.
      99926    2    1    2    0    0  0.00000000000E+00  0.00000000000E+00 -0.10315521898E+04  0.11263208725E+04  0.45221542157E+03 0.  0.
      99925    2    3    3    0    0  0.82927175172E+02 -0.55324206627E+02 -0.53201699609E+03  0.60180147143E+03  0.26303087779E+03 0.  0.
         25    1    4    4    0    0  0.29389758528E+00 -0.22961324703E+02 -0.26295080400E+03  0.29209235223E+03  0.12509000000E+03 0.  0.
         25    1    3    3    0    0 -0.82927175172E+02  0.55324206627E+02 -0.49953519369E+03  0.52451940103E+03  0.12509000000E+03 0.  0.
         25    1    4    4    0    0  0.82633277587E+02 -0.32362881924E+02 -0.26906619209E+03  0.30970911920E+03  0.12509000000E+03 0.  0.
<mgrwt>
<rscale>  2 0.45221542E+03</rscale>
<asrwt>0</asrwt>
<pdfrwt beam="1">  1       21 0.69682853E-02 0.45221542E+03</pdfrwt>
<pdfrwt beam="2">  1       21 0.15866714E+00 0.45221542E+03</pdfrwt>
<totfact> 0.35343883E+04</totfact>
</mgrwt>
</event>
<event>
 7    0  0.4725730E-002  0.4260839E+03  0.7546771E-02  0.1035104E+00
         21   -1    0    0  502  501  0.00000000000E+00  0.00000000000E+00  0.10070716087E+03  0.10070716087E+03  0.00000000000E+00 0. -1.
         21   -1    0    0  501  502 -0.00000000000E+00 -0.00000000000E+00 -0.45068170018E+03  0.45068170018E+03  0.00000000000E+00 0. -1.
      99926    2    1    2    0    0  0.00000000000E+00 -0.17763568394E-14 -0.34997453931E+03  0.55138886104E+03  0.42608390948E+03 0.  0.
      99925    2    3    3    0    0 -0.82445616951E+02 -0.10017374372E+02 -0.23429610456E+03  0.36184563138E+03  0.26294480181E+03 0.  0.
         25    1    4    4    0    0 -0.44755496671E+02  0.32235013693E+02 -0.96651891017E+02  0.16742534673E+03  0.12509000000E+03 0.  0.
         25    1    3    3    0    0  0.82445616951E+02  0.10017374372E+02 -0.11567843475E+03  0.18954322966E+03  0.12509000000E+03 0.  0.
         25    1    4    4    0    0 -0.37690120280E+02 -0.42252388065E+02 -0.13764421354E+03  0.19442028465E+03  0.12509000000E+03 0.  0.
<mgrwt>
<rscale>  2 0.42608391E+03</rscale>
<asrwt>0</asrwt>
<pdfrwt beam="1">  1       21 0.14809877E-01 0.42608391E+03</pdfrwt>
<pdfrwt beam="2">  1       21 0.66276720E-01 0.42608391E+03</pdfrwt>
<totfact> 0.78183582E+04</totfact>
</mgrwt>
</event>
<event>
 7    0  0.4725730E-002  0.4594124E+03  0.7546771E-02  0.1024952E+00
         21   -1    0    0  502  501  0.00000000000E+00  0.00000000000E+00  0.48473546891E+02  0.48473546891E+02  0.00000000000E+00 0. -1.
         21   -1    0    0  501  502 -0.00000000000E+00 -0.00000000000E+00 -0.10885305957E+04  0.10885305957E+04  0.00000000000E+00 0. -1.
      99926    2    1    2    0    0  0.71054273576E-14  0.00000000000E+00 -0.10400570488E+04  0.11370041426E+04  0.45941240241E+03 0.  0.
      99925    2    3    3    0    0 -0.60719161549E+02 -0.92077218715E+02 -0.55137723661E+03  0.62065106790E+03  0.26272773028E+03 0.  0.
         25    1    3    3    0    0  0.60719161549E+02  0.92077218715E+02 -0.48867981220E+03  0.51635307469E+03  0.12509000000E+03 0.  0.
         25    1    4    4    0    0 -0.60580501430E+02 -0.52974251562E+02 -0.35105194391E+03  0.38126269672E+03  0.12509000000E+03 0.  0.
         25    1    4    4    0    0 -0.13866011960E+00 -0.39102967152E+02 -0.20032529269E+03  0.23938837118E+03  0.12509000000E+03 0.  0.
<mgrwt>
<rscale>  2 0.45941240E+03</rscale>
<asrwt>0</asrwt>
<pdfrwt beam="1">  1       21 0.71284632E-02 0.45941240E+03</pdfrwt>
<pdfrwt beam="2">  1       21 0.16007802E+00 0.45941240E+03</pdfrwt>
<totfact> 0.33067229E+04</totfact>
</mgrwt>
</event>
<event>
 7    0  0.4725730E-002  0.4544696E+03  0.7546771E-02  0.1026397E+00
         21   -1    0    0  502  501  0.00000000000E+00  0.00000000000E+00  0.21663915863E+03  0.21663915863E+03  0.00000000000E+00 0. -1.
         21   -1    0    0  501  502 -0.00000000000E+00 -0.00000000000E+00 -0.23834863106E+03  0.23834863106E+03  0.00000000000E+00 0. -1.
      99926    2    1    2    0    0 -0.35527136788E-14  0.00000000000E+00 -0.21709472438E+02  0.45498778969E+03  0.45446956727E+03 0.  0.
      99925    2    3    3    0    0  0.20832909935E+02  0.84369201521E+02  0.58044436419E+02  0.28305650580E+03  0.26305827601E+03 0.  0.
         25    1    4    4    0    0 -0.28587863508E+02  0.44846985411E+02  0.16996343858E+02  0.13698504241E+03  0.12509000000E+03 0.  0.
         25    1    4    4    0    0  0.49420773443E+02  0.39522216110E+02  0.41048092560E+02  0.14607146339E+03  0.12509000000E+03 0.  0.
         25    1    3    3    0    0 -0.20832909935E+02 -0.84369201521E+02 -0.79753908857E+02  0.17193128389E+03  0.12509000000E+03 0.  0.
<mgrwt>
<rscale>  2 0.45446957E+03</rscale>
<asrwt>0</asrwt>
<pdfrwt beam="1">  1       21 0.31858700E-01 0.45446957E+03</pdfrwt>
<pdfrwt beam="2">  1       21 0.35051269E-01 0.45446957E+03</pdfrwt>
<totfact> 0.68837590E+04</totfact>
</mgrwt>
</event>
<event>
 7    0  0.4725730E-002  0.4554353E+03  0.7546771E-02  0.1026113E+00
         21   -1    0    0  502  501  0.00000000000E+00  0.00000000000E+00  0.22290066365E+03  0.22290066365E+03  0.00000000000E+00 0. -1.
         21   -1    0    0  501  502 -0.00000000000E+00 -0.00000000000E+00 -0.23263869729E+03  0.23263869729E+03  0.00000000000E+00 0. -1.
      99926    2    1    2    0    0  0.71054273576E-14  0.00000000000E+00 -0.97380336377E+01  0.45553936094E+03  0.45543526441E+03 0.  0.
      99925    2    3    3    0    0 -0.44324780423E+02  0.63708687859E+02 -0.89119435437E+02  0.28828985236E+03  0.26295490513E+03 0.  0.
         25    1    3    3    0    0  0.44324780423E+02 -0.63708687859E+02  0.79381401799E+02  0.16724950858E+03  0.12509000000E+03 0.  0.
         25    1    4    4    0    0 -0.23259532322E+02 -0.52647674234E+01 -0.22678948671E+02  0.12934669085E+03  0.12509000000E+03 0.  0.
         25    1    4    4    0    0 -0.21065248101E+02  0.68973455283E+02 -0.66440486766E+02  0.15894316152E+03  0.12509000000E+03 0.  0.
<mgrwt>
<rscale>  2 0.45543526E+03</rscale>
<asrwt>0</asrwt>
<pdfrwt beam="1">  1       21 0.32779510E-01 0.45543526E+03</pdfrwt>
<pdfrwt beam="2">  1       21 0.34211573E-01 0.45543526E+03</pdfrwt>
<totfact> 0.68268899E+04</totfact>
</mgrwt>
</event>
<event>
 7    0  0.4725730E-002  0.4521025E+03  0.7546771E-02  0.1027097E+00
         21   -1    0    0  502  501  0.00000000000E+00  0.00000000000E+00  0.15533188431E+03  0.15533188431E+03  0.00000000000E+00 0.  1.
         21   -1    0    0  501  502 -0.00000000000E+00 -0.00000000000E+00 -0.32896773555E+03  0.32896773555E+03  0.00000000000E+00 0.  1.
      99926    2    1    2    0    0  0.00000000000E+00  0.00000000000E+00 -0.17363585123E+03  0.48429961986E+03  0.45210254695E+03 0.  0.
      99925    2    3    3    0    0  0.10021183036E+03  0.32500835609E+02 -0.14519157184E+03  0.31830172714E+03  0.26293855120E+03 0.  0.
         25    1    4    4    0    0  0.88564101282E+02  0.23253874750E+02 -0.59999397563E+02  0.16622809189E+03  0.12509000000E+03 0.  0.
         25    1    3    3    0    0 -0.10021183036E+03 -0.32500835609E+02 -0.28444279392E+02  0.16599789272E+03  0.12509000000E+03 0.  0.
         25    1    4    4    0    0  0.11647729074E+02  0.92469608597E+01 -0.85192174279E+02  0.15207363524E+03  0.12509000000E+03 0.  0.
<mgrwt>
<rscale>  2 0.45210255E+03</rscale>
<asrwt>0</asrwt>
<pdfrwt beam="1">  1       21 0.22842924E-01 0.45210255E+03</pdfrwt>
<pdfrwt beam="2">  1       21 0.48377608E-01 0.45210255E+03</pdfrwt>
<totfact> 0.67937691E+04</totfact>
</mgrwt>
</event>
<event>
 7    0  0.4725730E-002  0.4532611E+03  0.7546771E-02  0.1026754E+00
         21   -1    0    0  502  501  0.00000000000E+00  0.00000000000E+00  0.36066752569E+03  0.36066752569E+03  0.00000000000E+00 0.  1.
         21   -1    0    0  501  502 -0.00000000000E+00 -0.00000000000E+00 -0.14240654283E+03  0.14240654283E+03  0.00000000000E+00 0.  1.
      99926    2    1    2    0    0  0.14210854715E-13  0.00000000000E+00  0.21826098285E+03  0.50307406852E+03  0.45326114083E+03 0.  0.
      99925    2    3    3    0    0 -0.99319138260E+02  0.33077729352E+02  0.18012621034E+03  0.33556228870E+03  0.26305545146E+03 0.  0.
         25    1    3    3    0    0  0.99319138260E+02 -0.33077729352E+02  0.38134772517E+02  0.16751177982E+03  0.12509000000E+03 0.  0.
         25    1    4    4    0    0 -0.90244608731E+02  0.72242513984E+01  0.10973682658E+03  0.18943589528E+03  0.12509000000E+03 0.  0.
         25    1    4    4    0    0 -0.90745295295E+01  0.25853477954E+02  0.70389383754E+02  0.14612639342E+03  0.12509000000E+03 0.  0.
<mgrwt>
<rscale>  2 0.45326114E+03</rscale>
<asrwt>0</asrwt>
<pdfrwt beam="1">  1       21 0.53039342E-01 0.45326114E+03</pdfrwt>
<pdfrwt beam="2">  1       21 0.20942139E-01 0.45326114E+03</pdfrwt>
<totfact> 0.65960945E+04</totfact>
</mgrwt>
</event>
<event>
 7    0  0.4725730E-002  0.4596407E+03  0.7546771E-02  0.1024885E+00
         21   -1    0    0  502  501  0.00000000000E+00  0.00000000000E+00  0.19101421153E+03  0.19101421153E+03  0.00000000000E+00 0.  1.
         21   -1    0    0  501  502 -0.00000000000E+00 -0.00000000000E+00 -0.27651029357E+03  0.27651029357E+03  0.00000000000E+00 0.  1.
      99926    2    1    2    0    0  0.00000000000E+00  0.71054273576E-14 -0.85496082042E+02  0.46752450510E+03  0.45964071058E+03 0.  0.
      99925    2    3    3    0    0 -0.27085627593E+02  0.41233252849E+02  0.54853400513E+02  0.27315553197E+03  0.26300425231E+03 0.  0.
         25    1    4    4    0    0  0.31628357955E+01  0.51377558233E+02  0.49201723095E+02  0.14393739846E+03  0.12509000000E+03 0.  0.
         25    1    3    3    0    0  0.27085627593E+02 -0.41233252849E+02 -0.14034948256E+03  0.19436897313E+03  0.12509000000E+03 0.  0.
         25    1    4    4    0    0 -0.30248463389E+02 -0.10144305384E+02  0.56516774180E+01  0.12921813351E+03  0.12509000000E+03 0.  0.
<mgrwt>
<rscale>  2 0.45964071E+03</rscale>
<asrwt>0</asrwt>
<pdfrwt beam="1">  1       21 0.28090325E-01 0.45964071E+03</pdfrwt>
<pdfrwt beam="2">  1       21 0.40663278E-01 0.45964071E+03</pdfrwt>
<totfact> 0.65185080E+04</totfact>
</mgrwt>
</event>
<event>
 7    0  0.4725730E-002  0.4413099E+03  0.7546771E-02  0.1030346E+00
         21   -1    0    0  502  501  0.00000000000E+00  0.00000000000E+00  0.38456599733E+02  0.38456599733E+02  0.00000000000E+00 0.  1.
         21   -1    0    0  501  502 -0.00000000000E+00 -0.00000000000E+00 -0.12660661386E+04  0.12660661386E+04  0.00000000000E+00 0.  1.
      99926    2    1    2    0    0  0.00000000000E+00  0.00000000000E+00 -0.12276095389E+04  0.13045227383E+04  0.44130986270E+03 0.  0.
      99925    2    3    3    0    0  0.76921719785E+02 -0.45132824579E+02 -0.65052524993E+03  0.70733959434E+03  0.26304425122E+03 0.  0.
         25    1    4    4    0    0  0.16676209403E+02  0.13489692507E+02 -0.30802326364E+03  0.33314547394E+03  0.12509000000E+03 0.  0.
         25    1    3    3    0    0 -0.76921719785E+02  0.45132824579E+02 -0.57708428895E+03  0.59718314400E+03  0.12509000000E+03 0.  0.
         25    1    4    4    0    0  0.60245510381E+02 -0.58622517086E+02 -0.34250198629E+03  0.37419412040E+03  0.12509000000E+03 0.  0.
<mgrwt>
<rscale>  2 0.44130986E+03</rscale>
<asrwt>0</asrwt>
<pdfrwt beam="1">  1       21 0.56553824E-02 0.44130986E+03</pdfrwt>
<pdfrwt beam="2">  1       21 0.18618619E+00 0.44130986E+03</pdfrwt>
<totfact> 0.32286638E+04</totfact>
</mgrwt>
</event>
<event>
 7    0  0.4725730E-002  0.4632262E+03  0.7546771E-02  0.1023850E+00
         21   -1    0    0  502  501  0.00000000000E+00  0.00000000000E+00  0.13825322252E+03  0.13825322252E+03  0.00000000000E+00 0. -1.
         21   -1    0    0  501  502 -0.00000000000E+00 -0.00000000000E+00 -0.38801724104E+03  0.38801724104E+03  0.00000000000E+00 0. -1.
      99926    2    1    2    0    0 -0.88817841970E-15  0.14210854715E-13 -0.24976401852E+03  0.52627046356E+03  0.46322622537E+03 0.  0.
      99925    2    3    3    0    0  0.42533361365E+01 -0.10774285157E+03 -0.94348296513E+02  0.29949266994E+03  0.26299742462E+03 0.  0.
         25    1    4    4    0    0 -0.77225422134E+01 -0.38267082858E+02 -0.65826654411E+01  0.13120536145E+03  0.12509000000E+03 0.  0.
         25    1    3    3    0    0 -0.42533361365E+01  0.10774285157E+03 -0.15541572201E+03  0.22677779362E+03  0.12509000000E+03 0.  0.
         25    1    4    4    0    0  0.11975878350E+02 -0.69475768714E+02 -0.87765631072E+02  0.16828730849E+03  0.12509000000E+03 0.  0.
<mgrwt>
<rscale>  2 0.46322623E+03</rscale>
<asrwt>0</asrwt>
<pdfrwt beam="1">  1       21 0.20331357E-01 0.46322623E+03</pdfrwt>
<pdfrwt beam="2">  1       21 0.57061358E-01 0.46322623E+03</pdfrwt>
<totfact> 0.59484100E+04</totfact>
</mgrwt>
</event>
<event>
 7    0  0.4725730E-002  0.4540915E+03  0.7546771E-02  0.1026509E+00
         21   -1    0    0  502  501  0.00000000000E+00  0.00000000000E+00  0.15289901599E+03  0.15289901599E+03  0.00000000000E+00 0.  1.
         21   -1    0    0  501  502 -0.00000000000E+00 -0.00000000000E+00 -0.33714917810E+03  0.33714917810E+03  0.00000000000E+00 0.  1.
      99926    2    1    2    0    0  0.00000000000E+00  0.00000000000E+00 -0.18425016211E+03  0.49004819408E+03  0.45409152193E+03 0.  0.
      99925    2    3    3    0    0 -0.60068454689E+02 -0.92720979144E+02 -0.93211292657E+02  0.29994037448E+03  0.26281264038E+03 0.  0.
         25    1    4    4    0    0 -0.45410375484E+02 -0.78184484096E+02 -0.26249704563E+02  0.15656139641E+03  0.12509000000E+03 0.  0.
         25    1    4    4    0    0 -0.14658079206E+02 -0.14536495048E+02 -0.66961588094E+02  0.14337897808E+03  0.12509000000E+03 0.  0.
         25    1    3    3    0    0  0.60068454689E+02  0.92720979144E+02 -0.91038869453E+02  0.19010781960E+03  0.12509000000E+03 0.  0.
<mgrwt>
<rscale>  2 0.45409152E+03</rscale>
<asrwt>0</asrwt>
<pdfrwt beam="1">  1       21 0.22485150E-01 0.45409152E+03</pdfrwt>
<pdfrwt beam="2">  1       21 0.49580761E-01 0.45409152E+03</pdfrwt>
<totfact> 0.66453597E+04</totfact>
</mgrwt>
</event>
<event>
 7    0  0.4725730E-002  0.4462301E+03  0.7546771E-02  0.1028852E+00
         21   -1    0    0  502  501  0.00000000000E+00  0.00000000000E+00  0.85888611870E+03  0.85888611870E+03  0.00000000000E+00 0. -1.
         21   -1    0    0  501  502 -0.00000000000E+00 -0.00000000000E+00 -0.57959175638E+02  0.57959175638E+02  0.00000000000E+00 0. -1.
      99926    2    1    2    0    0  0.00000000000E+00  0.00000000000E+00  0.80092694306E+03  0.91684529434E+03  0.44623012631E+03 0.  0.
      99925    2    3    3    0    0 -0.65672977607E+02 -0.66223346578E+02  0.60600191951E+03  0.66716200590E+03  0.26299875294E+03 0.  0.
         25    1    4    4    0    0 -0.51000329620E+02 -0.48224206573E+02  0.23906340506E+03  0.27879280382E+03  0.12509000000E+03 0.  0.
         25    1    3    3    0    0  0.65672977607E+02  0.66223346578E+02  0.19492502356E+03  0.24968328844E+03  0.12509000000E+03 0.  0.
         25    1    4    4    0    0 -0.14672647987E+02 -0.17999140005E+02  0.36693851444E+03  0.38836920208E+03  0.12509000000E+03 0.  0.
<mgrwt>
<rscale>  2 0.44623013E+03</rscale>
<asrwt>0</asrwt>
<pdfrwt beam="1">  1       21 0.12630677E+00 0.44623013E+03</pdfrwt>
<pdfrwt beam="2">  1       21 0.85234087E-02 0.44623013E+03</pdfrwt>
<totfact> 0.45559540E+04</totfact>
</mgrwt>
</event>
<event>
 7    0  0.4725730E-002  0.4482413E+03  0.7546771E-02  0.1028248E+00
         21   -1    0    0  502  501  0.00000000000E+00  0.00000000000E+00  0.73011808946E+03  0.73011808946E+03  0.00000000000E+00 0.  1.
         21   -1    0    0  501  502 -0.00000000000E+00 -0.00000000000E+00 -0.68797192600E+02  0.68797192600E+02  0.00000000000E+00 0.  1.
      99926    2    1    2    0    0 -0.35527136788E-14 -0.71054273576E-14  0.66132089686E+03  0.79891528206E+03  0.44824134045E+03 0.  0.
      99925    2    3    3    0    0  0.29745085240E+02 -0.54366918050E+02  0.57350284134E+03  0.63399090287E+03  0.26305593328E+03 0.  0.
         25    1    3    3    0    0 -0.29745085240E+02  0.54366918050E+02  0.87818055529E+02  0.16492437919E+03  0.12509000000E+03 0.  0.
         25    1    4    4    0    0 -0.17139256361E+02 -0.19470608729E+01  0.24967204232E+03  0.27978774450E+03  0.12509000000E+03 0.  0.
         25    1    4    4    0    0  0.46884341600E+02 -0.52419857177E+02  0.32383079901E+03  0.35420315837E+03  0.12509000000E+03 0.  0.
<mgrwt>
<rscale>  2 0.44824134E+03</rscale>
<asrwt>0</asrwt>
<pdfrwt beam="1">  1       21 0.10737030E+00 0.44824134E+03</pdfrwt>
<pdfrwt beam="2">  1       21 0.10117235E-01 0.44824134E+03</pdfrwt>
<totfact> 0.50439986E+04</totfact>
</mgrwt>
</event>
<event>
 7    0  0.4725730E-002  0.4526343E+03  0.7546771E-02  0.1026939E+00
         21   -1    0    0  502  501  0.00000000000E+00  0.00000000000E+00  0.71268300519E+03  0.71268300519E+03  0.00000000000E+00 0. -1.
         21   -1    0    0  501  502 -0.00000000000E+00 -0.00000000000E+00 -0.71868486367E+02  0.71868486367E+02  0.00000000000E+00 0. -1.
      99926    2    1    2    0    0  0.00000000000E+00  0.00000000000E+00  0.64081451883E+03  0.78455149156E+03  0.45263428435E+03 0.  0.
      99925    2    3    3    0    0 -0.66177549386E+02 -0.85134845900E+02  0.44971291572E+03  0.53197528358E+03  0.26292315559E+03 0.  0.
         25    1    4    4    0    0 -0.32615240535E+01 -0.30960161521E+02  0.25855344355E+03  0.28890579851E+03  0.12509000000E+03 0.  0.
         25    1    3    3    0    0  0.66177549386E+02  0.85134845900E+02  0.19110160311E+03  0.25257620798E+03  0.12509000000E+03 0.  0.
         25    1    4    4    0    0 -0.62916025333E+02 -0.54174684379E+02  0.19115947217E+03  0.24306948507E+03  0.12509000000E+03 0.  0.
<mgrwt>
<rscale>  2 0.45263428E+03</rscale>
<asrwt>0</asrwt>
<pdfrwt beam="1">  1       21 0.10480632E+00 0.45263428E+03</pdfrwt>
<pdfrwt beam="2">  1       21 0.10568895E-01 0.45263428E+03</pdfrwt>
<totfact> 0.49432652E+04</totfact>
</mgrwt>
</event>
<event>
 7    0  0.4725730E-002  0.4239894E+03  0.7546771E-02  0.1035776E+00
         21   -1    0    0  502  501  0.00000000000E+00  0.00000000000E+00  0.26266349810E+03  0.26266349810E+03  0.00000000000E+00 0.  1.
         21   -1    0    0  501  502 -0.00000000000E+00 -0.00000000000E+00 -0.17110007898E+03  0.17110007898E+03  0.00000000000E+00 0.  1.
      99926    2    1    2    0    0  0.00000000000E+00  0.00000000000E+00  0.91563419123E+02  0.43376357708E+03  0.42398936435E+03 0.  0.
      99925    2    3    3    0    0  0.67050749092E+02  0.33169484794E+02  0.89921706308E+02  0.28800274217E+03  0.26317987870E+03 0.  0.
         25    1    4    4    0    0  0.33192849815E+02  0.52285162340E+02  0.24995609617E+02  0.14180194667E+03  0.12509000000E+03 0.  0.
         25    1    3    3    0    0 -0.67050749092E+02 -0.33169484794E+02  0.16417128151E+01  0.14576083492E+03  0.12509000000E+03 0.  0.
         25    1    4    4    0    0  0.33857899277E+02 -0.19115677546E+02  0.64926096691E+02  0.14620079549E+03  0.12509000000E+03 0.  0.
<mgrwt>
<rscale>  2 0.42398936E+03</rscale>
<asrwt>0</asrwt>
<pdfrwt beam="1">  1       21 0.38626985E-01 0.42398936E+03</pdfrwt>
<pdfrwt beam="2">  1       21 0.25161776E-01 0.42398936E+03</pdfrwt>
<totfact> 0.90524007E+04</totfact>
</mgrwt>
</event>
<event>
 7    0  0.4725730E-002  0.4445165E+03  0.7546771E-02  0.1029370E+00
         21   -1    0    0  502  501  0.00000000000E+00  0.00000000000E+00  0.20689834586E+03  0.20689834586E+03  0.00000000000E+00 0.  1.
         21   -1    0    0  501  502 -0.00000000000E+00 -0.00000000000E+00 -0.23875847122E+03  0.23875847122E+03  0.00000000000E+00 0.  1.
      99926    2    1    2    0    0  0.00000000000E+00  0.00000000000E+00 -0.31860125368E+02  0.44565681708E+03  0.44451651378E+03 0.  0.
      99925    2    3    3    0    0  0.35670504068E+02 -0.85568013921E+02 -0.65542420476E+02  0.28635749200E+03  0.26288882531E+03 0.  0.
         25    1    4    4    0    0  0.37557137846E+02 -0.29027536250E+02  0.99193566151E+00  0.13379696746E+03  0.12509000000E+03 0.  0.
         25    1    3    3    0    0 -0.35670504068E+02  0.85568013921E+02  0.33682295108E+02  0.15929932508E+03  0.12509000000E+03 0.  0.
         25    1    4    4    0    0 -0.18866337771E+01 -0.56540477671E+02 -0.66534356138E+02  0.15256052454E+03  0.12509000000E+03 0.  0.
<mgrwt>
<rscale>  2 0.44451651E+03</rscale>
<asrwt>0</asrwt>
<pdfrwt beam="1">  1       21 0.30426228E-01 0.44451651E+03</pdfrwt>
<pdfrwt beam="2">  1       21 0.35111540E-01 0.44451651E+03</pdfrwt>
<totfact> 0.75343417E+04</totfact>
</mgrwt>
</event>
<event>
 7    0  0.4725730E-002  0.4569086E+03  0.7546771E-02  0.1025682E+00
         21   -1    0    0  502  501  0.00000000000E+00  0.00000000000E+00  0.38111998353E+02  0.38111998353E+02  0.00000000000E+00 0.  1.
         21   -1    0    0  501  502 -0.00000000000E+00 -0.00000000000E+00 -0.13694207866E+04  0.13694207866E+04  0.00000000000E+00 0.  1.
      99926    2    1    2    0    0 -0.14210854715E-13  0.35527136788E-14 -0.13313087882E+04  0.14075327849E+04  0.45690858063E+03 0.  0.
      99925    2    3    3    0    0 -0.87752180561E+02  0.30860717887E+02 -0.10480740992E+04  0.10842338115E+04  0.26163105955E+03 0.  0.
         25    1    4    4    0    0 -0.27183787350E+02  0.37220619308E+02 -0.61803240344E+03  0.63224670232E+03  0.12509000000E+03 0.  0.
         25    1    4    4    0    0 -0.60568393211E+02 -0.63599014204E+01 -0.43004169579E+03  0.45198710913E+03  0.12509000000E+03 0.  0.
         25    1    3    3    0    0  0.87752180561E+02 -0.30860717887E+02 -0.28323468899E+03  0.32329897347E+03  0.12509000000E+03 0.  0.
<mgrwt>
<rscale>  2 0.45690858E+03</rscale>
<asrwt>0</asrwt>
<pdfrwt beam="1">  1       21 0.56047047E-02 0.45690858E+03</pdfrwt>
<pdfrwt beam="2">  1       21 0.20138544E+00 0.45690858E+03</pdfrwt>
<totfact> 0.25747950E+04</totfact>
</mgrwt>
</event>
<event>
 7    0  0.4725730E-002  0.4541327E+03  0.7546771E-02  0.1026497E+00
         21   -1    0    0  502  501  0.00000000000E+00  0.00000000000E+00  0.33941728691E+03  0.33941728691E+03  0.00000000000E+00 0.  1.
         21   -1    0    0  501  502 -0.00000000000E+00 -0.00000000000E+00 -0.15190481155E+03  0.15190481155E+03  0.00000000000E+00 0.  1.
      99926    2    1    2    0    0 -0.14210854715E-13 -0.20261570199E-14  0.18751247536E+03  0.49132209846E+03  0.45413266346E+03 0.  0.
      99925    2    3    3    0    0 -0.11124534110E+03  0.12224877550E+00  0.13414937161E+03  0.31562158679E+03  0.26314519050E+03 0.  0.
         25    1    3    3    0    0  0.11124534110E+03 -0.12224877550E+00  0.53363103747E+02  0.17570051167E+03  0.12509000000E+03 0.  0.
         25    1    4    4    0    0 -0.76734500176E+02 -0.24457688705E+02  0.99830625387E+02  0.17916479542E+03  0.12509000000E+03 0.  0.
         25    1    4    4    0    0 -0.34510840921E+02  0.24579937481E+02  0.34318746223E+02  0.13645679137E+03  0.12509000000E+03 0.  0.
<mgrwt>
<rscale>  2 0.45413266E+03</rscale>
<asrwt>0</asrwt>
<pdfrwt beam="1">  1       21 0.49914307E-01 0.45413266E+03</pdfrwt>
<pdfrwt beam="2">  1       21 0.22338943E-01 0.45413266E+03</pdfrwt>
<totfact> 0.66340320E+04</totfact>
</mgrwt>
</event>
<event>
 7    0  0.4725730E-002  0.4543451E+03  0.7546771E-02  0.1026434E+00
         21   -1    0    0  502  501  0.00000000000E+00  0.00000000000E+00  0.31568166979E+03  0.31568166979E+03  0.00000000000E+00 0.  1.
         21   -1    0    0  501  502 -0.00000000000E+00 -0.00000000000E+00 -0.16347911333E+03  0.16347911333E+03  0.00000000000E+00 0.  1.
      99926    2    1    2    0    0  0.00000000000E+00  0.00000000000E+00  0.15220255646E+03  0.47916078312E+03  0.45434506477E+03 0.  0.
      99925    2    3    3    0    0  0.48372130372E+01  0.45822967857E+01  0.21431954321E+03  0.33933795159E+03  0.26300757159E+03 0.  0.
         25    1    4    4    0    0  0.13740532952E+02 -0.36089169422E+02  0.98159981336E+02  0.16362799403E+03  0.12509000000E+03 0.  0.
         25    1    3    3    0    0 -0.48372130372E+01 -0.45822967857E+01 -0.62116986748E+02  0.13982283153E+03  0.12509000000E+03 0.  0.
         25    1    4    4    0    0 -0.89033199143E+01  0.40671466208E+02  0.11615956188E+03  0.17570995756E+03  0.12509000000E+03 0.  0.
<mgrwt>
<rscale>  2 0.45434506E+03</rscale>
<asrwt>0</asrwt>
<pdfrwt beam="1">  1       21 0.46423775E-01 0.45434506E+03</pdfrwt>
<pdfrwt beam="2">  1       21 0.24041046E-01 0.45434506E+03</pdfrwt>
<totfact> 0.67109421E+04</totfact>
</mgrwt>
</event>
<event>
 7    0  0.4725730E-002  0.4648026E+03  0.7546771E-02  0.1023397E+00
         21   -1    0    0  502  501  0.00000000000E+00  0.00000000000E+00  0.29181757365E+03  0.29181757365E+03  0.00000000000E+00 0.  1.
         21   -1    0    0  501  502 -0.00000000000E+00 -0.00000000000E+00 -0.18508266726E+03  0.18508266726E+03  0.00000000000E+00 0.  1.
      99926    2    1    2    0    0 -0.71054273576E-14  0.00000000000E+00  0.10673490639E+03  0.47690024091E+03  0.46480264579E+03 0.  0.
      99925    2    3    3    0    0  0.51752079182E+02  0.96212272255E+02  0.12261562096E+03  0.31006264254E+03  0.26300032845E+03 0.  0.
         25    1    4    4    0    0  0.15186142581E+02  0.86240985238E+02  0.50778001354E+02  0.16091625146E+03  0.12509000000E+03 0.  0.
         25    1    4    4    0    0  0.36565936601E+02  0.99712870172E+01  0.71837619604E+02  0.14914639109E+03  0.12509000000E+03 0.  0.
         25    1    3    3    0    0 -0.51752079182E+02 -0.96212272255E+02 -0.15880714571E+02  0.16683759836E+03  0.12509000000E+03 0.  0.
<mgrwt>
<rscale>  2 0.46480265E+03</rscale>
<asrwt>0</asrwt>
<pdfrwt beam="1">  1       21 0.42914349E-01 0.46480265E+03</pdfrwt>
<pdfrwt beam="2">  1       21 0.27218039E-01 0.46480265E+03</pdfrwt>
<totfact> 0.61965194E+04</totfact>
</mgrwt>
</event>
<event>
 7    0  0.4725730E-002  0.4547161E+03  0.7546771E-02  0.1026325E+00
         21   -1    0    0  502  501  0.00000000000E+00  0.00000000000E+00  0.23327498100E+03  0.23327498100E+03  0.00000000000E+00 0. -1.
         21   -1    0    0  501  502 -0.00000000000E+00 -0.00000000000E+00 -0.22159124442E+03  0.22159124442E+03  0.00000000000E+00 0. -1.
      99926    2    1    2    0    0  0.00000000000E+00  0.00000000000E+00  0.11683736579E+02  0.45486622543E+03  0.45471614589E+03 0.  0.
      99925    2    3    3    0    0  0.81108448755E+02 -0.10029237027E+02  0.85390216656E+02  0.28825494322E+03  0.26290731662E+03 0.  0.
         25    1    4    4    0    0  0.70522765123E+02  0.22743150536E+02  0.39878131862E+02  0.15075969222E+03  0.12509000000E+03 0.  0.
         25    1    3    3    0    0 -0.81108448755E+02  0.10029237027E+02 -0.73706480076E+02  0.16661128221E+03  0.12509000000E+03 0.  0.
         25    1    4    4    0    0  0.10585683632E+02 -0.32772387563E+02  0.45512084793E+02  0.13749525100E+03  0.12509000000E+03 0.  0.
<mgrwt>
<rscale>  2 0.45471615E+03</rscale>
<asrwt>0</asrwt>
<pdfrwt beam="1">  1       21 0.34305144E-01 0.45471615E+03</pdfrwt>
<pdfrwt beam="2">  1       21 0.32586948E-01 0.45471615E+03</pdfrwt>
<totfact> 0.68711089E+04</totfact>
</mgrwt>
</event>
<event>
 7    0  0.4725730E-002  0.4585736E+03  0.7546771E-02  0.1025196E+00
         21   -1    0    0  502  501  0.00000000000E+00  0.00000000000E+00  0.24971732081E+04  0.24971732081E+04  0.00000000000E+00 0. -1.
         21   -1    0    0  501  502 -0.00000000000E+00 -0.00000000000E+00 -0.21052783169E+02  0.21052783169E+02  0.00000000000E+00 0. -1.
      99926    2    1    2    0    0  0.00000000000E+00  0.71054273576E-14  0.24761204249E+04  0.25182259912E+04  0.45857364113E+03 0.  0.
      99925    2    3    3    0    0 -0.10518019904E+03 -0.38427671132E+02  0.13768909769E+04  0.14062491715E+04  0.26299887814E+03 0.  0.
         25    1    4    4    0    0 -0.87630296703E+02  0.20873133366E+01  0.69751296580E+03  0.71404150533E+03  0.12509000000E+03 0.  0.
         25    1    4    4    0    0 -0.17549902336E+02 -0.40514984469E+02  0.67937801110E+03  0.69220766617E+03  0.12509000000E+03 0.  0.
         25    1    3    3    0    0  0.10518019904E+03  0.38427671132E+02  0.10992294480E+04  0.11119768197E+04  0.12509000000E+03 0.  0.
<mgrwt>
<rscale>  2 0.45857364E+03</rscale>
<asrwt>0</asrwt>
<pdfrwt beam="1">  1       21 0.36723115E+00 0.45857364E+03</pdfrwt>
<pdfrwt beam="2">  1       21 0.30959992E-02 0.45857364E+03</pdfrwt>
<totfact> 0.67573957E+03</totfact>
</mgrwt>
</event>
<event>
 7    0  0.4725730E-002  0.4539322E+03  0.7546771E-02  0.1026556E+00
         21   -1    0    0  502  501  0.00000000000E+00  0.00000000000E+00  0.45511270699E+02  0.45511270699E+02  0.00000000000E+00 0. -1.
         21   -1    0    0  501  502 -0.00000000000E+00 -0.00000000000E+00 -0.11318869019E+04  0.11318869019E+04  0.00000000000E+00 0. -1.
      99926    2    1    2    0    0  0.00000000000E+00 -0.71054273576E-14 -0.10863756312E+04  0.11773981726E+04  0.45393220283E+03 0.  0.
      99925    2    3    3    0    0  0.20241238805E+02 -0.53926547645E+02 -0.43460869438E+03  0.51124096268E+03  0.26299206149E+03 0.  0.
         25    1    4    4    0    0 -0.16756094300E+02 -0.51574668588E+02 -0.18781533366E+03  0.23208365043E+03  0.12509000000E+03 0.  0.
         25    1    4    4    0    0  0.36997333105E+02 -0.23518790565E+01 -0.24679336072E+03  0.27915731226E+03  0.12509000000E+03 0.  0.
         25    1    3    3    0    0 -0.20241238805E+02  0.53926547645E+02 -0.65176693678E+03  0.66615720987E+03  0.12509000000E+03 0.  0.
<mgrwt>
<rscale>  2 0.45393220E+03</rscale>
<asrwt>0</asrwt>
<pdfrwt beam="1">  1       21 0.66928335E-02 0.45393220E+03</pdfrwt>
<pdfrwt beam="2">  1       21 0.16645397E+00 0.45393220E+03</pdfrwt>
<totfact> 0.33155639E+04</totfact>
</mgrwt>
</event>
<event>
 7    0  0.4725730E-002  0.4594316E+03  0.7546771E-02  0.1024946E+00
         21   -1    0    0  502  501  0.00000000000E+00  0.00000000000E+00  0.13596602886E+03  0.13596602886E+03  0.00000000000E+00 0. -1.
         21   -1    0    0  501  502 -0.00000000000E+00 -0.00000000000E+00 -0.38810681607E+03  0.38810681607E+03  0.00000000000E+00 0. -1.
      99926    2    1    2    0    0  0.71054273576E-14  0.00000000000E+00 -0.25214078722E+03  0.52407284493E+03  0.45943157294E+03 0.  0.
      99925    2    3    3    0    0  0.46924537914E+02  0.98321638829E+02 -0.10860283357E+03  0.30471079452E+03  0.26303048477E+03 0.  0.
         25    1    4    4    0    0 -0.21484005833E+01  0.20585259896E+02 -0.69647278361E+02  0.14466036096E+03  0.12509000000E+03 0.  0.
         25    1    4    4    0    0  0.49072938497E+02  0.77736378933E+02 -0.38955555207E+02  0.16005043356E+03  0.12509000000E+03 0.  0.
         25    1    3    3    0    0 -0.46924537914E+02 -0.98321638829E+02 -0.14353795365E+03  0.21936205040E+03  0.12509000000E+03 0.  0.
<mgrwt>
<rscale>  2 0.45943157E+03</rscale>
<asrwt>0</asrwt>
<pdfrwt beam="1">  1       21 0.19995004E-01 0.45943157E+03</pdfrwt>
<pdfrwt beam="2">  1       21 0.57074531E-01 0.45943157E+03</pdfrwt>
<totfact> 0.61422556E+04</totfact>
</mgrwt>
</event>
<event>
 7    0  0.4725730E-002  0.4228003E+03  0.7546771E-02  0.1036159E+00
         21   -1    0    0  502  501  0.00000000000E+00  0.00000000000E+00  0.57049532474E+02  0.57049532474E+02  0.00000000000E+00 0.  1.
         21   -1    0    0  501  502 -0.00000000000E+00 -0.00000000000E+00 -0.78335460172E+03  0.78335460172E+03  0.00000000000E+00 0.  1.
      99926    2    1    2    0    0  0.00000000000E+00  0.00000000000E+00 -0.72630506924E+03  0.84040413419E+03  0.42280025444E+03 0.  0.
      99925    2    3    3    0    0  0.53213161223E+02 -0.44796391490E+02 -0.54795735358E+03  0.61172581646E+03  0.26289324062E+03 0.  0.
         25    1    3    3    0    0 -0.53213161223E+02  0.44796391490E+02 -0.17834771566E+03  0.22867831773E+03  0.12509000000E+03 0.  0.
         25    1    4    4    0    0  0.29825301941E+02 -0.57406123991E+02 -0.23991291922E+03  0.27819189172E+03  0.12509000000E+03 0.  0.
         25    1    4    4    0    0  0.23387859282E+02  0.12609732501E+02 -0.30804443436E+03  0.33353392475E+03  0.12509000000E+03 0.  0.
<mgrwt>
<rscale>  2 0.42280025E+03</rscale>
<asrwt>0</asrwt>
<pdfrwt beam="1">  1       21 0.83896377E-02 0.42280025E+03</pdfrwt>
<pdfrwt beam="2">  1       21 0.11519920E+00 0.42280025E+03</pdfrwt>
<totfact> 0.59544784E+04</totfact>
</mgrwt>
</event>
<event>
 7    0  0.4725730E-002  0.4517614E+03  0.7546771E-02  0.1027198E+00
         21   -1    0    0  502  501  0.00000000000E+00  0.00000000000E+00  0.55981154425E+03  0.55981154425E+03  0.00000000000E+00 0. -1.
         21   -1    0    0  501  502 -0.00000000000E+00 -0.00000000000E+00 -0.91141564204E+02  0.91141564204E+02  0.00000000000E+00 0. -1.
      99926    2    1    2    0    0  0.00000000000E+00  0.14210854715E-13  0.46866998004E+03  0.65095310845E+03  0.45176144059E+03 0.  0.
      99925    2    3    3    0    0  0.36682647672E+02  0.95231190504E+02  0.35609063275E+03  0.45413793164E+03  0.26272823590E+03 0.  0.
         25    1    3    3    0    0 -0.36682647672E+02 -0.95231190504E+02  0.11257934729E+03  0.19681517681E+03  0.12509000000E+03 0.  0.
         25    1    4    4    0    0  0.31862919623E+02  0.46192561884E+02  0.24050210007E+03  0.27683526989E+03  0.12509000000E+03 0.  0.
         25    1    4    4    0    0  0.48197280499E+01  0.49038628620E+02  0.11558853268E+03  0.17730266175E+03  0.12509000000E+03 0.  0.
<mgrwt>
<rscale>  2 0.45176144E+03</rscale>
<asrwt>0</asrwt>
<pdfrwt beam="1">  1       21 0.82325225E-01 0.45176144E+03</pdfrwt>
<pdfrwt beam="2">  1       21 0.13403172E-01 0.45176144E+03</pdfrwt>
<totfact> 0.57091225E+04</totfact>
</mgrwt>
</event>
<event>
 7    0  0.4725730E-002  0.4658961E+03  0.7546771E-02  0.1023085E+00
         21   -1    0    0  502  501  0.00000000000E+00  0.00000000000E+00  0.11389256987E+04  0.11389256987E+04  0.00000000000E+00 0. -1.
         21   -1    0    0  501  502 -0.00000000000E+00 -0.00000000000E+00 -0.47645597451E+02  0.47645597451E+02  0.00000000000E+00 0. -1.
      99926    2    1    2    0    0  0.00000000000E+00  0.14210854715E-13  0.10912801012E+04  0.11865712961E+04  0.46589610587E+03 0.  0.
      99925    2    3    3    0    0 -0.29649561011E+02  0.10893496356E+03  0.55512832945E+03  0.62456404241E+03  0.26299592802E+03 0.  0.
         25    1    4    4    0    0  0.11862370619E+01  0.93398780652E+02  0.28838842408E+03  0.32793311914E+03  0.12509000000E+03 0.  0.
         25    1    3    3    0    0  0.29649561011E+02 -0.10893496356E+03  0.53615177176E+03  0.56200725371E+03  0.12509000000E+03 0.  0.
         25    1    4    4    0    0 -0.30835798073E+02  0.15536182912E+02  0.26673990537E+03  0.29663092327E+03  0.12509000000E+03 0.  0.
<mgrwt>
<rscale>  2 0.46589611E+03</rscale>
<asrwt>0</asrwt>
<pdfrwt beam="1">  1       21 0.16748906E+00 0.46589611E+03</pdfrwt>
<pdfrwt beam="2">  1       21 0.70067062E-02 0.46589611E+03</pdfrwt>
<totfact> 0.29959241E+04</totfact>
</mgrwt>
</event>
<event>
 7    0  0.4725730E-002  0.4553581E+03  0.7546771E-02  0.1026136E+00
         21   -1    0    0  502  501  0.00000000000E+00  0.00000000000E+00  0.48781718199E+02  0.48781718199E+02  0.00000000000E+00 0.  1.
         21   -1    0    0  501  502 -0.00000000000E+00 -0.00000000000E+00 -0.10626468485E+04  0.10626468485E+04  0.00000000000E+00 0.  1.
      99926    2    1    2    0    0 -0.14210854715E-13 -0.71054273576E-14 -0.10138651303E+04  0.11114285667E+04  0.45535805300E+03 0.  0.
      99925    2    3    3    0    0  0.84452990328E+02  0.55158239956E+02 -0.51060457439E+03  0.58313562311E+03  0.26297411382E+03 0.  0.
         25    1    4    4    0    0  0.16952127852E+02  0.55439668981E+02 -0.28291092317E+03  0.31471738128E+03  0.12509000000E+03 0.  0.
         25    1    4    4    0    0  0.67500862476E+02 -0.28142902494E+00 -0.22769365122E+03  0.26841824182E+03  0.12509000000E+03 0.  0.
         25    1    3    3    0    0 -0.84452990328E+02 -0.55158239956E+02 -0.50326055591E+03  0.52829294359E+03  0.12509000000E+03 0.  0.
<mgrwt>
<rscale>  2 0.45535805E+03</rscale>
<asrwt>0</asrwt>
<pdfrwt beam="1">  1       21 0.71737822E-02 0.45535805E+03</pdfrwt>
<pdfrwt beam="2">  1       21 0.15627159E+00 0.45535805E+03</pdfrwt>
<totfact> 0.34998705E+04</totfact>
</mgrwt>
</event>
<event>
 7    0  0.4725730E-002  0.4539619E+03  0.7546771E-02  0.1026547E+00
         21   -1    0    0  502  501  0.00000000000E+00  0.00000000000E+00  0.27281991769E+03  0.27281991769E+03  0.00000000000E+00 0.  1.
         21   -1    0    0  501  502 -0.00000000000E+00 -0.00000000000E+00 -0.18884379440E+03  0.18884379440E+03  0.00000000000E+00 0.  1.
      99926    2    1    2    0    0  0.35527136788E-14  0.00000000000E+00  0.83976123283E+02  0.46166371209E+03  0.45396188582E+03 0.  0.
      99925    2    3    3    0    0 -0.20196019940E+02  0.10861341391E+03  0.33679479935E+02  0.28735934228E+03  0.26312797519E+03 0.  0.
         25    1    4    4    0    0 -0.39182541116E+02  0.45398264618E+02 -0.10673636880E+02  0.13913198260E+03  0.12509000000E+03 0.  0.
         25    1    3    3    0    0  0.20196019940E+02 -0.10861341391E+03  0.50296643348E+02  0.17430436981E+03  0.12509000000E+03 0.  0.
         25    1    4    4    0    0  0.18986521176E+02  0.63215149290E+02  0.44353116815E+02  0.14822735968E+03  0.12509000000E+03 0.  0.
<mgrwt>
<rscale>  2 0.45396189E+03</rscale>
<asrwt>0</asrwt>
<pdfrwt beam="1">  1       21 0.40120576E-01 0.45396189E+03</pdfrwt>
<pdfrwt beam="2">  1       21 0.27771146E-01 0.45396189E+03</pdfrwt>
<totfact> 0.68623073E+04</totfact>
</mgrwt>
</event>
<event>
 7    0  0.4725730E-002  0.4501811E+03  0.7546771E-02  0.1027668E+00
         21   -1    0    0  502  501  0.00000000000E+00  0.00000000000E+00  0.11041941794E+03  0.11041941794E+03  0.00000000000E+00 0. -1.
         21   -1    0    0  501  502 -0.00000000000E+00 -0.00000000000E+00 -0.45884826167E+03  0.45884826167E+03  0.00000000000E+00 0. -1.
      99926    2    1    2    0    0  0.00000000000E+00  0.00000000000E+00 -0.34842884373E+03  0.56926767962E+03  0.45018111012E+03 0.  0.
      99925    2    3    3    0    0 -0.46998465281E+02  0.96018656746E+02 -0.24388452254E+03  0.37431778509E+03  0.26306977348E+03 0.  0.
         25    1    3    3    0    0  0.46998465281E+02 -0.96018656746E+02 -0.10454432120E+03  0.19494989453E+03  0.12509000000E+03 0.  0.
         25    1    4    4    0    0 -0.52539987658E+02  0.23856799938E+02 -0.13941369277E+03  0.19599306885E+03  0.12509000000E+03 0.  0.
         25    1    4    4    0    0  0.55415223768E+01  0.72161856808E+02 -0.10447082977E+03  0.17832471623E+03  0.12509000000E+03 0.  0.
<mgrwt>
<rscale>  2 0.45018111E+03</rscale>
<asrwt>0</asrwt>
<pdfrwt beam="1">  1       21 0.16238149E-01 0.45018111E+03</pdfrwt>
<pdfrwt beam="2">  1       21 0.67477687E-01 0.45018111E+03</pdfrwt>
<totfact> 0.62976732E+04</totfact>
</mgrwt>
</event>
<event>
 7    0  0.4725730E-002  0.4534655E+03  0.7546771E-02  0.1026694E+00
         21   -1    0    0  502  501  0.00000000000E+00  0.00000000000E+00  0.75391499827E+02  0.75391499827E+02  0.00000000000E+00 0.  1.
         21   -1    0    0  501  502 -0.00000000000E+00 -0.00000000000E+00 -0.68187710407E+03  0.68187710407E+03  0.00000000000E+00 0.  1.
      99926    2    1    2    0    0  0.00000000000E+00  0.00000000000E+00 -0.60648560424E+03  0.75726860390E+03  0.45346548964E+03 0.  0.
      99925    2    3    3    0    0 -0.25354570668E+02  0.87033888472E+02 -0.49173565931E+03  0.56482949676E+03  0.26269878144E+03 0.  0.
         25    1    4    4    0    0 -0.38287724459E+01  0.51682173237E+02 -0.32671203630E+03  0.35365798350E+03  0.12509000000E+03 0.  0.
         25    1    3    3    0    0  0.25354570668E+02 -0.87033888472E+02 -0.11474994493E+03  0.19243910714E+03  0.12509000000E+03 0.  0.
         25    1    4    4    0    0 -0.21525798222E+02  0.35351715235E+02 -0.16502362301E+03  0.21117151326E+03  0.12509000000E+03 0.  0.
<mgrwt>
<rscale>  2 0.45346549E+03</rscale>
<asrwt>0</asrwt>
<pdfrwt beam="1">  1       21 0.11086984E-01 0.45346549E+03</pdfrwt>
<pdfrwt beam="2">  1       21 0.10027605E+00 0.45346549E+03</pdfrwt>
<totfact> 0.50506248E+04</totfact>
</mgrwt>
</event>
<event>
 7    0  0.4725730E-002  0.4538631E+03  0.7546771E-02  0.1026576E+00
         21   -1    0    0  502  501  0.00000000000E+00  0.00000000000E+00  0.12761008630E+03  0.12761008630E+03  0.00000000000E+00 0. -1.
         21   -1    0    0  501  502 -0.00000000000E+00 -0.00000000000E+00 -0.40355688592E+03  0.40355688592E+03  0.00000000000E+00 0. -1.
      99926    2    1    2    0    0  0.00000000000E+00  0.00000000000E+00 -0.27594679962E+03  0.53116697223E+03  0.45386310289E+03 0.  0.
      99925    2    3    3    0    0 -0.65874199675E+02 -0.90686379685E+02 -0.17854973552E+03  0.33700949532E+03  0.26292957658E+03 0.  0.
         25    1    3    3    0    0  0.65874199675E+02  0.90686379685E+02 -0.97397064098E+02  0.19415747690E+03  0.12509000000E+03 0.  0.
         25    1    4    4    0    0  0.66834536262E+01 -0.31008493633E+02 -0.72616961929E+02  0.14807743410E+03  0.12509000000E+03 0.  0.
         25    1    4    4    0    0 -0.72557653301E+02 -0.59677886052E+02 -0.10593277359E+03  0.18893206122E+03  0.12509000000E+03 0.  0.
<mgrwt>
<rscale>  2 0.45386310E+03</rscale>
<asrwt>0</asrwt>
<pdfrwt beam="1">  1       21 0.18766190E-01 0.45386310E+03</pdfrwt>
<pdfrwt beam="2">  1       21 0.59346600E-01 0.45386310E+03</pdfrwt>
<totfact> 0.63699608E+04</totfact>
</mgrwt>
</event>
<event>
 7    0  0.4725730E-002  0.4381913E+03  0.7546771E-02  0.1031303E+00
         21   -1    0    0  502  501  0.00000000000E+00  0.00000000000E+00  0.69082547730E+03  0.69082547730E+03  0.00000000000E+00 0. -1.
         21   -1    0    0  501  502 -0.00000000000E+00 -0.00000000000E+00 -0.69486307990E+02  0.69486307990E+02  0.00000000000E+00 0. -1.
      99926    2    1    2    0    0  0.00000000000E+00  0.00000000000E+00  0.62133916931E+03  0.76031178529E+03  0.43819133667E+03 0.  0.
      99925    2    3    3    0    0 -0.40555198617E+02 -0.81808609953E+02  0.45188995849E+03  0.53075151881E+03  0.26297389099E+03 0.  0.
         25    1    4    4    0    0  0.80069533559E+01 -0.39592721887E+02  0.16272148391E+03  0.20918289690E+03  0.12509000000E+03 0.  0.
         25    1    4    4    0    0 -0.48562151973E+02 -0.42215888067E+02  0.28916847458E+03  0.32156862191E+03  0.12509000000E+03 0.  0.
         25    1    3    3    0    0  0.40555198617E+02  0.81808609953E+02  0.16944921082E+03  0.22956026648E+03  0.12509000000E+03 0.  0.
<mgrwt>
<rscale>  2 0.43819134E+03</rscale>
<asrwt>0</asrwt>
<pdfrwt beam="1">  1       21 0.10159198E+00 0.43819134E+03</pdfrwt>
<pdfrwt beam="2">  1       21 0.10218575E-01 0.43819134E+03</pdfrwt>
<totfact> 0.56888323E+04</totfact>
</mgrwt>
</event>
<event>
 7    0  0.4725730E-002  0.4589943E+03  0.7546771E-02  0.1025073E+00
         21   -1    0    0  502  501  0.00000000000E+00  0.00000000000E+00  0.41211899605E+02  0.41211899605E+02  0.00000000000E+00 0.  1.
         21   -1    0    0  501  502 -0.00000000000E+00 -0.00000000000E+00 -0.12780034626E+04  0.12780034626E+04  0.00000000000E+00 0.  1.
      99926    2    1    2    0    0  0.00000000000E+00  0.00000000000E+00 -0.12367915630E+04  0.13192153622E+04  0.45899433721E+03 0.  0.
      99925    2    3    3    0    0 -0.10368170235E+03 -0.36699644364E+01 -0.93018229715E+03  0.97219934811E+03  0.26300019484E+03 0.  0.
         25    1    4    4    0    0 -0.51617936254E+02  0.13783892026E+02 -0.33545190753E+03  0.36198052073E+03  0.12509000000E+03 0.  0.
         25    1    3    3    0    0  0.10368170235E+03  0.36699644364E+01 -0.30660926588E+03  0.34701601413E+03  0.12509000000E+03 0.  0.
         25    1    4    4    0    0 -0.52063766098E+02 -0.17453856462E+02 -0.59473038962E+03  0.61021882738E+03  0.12509000000E+03 0.  0.
<mgrwt>
<rscale>  2 0.45899434E+03</rscale>
<asrwt>0</asrwt>
<pdfrwt beam="1">  1       21 0.60605732E-02 0.45899434E+03</pdfrwt>
<pdfrwt beam="2">  1       21 0.18794169E+00 0.45899434E+03</pdfrwt>
<totfact> 0.27691570E+04</totfact>
</mgrwt>
</event>
<event>
 7    0  0.4725730E-002  0.4830879E+03  0.7546771E-02  0.1018290E+00
         21   -1    0    0  502  501  0.00000000000E+00  0.00000000000E+00  0.96473864774E+03  0.96473864774E+03  0.00000000000E+00 0. -1.
         21   -1    0    0  501  502 -0.00000000000E+00 -0.00000000000E+00 -0.60475955825E+02  0.60475955825E+02  0.00000000000E+00 0. -1.
      99926    2    1    2    0    0  0.00000000000E+00  0.00000000000E+00  0.90426269191E+03  0.10252146036E+04  0.48308794993E+03 0.  0.
      99925    2    3    3    0    0 -0.11676480339E+03 -0.64567060955E+02  0.62566751615E+03  0.69194938676E+03  0.26368767207E+03 0.  0.
         25    1    4    4    0    0 -0.81197982823E+02  0.14592779040E+01  0.33710360787E+03  0.36862120455E+03  0.12509000000E+03 0.  0.
         25    1    3    3    0    0  0.11676480339E+03  0.64567060955E+02  0.27859517576E+03  0.33326521680E+03  0.12509000000E+03 0.  0.
         25    1    4    4    0    0 -0.35566820567E+02 -0.66026338859E+02  0.28856390828E+03  0.32332818221E+03  0.12509000000E+03 0.  0.
<mgrwt>
<rscale>  2 0.48308795E+03</rscale>
<asrwt>0</asrwt>
<pdfrwt beam="1">  1       21 0.14187332E+00 0.48308795E+03</pdfrwt>
<pdfrwt beam="2">  1       21 0.88935235E-02 0.48308795E+03</pdfrwt>
<totfact> 0.30856885E+04</totfact>
</mgrwt>
</event>
<event>
 7    0  0.4725730E-002  0.4514638E+03  0.7546771E-02  0.1027286E+00
         21   -1    0    0  502  501  0.00000000000E+00  0.00000000000E+00  0.27634352488E+03  0.27634352488E+03  0.00000000000E+00 0. -1.
         21   -1    0    0  501  502 -0.00000000000E+00 -0.00000000000E+00 -0.18438963532E+03  0.18438963532E+03  0.00000000000E+00 0. -1.
      99926    2    1    2    0    0  0.00000000000E+00  0.17763568394E-14  0.91953889561E+02  0.46073316021E+03  0.45146376057E+03 0.  0.
      99925    2    3    3    0    0 -0.97751237659E+02 -0.65653957956E+01  0.75916465889E+01  0.28083623132E+03  0.26308353585E+03 0.  0.
         25    1    4    4    0    0 -0.33104842329E+02  0.33657888559E+02 -0.54784823236E+01  0.13381444584E+03  0.12509000000E+03 0.  0.
         25    1    4    4    0    0 -0.64646395330E+02 -0.40223284354E+02  0.13070128913E+02  0.14702178547E+03  0.12509000000E+03 0.  0.
         25    1    3    3    0    0  0.97751237659E+02  0.65653957956E+01  0.84362242972E+02  0.17989692889E+03  0.12509000000E+03 0.  0.
<mgrwt>
<rscale>  2 0.45146376E+03</rscale>
<asrwt>0</asrwt>
<pdfrwt beam="1">  1       21 0.40638754E-01 0.45146376E+03</pdfrwt>
<pdfrwt beam="2">  1       21 0.27116123E-01 0.45146376E+03</pdfrwt>
<totfact> 0.70077134E+04</totfact>
</mgrwt>
</event>
<event>
 7    0  0.4725730E-002  0.4498707E+03  0.7546771E-02  0.1027761E+00
         21   -1    0    0  502  501  0.00000000000E+00  0.00000000000E+00  0.72367868034E+02  0.72367868034E+02  0.00000000000E+00 0. -1.
         21   -1    0    0  501  502 -0.00000000000E+00 -0.00000000000E+00 -0.69914871159E+03  0.69914871159E+03  0.00000000000E+00 0. -1.
      99926    2    1    2    0    0  0.00000000000E+00  0.35527136788E-14 -0.62678084355E+03  0.77151657962E+03  0.44987065562E+03 0.  0.
      99925    2    3    3    0    0  0.42704570948E+02  0.31602056419E+02 -0.23450828245E+03  0.35636884611E+03  0.26302518812E+03 0.  0.
         25    1    4    4    0    0 -0.12658338542E+02  0.13623138534E+01 -0.13528912286E+03  0.18469635703E+03  0.12509000000E+03 0.  0.
         25    1    4    4    0    0  0.55362909490E+02  0.30239742565E+02 -0.99219159589E+02  0.17167248908E+03  0.12509000000E+03 0.  0.
         25    1    3    3    0    0 -0.42704570948E+02 -0.31602056419E+02 -0.39227256110E+03  0.41514773351E+03  0.12509000000E+03 0.  0.
<mgrwt>
<rscale>  2 0.44987066E+03</rscale>
<asrwt>0</asrwt>
<pdfrwt beam="1">  1       21 0.10642333E-01 0.44987066E+03</pdfrwt>
<pdfrwt beam="2">  1       21 0.10281599E+00 0.44987066E+03</pdfrwt>
<totfact> 0.51204195E+04</totfact>
</mgrwt>
</event>
<event>
 7    0  0.4725730E-002  0.4529851E+03  0.7546771E-02  0.1026836E+00
         21   -1    0    0  502  501  0.00000000000E+00  0.00000000000E+00  0.30650438859E+03  0.30650438859E+03  0.00000000000E+00 0.  1.
         21   -1    0    0  501  502 -0.00000000000E+00 -0.00000000000E+00 -0.16736749607E+03  0.16736749607E+03  0.00000000000E+00 0.  1.
      99926    2    1    2    0    0  0.00000000000E+00  0.00000000000E+00  0.13913689252E+03  0.47387188466E+03  0.45298508608E+03 0.  0.
      99925    2    3    3    0    0  0.51728746251E+02  0.52029061965E+02  0.17528237280E+03  0.32441657254E+03  0.26294356019E+03 0.  0.
         25    1    3    3    0    0 -0.51728746251E+02 -0.52029061965E+02 -0.36145480277E+02  0.14945531212E+03  0.12509000000E+03 0.  0.
         25    1    4    4    0    0  0.24356272344E+02  0.51651550878E+02  0.12815569609E+03  0.18796941573E+03  0.12509000000E+03 0.  0.
         25    1    4    4    0    0  0.27372473907E+02  0.37751108717E+00  0.47126676707E+02  0.13644715680E+03  0.12509000000E+03 0.  0.
<mgrwt>
<rscale>  2 0.45298509E+03</rscale>
<asrwt>0</asrwt>
<pdfrwt beam="1">  1       21 0.45074175E-01 0.45298509E+03</pdfrwt>
<pdfrwt beam="2">  1       21 0.24612867E-01 0.45298509E+03</pdfrwt>
<totfact> 0.68233513E+04</totfact>
</mgrwt>
</event>
<event>
 7    0  0.4725730E-002  0.4722176E+03  0.7546771E-02  0.1021296E+00
         21   -1    0    0  502  501  0.00000000000E+00  0.00000000000E+00  0.33400869479E+02  0.33400869479E+02  0.00000000000E+00 0.  1.
         21   -1    0    0  501  502 -0.00000000000E+00 -0.00000000000E+00 -0.16690394461E+04  0.16690394461E+04  0.00000000000E+00 0.  1.
      99926    2    1    2    0    0  0.00000000000E+00 -0.35527136788E-14 -0.16356385766E+04  0.17024403156E+04  0.47221761379E+03 0.  0.
      99925    2    3    3    0    0  0.81723286074E+02 -0.30421719141E+02 -0.67294068178E+03  0.72774091509E+03  0.26297053413E+03 0.  0.
         25    1    4    4    0    0  0.12461020328E+02 -0.42994053168E+02 -0.29851042673E+03  0.32674110333E+03  0.12509000000E+03 0.  0.
         25    1    4    4    0    0  0.69262265746E+02  0.12572334027E+02 -0.37443025505E+03  0.40099981177E+03  0.12509000000E+03 0.  0.
         25    1    3    3    0    0 -0.81723286074E+02  0.30421719141E+02 -0.96269789483E+03  0.97469940047E+03  0.12509000000E+03 0.  0.
<mgrwt>
<rscale>  2 0.47221761E+03</rscale>
<asrwt>0</asrwt>
<pdfrwt beam="1">  1       21 0.49118938E-02 0.47221761E+03</pdfrwt>
<pdfrwt beam="2">  1       21 0.24544692E+00 0.47221761E+03</pdfrwt>
<totfact> 0.16844258E+04</totfact>
</mgrwt>
</event>
<event>
 7    0  0.4725730E-002  0.4556620E+03  0.7546771E-02  0.1026047E+00
         21   -1    0    0  502  501  0.00000000000E+00  0.00000000000E+00  0.74607434038E+02  0.74607434038E+02  0.00000000000E+00 0. -1.
         21   -1    0    0  501  502 -0.00000000000E+00 -0.00000000000E+00 -0.69573437794E+03  0.69573437794E+03  0.00000000000E+00 0. -1.
      99926    2    1    2    0    0  0.00000000000E+00  0.88817841970E-15 -0.62112694390E+03  0.77034181197E+03  0.45566196554E+03 0.  0.
      99925    2    3    3    0    0  0.49898087998E+02  0.46182167849E+01 -0.21794800949E+03  0.34523957914E+03  0.26301689119E+03 0.  0.
         25    1    4    4    0    0  0.50467836531E+02  0.11591547631E+02 -0.15237685826E+03  0.20383223870E+03  0.12509000000E+03 0.  0.
         25    1    4    4    0    0 -0.56974853289E+00 -0.69733308459E+01 -0.65571151237E+02  0.14140734044E+03  0.12509000000E+03 0.  0.
         25    1    3    3    0    0 -0.49898087998E+02 -0.46182167849E+01 -0.40317893441E+03  0.42510223283E+03  0.12509000000E+03 0.  0.
<mgrwt>
<rscale>  2 0.45566197E+03</rscale>
<asrwt>0</asrwt>
<pdfrwt beam="1">  1       21 0.10971681E-01 0.45566197E+03</pdfrwt>
<pdfrwt beam="2">  1       21 0.10231388E+00 0.45566197E+03</pdfrwt>
<totfact> 0.48977738E+04</totfact>
</mgrwt>
</event>
<event>
 7    0  0.4725730E-002  0.4546695E+03  0.7546771E-02  0.1026339E+00
         21   -1    0    0  502  501  0.00000000000E+00  0.00000000000E+00  0.89834904579E+02  0.89834904579E+02  0.00000000000E+00 0.  1.
         21   -1    0    0  501  502 -0.00000000000E+00 -0.00000000000E+00 -0.57528974862E+03  0.57528974862E+03  0.00000000000E+00 0.  1.
      99926    2    1    2    0    0  0.14210854715E-13  0.00000000000E+00 -0.48545484404E+03  0.66512465320E+03  0.45466954889E+03 0.  0.
      99925    2    3    3    0    0 -0.83593323051E+02  0.57753507411E+02 -0.37743949173E+03  0.47111914887E+03  0.26300070576E+03 0.  0.
         25    1    4    4    0    0 -0.29616851378E+02  0.42849140691E+02 -0.12742731864E+03  0.18600654929E+03  0.12509000000E+03 0.  0.
         25    1    3    3    0    0  0.83593323051E+02 -0.57753507411E+02 -0.10801535231E+03  0.19400550433E+03  0.12509000000E+03 0.  0.
         25    1    4    4    0    0 -0.53976471673E+02  0.14904366720E+02 -0.25001217310E+03  0.28511259958E+03  0.12509000000E+03 0.  0.
<mgrwt>
<rscale>  2 0.45466955E+03</rscale>
<asrwt>0</asrwt>
<pdfrwt beam="1">  1       21 0.13211016E-01 0.45466955E+03</pdfrwt>
<pdfrwt beam="2">  1       21 0.84601430E-01 0.45466955E+03</pdfrwt>
<totfact> 0.54980599E+04</totfact>
</mgrwt>
</event>
<event>
 6    0  0.4725730E-002  0.4617057E+03  0.7546771E-02  0.1024288E+00
         21   -1    0    0  502  501  0.00000000000E+00  0.00000000000E+00  0.15072240296E+04  0.15072240296E+04  0.00000000000E+00 0. -1.
         21   -1    0    0  501  502 -0.00000000000E+00 -0.00000000000E+00 -0.35358399024E+02  0.35358399024E+02  0.00000000000E+00 0. -1.
      99926    2    1    2    0    0  0.00000000000E+00  0.17763568394E-14  0.14718656306E+04  0.15425824286E+04  0.46170565800E+03 0.  0.
         25    1    3    3    0    0 -0.95142836298E+01  0.48205771509E+01  0.59128633916E+03  0.60446737094E+03  0.12509000000E+03 0.  0.
         25    1    3    3    0    0 -0.42394490195E+02  0.12658200519E+02  0.17592577298E+03  0.22035178361E+03  0.12509000000E+03 0.  0.
         25    1    3    3    0    0  0.51908773825E+02 -0.17478777670E+02  0.70465351842E+03  0.71776327406E+03  0.12509000000E+03 0.  0.
<mgrwt>
<rscale>  2 0.46170566E+03</rscale>
<asrwt>0</asrwt>
<pdfrwt beam="1">  1       21 0.22165055E+00 0.46170566E+03</pdfrwt>
<pdfrwt beam="2">  1       21 0.51997656E-02 0.46170566E+03</pdfrwt>
<totfact> 0.21607181E+04</totfact>
</mgrwt>
</event>
<event>
 7    0  0.4725730E-002  0.4538097E+03  0.7546771E-02  0.1026592E+00
         21   -1    0    0  502  501  0.00000000000E+00  0.00000000000E+00  0.46007166399E+03  0.46007166399E+03  0.00000000000E+00 0. -1.
         21   -1    0    0  501  502 -0.00000000000E+00 -0.00000000000E+00 -0.11190823681E+03  0.11190823681E+03  0.00000000000E+00 0. -1.
      99926    2    1    2    0    0 -0.14210854715E-13  0.00000000000E+00  0.34816342718E+03  0.57197990080E+03  0.45380969017E+03 0.  0.
      99925    2    3    3    0    0  0.77028354561E+02 -0.37182483086E+02  0.31016342498E+03  0.41575118154E+03  0.26330930538E+03 0.  0.
         25    1    4    4    0    0  0.27077516655E+02 -0.23397999061E+02  0.21113233069E+03  0.24800207143E+03  0.12509000000E+03 0.  0.
         25    1    3    3    0    0 -0.77028354561E+02  0.37182483086E+02  0.38000002202E+02  0.15622871926E+03  0.12509000000E+03 0.  0.
         25    1    4    4    0    0  0.49950837906E+02 -0.13784484024E+02  0.99031094285E+02  0.16774911011E+03  0.12509000000E+03 0.  0.
<mgrwt>
<rscale>  2 0.45380969E+03</rscale>
<asrwt>0</asrwt>
<pdfrwt beam="1">  1       21 0.67657597E-01 0.45380969E+03</pdfrwt>
<pdfrwt beam="2">  1       21 0.16457094E-01 0.45380969E+03</pdfrwt>
<totfact> 0.61009210E+04</totfact>
</mgrwt>
</event>
<event>
 7    0  0.4725730E-002  0.4325218E+03  0.7546771E-02  0.1033066E+00
         21   -1    0    0  502  501  0.00000000000E+00  0.00000000000E+00  0.13737990406E+04  0.13737990406E+04  0.00000000000E+00 0. -1.
         21   -1    0    0  501  502 -0.00000000000E+00 -0.00000000000E+00 -0.34043395647E+02  0.34043395647E+02  0.00000000000E+00 0. -1.
      99926    2    1    2    0    0  0.00000000000E+00  0.35527136788E-14  0.13397556449E+04  0.14078424362E+04  0.43252183426E+03 0.  0.
      99925    2    3    3    0    0  0.76051299670E+02  0.21662699037E+02  0.10044367468E+04  0.10413191160E+04  0.26305750390E+03 0.  0.
         25    1    4    4    0    0  0.27738069373E+02  0.19959702227E+02  0.34920356232E+03  0.37250292112E+03  0.12509000000E+03 0.  0.
         25    1    4    4    0    0  0.48313230297E+02  0.17029968099E+01  0.65523318444E+03  0.66881619486E+03  0.12509000000E+03 0.  0.
         25    1    3    3    0    0 -0.76051299670E+02 -0.21662699037E+02  0.33531889817E+03  0.36652332024E+03  0.12509000000E+03 0.  0.
<mgrwt>
<rscale>  2 0.43252183E+03</rscale>
<asrwt>0</asrwt>
<pdfrwt beam="1">  1       21 0.20202923E+00 0.43252183E+03</pdfrwt>
<pdfrwt beam="2">  1       21 0.50063826E-02 0.43252183E+03</pdfrwt>
<totfact> 0.31233823E+04</totfact>
</mgrwt>
</event>
<event>
 7    0  0.4725730E-002  0.4535853E+03  0.7546771E-02  0.1026658E+00
         21   -1    0    0  502  501  0.00000000000E+00  0.00000000000E+00  0.11491253753E+04  0.11491253753E+04  0.00000000000E+00 0.  1.
         21   -1    0    0  501  502 -0.00000000000E+00 -0.00000000000E+00 -0.44760050214E+02  0.44760050214E+02  0.00000000000E+00 0.  1.
      99926    2    1    2    0    0 -0.14210854715E-13 -0.35527136788E-14  0.11043653251E+04  0.11938854255E+04  0.45358531502E+03 0.  0.
      99925    2    3    3    0    0 -0.10306404834E+03 -0.30432412996E+02  0.77588202815E+03  0.82632983205E+03  0.26321044795E+03 0.  0.
         25    1    3    3    0    0  0.10306404834E+03  0.30432412996E+02  0.32848329695E+03  0.36755559348E+03  0.12509000000E+03 0.  0.
         25    1    4    4    0    0 -0.45768755825E+02  0.16826289790E+02  0.29917984483E+03  0.32792375744E+03  0.12509000000E+03 0.  0.
         25    1    4    4    0    0 -0.57295292511E+02 -0.47258702785E+02  0.47670218332E+03  0.49840607462E+03  0.12509000000E+03 0.  0.
<mgrwt>
<rscale>  2 0.45358532E+03</rscale>
<asrwt>0</asrwt>
<pdfrwt beam="1">  1       21 0.16898901E+00 0.45358532E+03</pdfrwt>
<pdfrwt beam="2">  1       21 0.65823610E-02 0.45358532E+03</pdfrwt>
<totfact> 0.32709349E+04</totfact>
</mgrwt>
</event>
<event>
 7    0  0.4725730E-002  0.4560042E+03  0.7546771E-02  0.1025947E+00
         21   -1    0    0  502  501  0.00000000000E+00  0.00000000000E+00  0.35636018359E+02  0.35636018359E+02  0.00000000000E+00 0. -1.
         21   -1    0    0  501  502 -0.00000000000E+00 -0.00000000000E+00 -0.14587755292E+04  0.14587755292E+04  0.00000000000E+00 0. -1.
      99926    2    1    2    0    0 -0.71054273576E-14  0.00000000000E+00 -0.14231395108E+04  0.14944115475E+04  0.45600417340E+03 0.  0.
      99925    2    3    3    0    0 -0.49058614114E+02  0.78541467271E+02 -0.67742904931E+03  0.73263263590E+03  0.26318235626E+03 0.  0.
         25    1    4    4    0    0  0.98910935148E+01  0.37758165471E+02 -0.26289495482E+03  0.29374270742E+03  0.12509000000E+03 0.  0.
         25    1    3    3    0    0  0.49058614114E+02 -0.78541467271E+02 -0.74571046152E+03  0.76177891164E+03  0.12509000000E+03 0.  0.
         25    1    4    4    0    0 -0.58949707629E+02  0.40783301799E+02 -0.41453409449E+03  0.43888992849E+03  0.12509000000E+03 0.  0.
<mgrwt>
<rscale>  2 0.45600417E+03</rscale>
<asrwt>0</asrwt>
<pdfrwt beam="1">  1       21 0.52405921E-02 0.45600417E+03</pdfrwt>
<pdfrwt beam="2">  1       21 0.21452576E+00 0.45600417E+03</pdfrwt>
<totfact> 0.23730790E+04</totfact>
</mgrwt>
</event>
<event>
 7    0  0.4725730E-002  0.4835166E+03  0.7546771E-02  0.1018173E+00
         21   -1    0    0  502  501  0.00000000000E+00  0.00000000000E+00  0.17998000346E+03  0.17998000346E+03  0.00000000000E+00 0.  1.
         21   -1    0    0  501  502 -0.00000000000E+00 -0.00000000000E+00 -0.32474199306E+03  0.32474199306E+03  0.00000000000E+00 0.  1.
      99926    2    1    2    0    0  0.00000000000E+00  0.00000000000E+00 -0.14476198960E+03  0.50472199652E+03  0.48351655622E+03 0.  0.
      99925    2    3    3    0    0 -0.28111929344E+02  0.71945092652E+02  0.30645545614E+02  0.27585153438E+03  0.26303715066E+03 0.  0.
         25    1    4    4    0    0 -0.20834640628E+02  0.77526614657E+02  0.20032597433E+02  0.14997756929E+03  0.12509000000E+03 0.  0.
         25    1    3    3    0    0  0.28111929344E+02 -0.71945092652E+02 -0.17540753522E+03  0.22887046214E+03  0.12509000000E+03 0.  0.
         25    1    4    4    0    0 -0.72772887167E+01 -0.55815220050E+01  0.10612948181E+02  0.12587396509E+03  0.12509000000E+03 0.  0.
<mgrwt>
<rscale>  2 0.48351656E+03</rscale>
<asrwt>0</asrwt>
<pdfrwt beam="1">  1       21 0.26467648E-01 0.48351656E+03</pdfrwt>
<pdfrwt beam="2">  1       21 0.47756175E-01 0.48351656E+03</pdfrwt>
<totfact> 0.52107508E+04</totfact>
</mgrwt>
</event>
<event>
 7    0  0.4725730E-002  0.4526923E+03  0.7546771E-02  0.1026922E+00
         21   -1    0    0  502  501  0.00000000000E+00  0.00000000000E+00  0.48528591262E+03  0.48528591262E+03  0.00000000000E+00 0. -1.
         21   -1    0    0  501  502 -0.00000000000E+00 -0.00000000000E+00 -0.10557197026E+03  0.10557197026E+03  0.00000000000E+00 0. -1.
      99926    2    1    2    0    0  0.00000000000E+00  0.00000000000E+00  0.37971394236E+03  0.59085788288E+03  0.45269234557E+03 0.  0.
      99925    2    3    3    0    0 -0.16300490405E+02 -0.22083798671E+02  0.37984912432E+03  0.46279178071E+03  0.26294005951E+03 0.  0.
         25    1    3    3    0    0  0.16300490405E+02  0.22083798671E+02 -0.13518196026E+00  0.12806610217E+03  0.12509000000E+03 0.  0.
         25    1    4    4    0    0 -0.15705136687E+02 -0.84142011959E+01  0.12085098160E+03  0.17484255190E+03  0.12509000000E+03 0.  0.
         25    1    4    4    0    0 -0.59535371788E+00 -0.13669597475E+02  0.25899814272E+03  0.28794922881E+03  0.12509000000E+03 0.  0.
<mgrwt>
<rscale>  2 0.45269235E+03</rscale>
<asrwt>0</asrwt>
<pdfrwt beam="1">  1       21 0.71365575E-01 0.45269235E+03</pdfrwt>
<pdfrwt beam="2">  1       21 0.15525290E-01 0.45269235E+03</pdfrwt>
<totfact> 0.60337471E+04</totfact>
</mgrwt>
</event>
<event>
 7    0  0.4725730E-002  0.4542262E+03  0.7546771E-02  0.1026469E+00
         21   -1    0    0  502  501  0.00000000000E+00  0.00000000000E+00  0.47489921257E+02  0.47489921257E+02  0.00000000000E+00 0. -1.
         21   -1    0    0  501  502 -0.00000000000E+00 -0.00000000000E+00 -0.10861329956E+04  0.10861329956E+04  0.00000000000E+00 0. -1.
      99926    2    1    2    0    0 -0.14210854715E-13 -0.88817841970E-15 -0.10386430743E+04  0.11336229168E+04  0.45422624510E+03 0.  0.
      99925    2    3    3    0    0  0.10990562876E+03  0.77307828119E+01 -0.71186387024E+03  0.76678348527E+03  0.26280740340E+03 0.  0.
         25    1    4    4    0    0  0.80725039508E+02  0.11247187519E+02 -0.46650256772E+03  0.48981137698E+03  0.12509000000E+03 0.  0.
         25    1    3    3    0    0 -0.10990562876E+03 -0.77307828119E+01 -0.32677920408E+03  0.36683943157E+03  0.12509000000E+03 0.  0.
         25    1    4    4    0    0  0.29180589255E+02 -0.35164047068E+01 -0.24536130252E+03  0.27697210828E+03  0.12509000000E+03 0.  0.
<mgrwt>
<rscale>  2 0.45422625E+03</rscale>
<asrwt>0</asrwt>
<pdfrwt beam="1">  1       21 0.69838122E-02 0.45422625E+03</pdfrwt>
<pdfrwt beam="2">  1       21 0.15972543E+00 0.45422625E+03</pdfrwt>
<totfact> 0.34541761E+04</totfact>
</mgrwt>
</event>
<event>
 7    0  0.4725730E-002  0.4567047E+03  0.7546771E-02  0.1025741E+00
         21   -1    0    0  502  501  0.00000000000E+00  0.00000000000E+00  0.54579409751E+03  0.54579409751E+03  0.00000000000E+00 0. -1.
         21   -1    0    0  501  502 -0.00000000000E+00 -0.00000000000E+00 -0.95539313567E+02  0.95539313567E+02  0.00000000000E+00 0. -1.
      99926    2    1    2    0    0  0.00000000000E+00  0.00000000000E+00  0.45025478394E+03  0.64133341107E+03  0.45670468982E+03 0.  0.
      99925    2    3    3    0    0 -0.59941123560E+02 -0.60621953409E+02  0.39089572336E+03  0.47873277853E+03  0.26290235293E+03 0.  0.
         25    1    4    4    0    0 -0.31028148394E+02 -0.28258127427E+01  0.23946905093E+03  0.27196261814E+03  0.12509000000E+03 0.  0.
         25    1    3    3    0    0  0.59941123560E+02  0.60621953409E+02  0.59359060583E+02  0.16260063254E+03  0.12509000000E+03 0.  0.
         25    1    4    4    0    0 -0.28912975166E+02 -0.57796140667E+02  0.15142667242E+03  0.20677016040E+03  0.12509000000E+03 0.  0.
<mgrwt>
<rscale>  2 0.45670469E+03</rscale>
<asrwt>0</asrwt>
<pdfrwt beam="1">  1       21 0.80263836E-01 0.45670469E+03</pdfrwt>
<pdfrwt beam="2">  1       21 0.14049899E-01 0.45670469E+03</pdfrwt>
<totfact> 0.55453801E+04</totfact>
</mgrwt>
</event>
<event>
 7    0  0.4725730E-002  0.4549028E+03  0.7546771E-02  0.1026270E+00
         21   -1    0    0  502  501  0.00000000000E+00  0.00000000000E+00  0.62760226131E+02  0.62760226131E+02  0.00000000000E+00 0.  1.
         21   -1    0    0  501  502 -0.00000000000E+00 -0.00000000000E+00 -0.82431413790E+03  0.82431413790E+03  0.00000000000E+00 0.  1.
      99926    2    1    2    0    0  0.00000000000E+00  0.00000000000E+00 -0.76155391177E+03  0.88707436403E+03  0.45490281027E+03 0.  0.
      99925    2    3    3    0    0 -0.45046823055E+02 -0.85772503309E+02 -0.59288742209E+03  0.65581253961E+03  0.26303698077E+03 0.  0.
         25    1    3    3    0    0  0.45046823055E+02  0.85772503309E+02 -0.16866648968E+03  0.23126182441E+03  0.12509000000E+03 0.  0.
         25    1    4    4    0    0 -0.26560848094E+02 -0.11680391203E+01 -0.28555823680E+03  0.31288633346E+03  0.12509000000E+03 0.  0.
         25    1    4    4    0    0 -0.18485974961E+02 -0.84604464189E+02 -0.30732918529E+03  0.34292620615E+03  0.12509000000E+03 0.  0.
<mgrwt>
<rscale>  2 0.45490281E+03</rscale>
<asrwt>0</asrwt>
<pdfrwt beam="1">  1       21 0.92294452E-02 0.45490281E+03</pdfrwt>
<pdfrwt beam="2">  1       21 0.12122267E+00 0.45490281E+03</pdfrwt>
<totfact> 0.43830627E+04</totfact>
</mgrwt>
</event>
<event>
 7    0  0.4725730E-002  0.4557890E+03  0.7546771E-02  0.1026010E+00
         21   -1    0    0  502  501  0.00000000000E+00  0.00000000000E+00  0.12171285983E+04  0.12171285983E+04  0.00000000000E+00 0.  1.
         21   -1    0    0  501  502 -0.00000000000E+00 -0.00000000000E+00 -0.42670835873E+02  0.42670835873E+02  0.00000000000E+00 0.  1.
      99926    2    1    2    0    0  0.00000000000E+00  0.71054273576E-14  0.11744577624E+04  0.12597994341E+04  0.45578896280E+03 0.  0.
      99925    2    3    3    0    0  0.19610110718E+02 -0.41357045833E+02  0.45040126968E+03  0.52359275499E+03  0.26304582808E+03 0.  0.
         25    1    4    4    0    0 -0.24944065265E+02 -0.30354869787E+02  0.18669705441E+03  0.22813794673E+03  0.12509000000E+03 0.  0.
         25    1    3    3    0    0 -0.19610110718E+02  0.41357045833E+02  0.72405649271E+03  0.73620667915E+03  0.12509000000E+03 0.  0.
         25    1    4    4    0    0  0.44554175983E+02 -0.11002176046E+02  0.26370421527E+03  0.29545480826E+03  0.12509000000E+03 0.  0.
<mgrwt>
<rscale>  2 0.45578896E+03</rscale>
<asrwt>0</asrwt>
<pdfrwt beam="1">  1       21 0.17898948E+00 0.45578896E+03</pdfrwt>
<pdfrwt beam="2">  1       21 0.62751237E-02 0.45578896E+03</pdfrwt>
<totfact> 0.30119517E+04</totfact>
</mgrwt>
</event>
<event>
 7    0  0.4725730E-002  0.4574650E+03  0.7546771E-02  0.1025519E+00
         21   -1    0    0  502  501  0.00000000000E+00  0.00000000000E+00  0.13169971582E+03  0.13169971582E+03  0.00000000000E+00 0. -1.
         21   -1    0    0  501  502 -0.00000000000E+00 -0.00000000000E+00 -0.39725644570E+03  0.39725644570E+03  0.00000000000E+00 0. -1.
      99926    2    1    2    0    0  0.16653345369E-15  0.71054273576E-14 -0.26555672987E+03  0.52895616152E+03  0.45746501946E+03 0.  0.
      99925    2    3    3    0    0 -0.33669957514E+00  0.63128323181E+02 -0.55038355849E+02  0.27607122236E+03  0.26306045055E+03 0.  0.
         25    1    4    4    0    0  0.81445196921E+01  0.39170311973E+02 -0.67779655989E+02  0.14779119191E+03  0.12509000000E+03 0.  0.
         25    1    4    4    0    0 -0.84812192672E+01  0.23958011208E+02  0.12741300141E+02  0.12828003044E+03  0.12509000000E+03 0.  0.
         25    1    3    3    0    0  0.33669957514E+00 -0.63128323181E+02 -0.21051837402E+03  0.25288493916E+03  0.12509000000E+03 0.  0.
<mgrwt>
<rscale>  2 0.45746502E+03</rscale>
<asrwt>0</asrwt>
<pdfrwt beam="1">  1       21 0.19367605E-01 0.45746502E+03</pdfrwt>
<pdfrwt beam="2">  1       21 0.58420066E-01 0.45746502E+03</pdfrwt>
<totfact> 0.62055837E+04</totfact>
</mgrwt>
</event>
<event>
 7    0  0.4725730E-002  0.4557439E+03  0.7546771E-02  0.1026023E+00
         21   -1    0    0  502  501  0.00000000000E+00  0.00000000000E+00  0.25487336889E+03  0.25487336889E+03  0.00000000000E+00 0.  1.
         21   -1    0    0  501  502 -0.00000000000E+00 -0.00000000000E+00 -0.20373106420E+03  0.20373106420E+03  0.00000000000E+00 0.  1.
      99926    2    1    2    0    0  0.00000000000E+00  0.00000000000E+00  0.51142304693E+02  0.45860443309E+03  0.45574388720E+03 0.  0.
      99925    2    3    3    0    0  0.96168946259E+02  0.20045856322E+02  0.90116529506E+02  0.29484607184E+03  0.26298843056E+03 0.  0.
         25    1    3    3    0    0 -0.96168946259E+02 -0.20045856322E+02 -0.38974224812E+02  0.16375836125E+03  0.12509000000E+03 0.  0.
         25    1    4    4    0    0  0.38765770258E+02  0.14766210969E+02  0.29001001653E+01  0.13182088079E+03  0.12509000000E+03 0.  0.
         25    1    4    4    0    0  0.57403176001E+02  0.52796453530E+01  0.87216429340E+02  0.16302519105E+03  0.12509000000E+03 0.  0.
<mgrwt>
<rscale>  2 0.45574389E+03</rscale>
<asrwt>0</asrwt>
<pdfrwt beam="1">  1       21 0.37481378E-01 0.45574389E+03</pdfrwt>
<pdfrwt beam="2">  1       21 0.29960451E-01 0.45574389E+03</pdfrwt>
<totfact> 0.67878710E+04</totfact>
</mgrwt>
</event>
<event>
 7    0  0.4725730E-002  0.4504611E+03  0.7546771E-02  0.1027585E+00
         21   -1    0    0  502  501  0.00000000000E+00  0.00000000000E+00  0.97032172277E+03  0.97032172277E+03  0.00000000000E+00 0.  1.
         21   -1    0    0  501  502 -0.00000000000E+00 -0.00000000000E+00 -0.52280391869E+02  0.52280391869E+02  0.00000000000E+00 0.  1.
      99926    2    1    2    0    0  0.00000000000E+00  0.00000000000E+00  0.91804133090E+03  0.10226021146E+04  0.45046109668E+03 0.  0.
      99925    2    3    3    0    0  0.14462980464E+02 -0.97749701541E+02  0.47620314494E+03  0.55288659155E+03  0.26296381103E+03 0.  0.
         25    1    3    3    0    0 -0.14462980464E+02  0.97749701541E+02  0.44183818597E+03  0.46971552309E+03  0.12509000000E+03 0.  0.
         25    1    4    4    0    0  0.61499115323E+01 -0.85498257011E+02  0.21746556747E+03  0.26511611513E+03  0.12509000000E+03 0.  0.
         25    1    4    4    0    0  0.83130689319E+01 -0.12251444530E+02  0.25873757746E+03  0.28777047642E+03  0.12509000000E+03 0.  0.
<mgrwt>
<rscale>  2 0.45046110E+03</rscale>
<asrwt>0</asrwt>
<pdfrwt beam="1">  1       21 0.14269436E+00 0.45046110E+03</pdfrwt>
<pdfrwt beam="2">  1       21 0.76882935E-02 0.45046110E+03</pdfrwt>
<totfact> 0.39686900E+04</totfact>
</mgrwt>
</event>
<event>
 7    0  0.4725730E-002  0.4609908E+03  0.7546771E-02  0.1024494E+00
         21   -1    0    0  502  501  0.00000000000E+00  0.00000000000E+00  0.12380488877E+03  0.12380488877E+03  0.00000000000E+00 0. -1.
         21   -1    0    0  501  502 -0.00000000000E+00 -0.00000000000E+00 -0.42912782548E+03  0.42912782548E+03  0.00000000000E+00 0. -1.
      99926    2    1    2    0    0  0.00000000000E+00  0.00000000000E+00 -0.30532293671E+03  0.55293271425E+03  0.46099077085E+03 0.  0.
      99925    2    3    3    0    0  0.37815868808E+02 -0.10003890497E+03 -0.25257163407E+03  0.38010901659E+03  0.26315890963E+03 0.  0.
         25    1    4    4    0    0  0.37020393963E+02 -0.17554088391E+02 -0.14382805117E+03  0.19496838716E+03  0.12509000000E+03 0.  0.
         25    1    3    3    0    0 -0.37815868808E+02  0.10003890497E+03 -0.52751302643E+02  0.17282369766E+03  0.12509000000E+03 0.  0.
         25    1    4    4    0    0  0.79547484566E+00 -0.82484816577E+02 -0.10874358290E+03  0.18514062943E+03  0.12509000000E+03 0.  0.
<mgrwt>
<rscale>  2 0.46099077E+03</rscale>
<asrwt>0</asrwt>
<pdfrwt beam="1">  1       21 0.18206601E-01 0.46099077E+03</pdfrwt>
<pdfrwt beam="2">  1       21 0.63107033E-01 0.46099077E+03</pdfrwt>
<totfact> 0.58834648E+04</totfact>
</mgrwt>
</event>
<event>
 7    0  0.4725730E-002  0.4407192E+03  0.7546771E-02  0.1030526E+00
         21   -1    0    0  502  501  0.00000000000E+00  0.00000000000E+00  0.37547754472E+02  0.37547754472E+02  0.00000000000E+00 0. -1.
         21   -1    0    0  501  502 -0.00000000000E+00 -0.00000000000E+00 -0.12932426859E+04  0.12932426859E+04  0.00000000000E+00 0. -1.
      99926    2    1    2    0    0  0.17763568394E-14  0.00000000000E+00 -0.12556949315E+04  0.13307904404E+04  0.44071922510E+03 0.  0.
      99925    2    3    3    0    0 -0.13689372026E+02 -0.86857448845E+02 -0.66149405693E+03  0.71723212801E+03  0.26289907333E+03 0.  0.
         25    1    4    4    0    0  0.11947983833E+02 -0.49625170082E+02 -0.42430770036E+03  0.44529759095E+03  0.12509000000E+03 0.  0.
         25    1    4    4    0    0 -0.25637355859E+02 -0.37232278763E+02 -0.23718635658E+03  0.27193453706E+03  0.12509000000E+03 0.  0.
         25    1    3    3    0    0  0.13689372026E+02  0.86857448845E+02 -0.59420087452E+03  0.61355831240E+03  0.12509000000E+03 0.  0.
<mgrwt>
<rscale>  2 0.44071923E+03</rscale>
<asrwt>0</asrwt>
<pdfrwt beam="1">  1       21 0.55217288E-02 0.44071923E+03</pdfrwt>
<pdfrwt beam="2">  1       21 0.19018274E+00 0.44071923E+03</pdfrwt>
<totfact> 0.31599292E+04</totfact>
</mgrwt>
</event>
<event>
 7    0  0.4725730E-002  0.4614289E+03  0.7546771E-02  0.1024368E+00
         21   -1    0    0  502  501  0.00000000000E+00  0.00000000000E+00  0.25010015285E+03  0.25010015285E+03  0.00000000000E+00 0. -1.
         21   -1    0    0  501  502 -0.00000000000E+00 -0.00000000000E+00 -0.21283133595E+03  0.21283133595E+03  0.00000000000E+00 0. -1.
      99926    2    1    2    0    0 -0.35527136788E-14  0.27200464103E-14  0.37268816902E+02  0.46293148880E+03  0.46142886625E+03 0.  0.
      99925    2    3    3    0    0 -0.27427973562E+02 -0.23111629377E+00  0.13960337018E+03  0.29900401690E+03  0.26298660424E+03 0.  0.
         25    1    3    3    0    0  0.27427973562E+02  0.23111629377E+00 -0.10233455328E+03  0.16392747190E+03  0.12509000000E+03 0.  0.
         25    1    4    4    0    0 -0.39455729552E+02 -0.29470475697E+02  0.58536659266E+02  0.14662643728E+03  0.12509000000E+03 0.  0.
         25    1    4    4    0    0  0.12027755990E+02  0.29239359403E+02  0.81066710915E+02  0.15237757962E+03  0.12509000000E+03 0.  0.
<mgrwt>
<rscale>  2 0.46142887E+03</rscale>
<asrwt>0</asrwt>
<pdfrwt beam="1">  1       21 0.36779434E-01 0.46142887E+03</pdfrwt>
<pdfrwt beam="2">  1       21 0.31298726E-01 0.46142887E+03</pdfrwt>
<totfact> 0.64591354E+04</totfact>
</mgrwt>
</event>
<event>
 7    0  0.4725730E-002  0.4618470E+03  0.7546771E-02  0.1024247E+00
         21   -1    0    0  502  501  0.00000000000E+00  0.00000000000E+00  0.16979571534E+03  0.16979571534E+03  0.00000000000E+00 0. -1.
         21   -1    0    0  501  502 -0.00000000000E+00 -0.00000000000E+00 -0.31405779892E+03  0.31405779892E+03  0.00000000000E+00 0. -1.
      99926    2    1    2    0    0  0.00000000000E+00  0.35527136788E-14 -0.14426208358E+03  0.48385351426E+03  0.46184702501E+03 0.  0.
      99925    2    3    3    0    0  0.11511270543E+03 -0.24007368212E+02 -0.11228731563E+03  0.30921908878E+03  0.26302227079E+03 0.  0.
         25    1    3    3    0    0 -0.11511270543E+03  0.24007368212E+02 -0.31974767951E+02  0.17463442549E+03  0.12509000000E+03 0.  0.
         25    1    4    4    0    0  0.87258209964E+02 -0.36038461090E+02 -0.82475805148E+02  0.17709469901E+03  0.12509000000E+03 0.  0.
         25    1    4    4    0    0  0.27854495464E+02  0.12031092879E+02 -0.29811510483E+02  0.13212438976E+03  0.12509000000E+03 0.  0.
<mgrwt>
<rscale>  2 0.46184703E+03</rscale>
<asrwt>0</asrwt>
<pdfrwt beam="1">  1       21 0.24969958E-01 0.46184703E+03</pdfrwt>
<pdfrwt beam="2">  1       21 0.46184970E-01 0.46184703E+03</pdfrwt>
<totfact> 0.62930366E+04</totfact>
</mgrwt>
</event>
<event>
 7    0  0.4725730E-002  0.4547866E+03  0.7546771E-02  0.1026304E+00
         21   -1    0    0  502  501  0.00000000000E+00  0.00000000000E+00  0.55190784652E+03  0.55190784652E+03  0.00000000000E+00 0. -1.
         21   -1    0    0  501  502 -0.00000000000E+00 -0.00000000000E+00 -0.93689017874E+02  0.93689017874E+02  0.00000000000E+00 0. -1.
      99926    2    1    2    0    0  0.17763568394E-14 -0.14210854715E-13  0.45821882865E+03  0.64559686440E+03  0.45478656136E+03 0.  0.
      99925    2    3    3    0    0 -0.49735399893E+01  0.90922427580E+02  0.38330130585E+03  0.47369058976E+03  0.26300429621E+03 0.  0.
         25    1    4    4    0    0  0.99691473004E+01  0.48545970576E+02  0.25823525870E+03  0.29118559733E+03  0.12509000000E+03 0.  0.
         25    1    4    4    0    0 -0.14942687290E+02  0.42376457005E+02  0.12506604715E+03  0.18250499243E+03  0.12509000000E+03 0.  0.
         25    1    3    3    0    0  0.49735399893E+01 -0.90922427580E+02  0.74917522795E+02  0.17190627464E+03  0.12509000000E+03 0.  0.
<mgrwt>
<rscale>  2 0.45478656E+03</rscale>
<asrwt>0</asrwt>
<pdfrwt beam="1">  1       21 0.81162917E-01 0.45478656E+03</pdfrwt>
<pdfrwt beam="2">  1       21 0.13777797E-01 0.45478656E+03</pdfrwt>
<totfact> 0.56050200E+04</totfact>
</mgrwt>
</event>
<event>
 7    0  0.4725730E-002  0.4544364E+03  0.7546771E-02  0.1026407E+00
         21   -1    0    0  502  501  0.00000000000E+00  0.00000000000E+00  0.92853257673E+02  0.92853257673E+02  0.00000000000E+00 0. -1.
         21   -1    0    0  501  502 -0.00000000000E+00 -0.00000000000E+00 -0.55601841456E+03  0.55601841456E+03  0.00000000000E+00 0. -1.
      99926    2    1    2    0    0  0.00000000000E+00  0.00000000000E+00 -0.46316515689E+03  0.64887167223E+03  0.45443644712E+03 0.  0.
      99925    2    3    3    0    0 -0.33776587416E+02  0.84334476877E+02 -0.19639881526E+03  0.34054562570E+03  0.26295563637E+03 0.  0.
         25    1    3    3    0    0  0.33776587416E+02 -0.84334476877E+02 -0.26676634162E+03  0.30832604653E+03  0.12509000000E+03 0.  0.
         25    1    4    4    0    0 -0.55259773777E+02  0.56728165872E+02 -0.97175627124E+02  0.17709415012E+03  0.12509000000E+03 0.  0.
         25    1    4    4    0    0  0.21483186360E+02  0.27606311005E+02 -0.99223188141E+02  0.16345147558E+03  0.12509000000E+03 0.  0.
<mgrwt>
<rscale>  2 0.45443645E+03</rscale>
<asrwt>0</asrwt>
<pdfrwt beam="1">  1       21 0.13654890E-01 0.45443645E+03</pdfrwt>
<pdfrwt beam="2">  1       21 0.81767418E-01 0.45443645E+03</pdfrwt>
<totfact> 0.56015166E+04</totfact>
</mgrwt>
</event>
<event>
 7    0  0.4725730E-002  0.4549260E+03  0.7546771E-02  0.1026263E+00
         21   -1    0    0  502  501  0.00000000000E+00  0.00000000000E+00  0.22752597756E+03  0.22752597756E+03  0.00000000000E+00 0.  1.
         21   -1    0    0  501  502 -0.00000000000E+00 -0.00000000000E+00 -0.22740001358E+03  0.22740001358E+03  0.00000000000E+00 0.  1.
      99926    2    1    2    0    0 -0.35527136788E-14  0.14210854715E-13  0.12596397590E+00  0.45492599114E+03  0.45492597370E+03 0.  0.
      99925    2    3    3    0    0 -0.23704238931E+02  0.10330781152E+03 -0.39273925211E+02  0.28630139557E+03  0.26304306309E+03 0.  0.
         25    1    4    4    0    0 -0.79099791646E+01  0.82139240362E+01 -0.20390922783E+02  0.12725303199E+03  0.12509000000E+03 0.  0.
         25    1    4    4    0    0 -0.15794259766E+02  0.95093887480E+02 -0.18883002428E+02  0.15904836358E+03  0.12509000000E+03 0.  0.
         25    1    3    3    0    0  0.23704238931E+02 -0.10330781152E+03  0.39399889187E+02  0.16862459557E+03  0.12509000000E+03 0.  0.
<mgrwt>
<rscale>  2 0.45492597E+03</rscale>
<asrwt>0</asrwt>
<pdfrwt beam="1">  1       21 0.33459703E-01 0.45492597E+03</pdfrwt>
<pdfrwt beam="2">  1       21 0.33441178E-01 0.45492597E+03</pdfrwt>
<totfact> 0.68591716E+04</totfact>
</mgrwt>
</event>
<event>
 7    0  0.4725730E-002  0.4560612E+03  0.7546771E-02  0.1025930E+00
         21   -1    0    0  502  501  0.00000000000E+00  0.00000000000E+00  0.21836591428E+03  0.21836591428E+03  0.00000000000E+00 0. -1.
         21   -1    0    0  501  502 -0.00000000000E+00 -0.00000000000E+00 -0.23812301147E+03  0.23812301147E+03  0.00000000000E+00 0. -1.
      99926    2    1    2    0    0  0.00000000000E+00  0.00000000000E+00 -0.19757097189E+02  0.45648892576E+03  0.45606117621E+03 0.  0.
      99925    2    3    3    0    0 -0.97933552213E+02 -0.23965108532E+02  0.40627357779E+02  0.28485239824E+03  0.26329640998E+03 0.  0.
         25    1    4    4    0    0 -0.18139982783E+02 -0.24615283869E+02 -0.71614262949E+01  0.12897195549E+03  0.12509000000E+03 0.  0.
         25    1    4    4    0    0 -0.79793569430E+02  0.65017533686E+00  0.47788784074E+02  0.15588044276E+03  0.12509000000E+03 0.  0.
         25    1    3    3    0    0  0.97933552213E+02  0.23965108532E+02 -0.60384454969E+02  0.17163652752E+03  0.12509000000E+03 0.  0.
<mgrwt>
<rscale>  2 0.45606118E+03</rscale>
<asrwt>0</asrwt>
<pdfrwt beam="1">  1       21 0.32112635E-01 0.45606118E+03</pdfrwt>
<pdfrwt beam="2">  1       21 0.35018090E-01 0.45606118E+03</pdfrwt>
<totfact> 0.67860477E+04</totfact>
</mgrwt>
</event>
<event>
 7    0  0.4725730E-002  0.4617365E+03  0.7546771E-02  0.1024279E+00
         21   -1    0    0  502  501  0.00000000000E+00  0.00000000000E+00  0.17946120133E+03  0.17946120133E+03  0.00000000000E+00 0.  1.
         21   -1    0    0  501  502 -0.00000000000E+00 -0.00000000000E+00 -0.29700098187E+03  0.29700098187E+03  0.00000000000E+00 0.  1.
      99926    2    1    2    0    0  0.00000000000E+00 -0.17763568394E-14 -0.11753978054E+03  0.47646218320E+03  0.46173651795E+03 0.  0.
      99925    2    3    3    0    0  0.79855008613E+02  0.68217144171E+01  0.17706514314E+02  0.27555815995E+03  0.26305022463E+03 0.  0.
         25    1    4    4    0    0  0.29044110084E+02  0.24520104426E+02 -0.24464499254E+02  0.13300682567E+03  0.12509000000E+03 0.  0.
         25    1    3    3    0    0 -0.79855008613E+02 -0.68217144171E+01 -0.13524629485E+03  0.20090402325E+03  0.12509000000E+03 0.  0.
         25    1    4    4    0    0  0.50810898530E+02 -0.17698390009E+02  0.42171013568E+02  0.14255133428E+03  0.12509000000E+03 0.  0.
<mgrwt>
<rscale>  2 0.46173652E+03</rscale>
<asrwt>0</asrwt>
<pdfrwt beam="1">  1       21 0.26391353E-01 0.46173652E+03</pdfrwt>
<pdfrwt beam="2">  1       21 0.43676615E-01 0.46173652E+03</pdfrwt>
<totfact> 0.63496141E+04</totfact>
</mgrwt>
</event>
<event>
 7    0  0.4725730E-002  0.4509540E+03  0.7546771E-02  0.1027438E+00
         21   -1    0    0  502  501  0.00000000000E+00  0.00000000000E+00  0.12729248522E+04  0.12729248522E+04  0.00000000000E+00 0.  1.
         21   -1    0    0  501  502 -0.00000000000E+00 -0.00000000000E+00 -0.39939414432E+02  0.39939414432E+02  0.00000000000E+00 0.  1.
      99926    2    1    2    0    0  0.00000000000E+00  0.00000000000E+00  0.12329854378E+04  0.13128642666E+04  0.45095398086E+03 0.  0.
      99925    2    3    3    0    0 -0.66177769747E+02  0.85063878634E+02  0.72525099118E+03  0.77895684300E+03  0.26300076501E+03 0.  0.
         25    1    3    3    0    0  0.66177769747E+02 -0.85063878634E+02  0.50773444658E+03  0.53390742362E+03  0.12509000000E+03 0.  0.
         25    1    4    4    0    0 -0.52838034012E+02  0.65579976119E+02  0.47213229716E+03  0.49562990752E+03  0.12509000000E+03 0.  0.
         25    1    4    4    0    0 -0.13339735734E+02  0.19483902515E+02  0.25311869401E+03  0.28332693547E+03  0.12509000000E+03 0.  0.
<mgrwt>
<rscale>  2 0.45095398E+03</rscale>
<asrwt>0</asrwt>
<pdfrwt beam="1">  1       21 0.18719480E+00 0.45095398E+03</pdfrwt>
<pdfrwt beam="2">  1       21 0.58734441E-02 0.45095398E+03</pdfrwt>
<totfact> 0.29665830E+04</totfact>
</mgrwt>
</event>
<event>
 7    0  0.4725730E-002  0.4477633E+03  0.7546771E-02  0.1028391E+00
         21   -1    0    0  502  501  0.00000000000E+00  0.00000000000E+00  0.76055602188E+03  0.76055602188E+03  0.00000000000E+00 0.  1.
         21   -1    0    0  501  502 -0.00000000000E+00 -0.00000000000E+00 -0.65903102541E+02  0.65903102541E+02  0.00000000000E+00 0.  1.
      99926    2    1    2    0    0  0.00000000000E+00  0.00000000000E+00  0.69465291934E+03  0.82645912442E+03  0.44776333703E+03 0.  0.
      99925    2    3    3    0    0 -0.94656852032E+02 -0.45693516355E+02  0.46578872709E+03  0.54525787324E+03  0.26324739879E+03 0.  0.
         25    1    4    4    0    0 -0.75806959135E+02 -0.51939741986E+02  0.22759959602E+03  0.27548777842E+03  0.12509000000E+03 0.  0.
         25    1    4    4    0    0 -0.18849892897E+02  0.62462256319E+01  0.23818913108E+03  0.26977009482E+03  0.12509000000E+03 0.  0.
         25    1    3    3    0    0  0.94656852032E+02  0.45693516355E+02  0.22886419224E+03  0.28120125118E+03  0.12509000000E+03 0.  0.
<mgrwt>
<rscale>  2 0.44776334E+03</rscale>
<asrwt>0</asrwt>
<pdfrwt beam="1">  1       21 0.11184647E+00 0.44776334E+03</pdfrwt>
<pdfrwt beam="2">  1       21 0.96916332E-02 0.44776334E+03</pdfrwt>
<totfact> 0.49248899E+04</totfact>
</mgrwt>
</event>
<event>
 7    0  0.4725730E-002  0.4556001E+03  0.7546771E-02  0.1026065E+00
         21   -1    0    0  502  501  0.00000000000E+00  0.00000000000E+00  0.16459368010E+03  0.16459368010E+03  0.00000000000E+00 0. -1.
         21   -1    0    0  501  502 -0.00000000000E+00 -0.00000000000E+00 -0.31527860976E+03  0.31527860976E+03  0.00000000000E+00 0. -1.
      99926    2    1    2    0    0  0.00000000000E+00  0.00000000000E+00 -0.15068492966E+03  0.47987228986E+03  0.45560011693E+03 0.  0.
      99925    2    3    3    0    0  0.10377117639E+03  0.23912370857E+02 -0.52780185716E+02  0.28863132794E+03  0.26302478388E+03 0.  0.
         25    1    3    3    0    0 -0.10377117639E+03 -0.23912370857E+02 -0.97904743939E+02  0.19124096192E+03  0.12509000000E+03 0.  0.
         25    1    4    4    0    0  0.58778686234E+02  0.52398047803E+02 -0.27184241355E+02  0.15028965516E+03  0.12509000000E+03 0.  0.
         25    1    4    4    0    0  0.44992490155E+02 -0.28485676946E+02 -0.25595944361E+02  0.13834167279E+03  0.12509000000E+03 0.  0.
<mgrwt>
<rscale>  2 0.45560012E+03</rscale>
<asrwt>0</asrwt>
<pdfrwt beam="1">  1       21 0.24204953E-01 0.45560012E+03</pdfrwt>
<pdfrwt beam="2">  1       21 0.46364500E-01 0.45560012E+03</pdfrwt>
<totfact> 0.66392581E+04</totfact>
</mgrwt>
</event>
<event>
 7    0  0.4725730E-002  0.4457771E+03  0.7546771E-02  0.1028989E+00
         21   -1    0    0  502  501  0.00000000000E+00  0.00000000000E+00  0.67661601367E+03  0.67661601367E+03  0.00000000000E+00 0. -1.
         21   -1    0    0  501  502 -0.00000000000E+00 -0.00000000000E+00 -0.73423204109E+02  0.73423204109E+02  0.00000000000E+00 0. -1.
      99926    2    1    2    0    0 -0.71054273576E-14  0.88817841970E-15  0.60319280956E+03  0.75003921778E+03  0.44577714466E+03 0.  0.
      99925    2    3    3    0    0  0.43335870981E+02 -0.10766794852E+01  0.22327110176E+03  0.34771202617E+03  0.26301047756E+03 0.  0.
         25    1    3    3    0    0 -0.43335870981E+02  0.10766794852E+01  0.37992170780E+03  0.40232719161E+03  0.12509000000E+03 0.  0.
         25    1    4    4    0    0  0.36939185247E+02  0.77677568023E+01  0.16161394579E+03  0.20782544845E+03  0.12509000000E+03 0.  0.
         25    1    4    4    0    0  0.63966857335E+01 -0.88444362875E+01  0.61657155976E+02  0.13988657771E+03  0.12509000000E+03 0.  0.
<mgrwt>
<rscale>  2 0.44577714E+03</rscale>
<asrwt>0</asrwt>
<pdfrwt beam="1">  1       21 0.99502352E-01 0.44577714E+03</pdfrwt>
<pdfrwt beam="2">  1       21 0.10797530E-01 0.44577714E+03</pdfrwt>
<totfact> 0.54083934E+04</totfact>
</mgrwt>
</event>
<event>
 7    0  0.4725730E-002  0.4057209E+03  0.7546771E-02  0.1041817E+00
         21   -1    0    0  502  501  0.00000000000E+00  0.00000000000E+00  0.11384104456E+03  0.11384104456E+03  0.00000000000E+00 0. -1.
         21   -1    0    0  501  502 -0.00000000000E+00 -0.00000000000E+00 -0.36148972016E+03  0.36148972016E+03  0.00000000000E+00 0. -1.
      99926    2    1    2    0    0 -0.35527136788E-14  0.00000000000E+00 -0.24764867560E+03  0.47533076473E+03  0.40572092548E+03 0.  0.
      99925    2    3    3    0    0  0.31071357692E+02 -0.44985315406E+02 -0.17579760068E+03  0.32106089424E+03  0.26303268530E+03 0.  0.
         25    1    4    4    0    0 -0.18745435778E+02 -0.13884814427E+02 -0.59609227698E+02  0.14051671630E+03  0.12509000000E+03 0.  0.
         25    1    4    4    0    0  0.49816793470E+02 -0.31100500979E+02 -0.11618837298E+03  0.18054417794E+03  0.12509000000E+03 0.  0.
         25    1    3    3    0    0 -0.31071357692E+02  0.44985315406E+02 -0.71851074921E+02  0.15426987048E+03  0.12509000000E+03 0.  0.
<mgrwt>
<rscale>  2 0.40572093E+03</rscale>
<asrwt>0</asrwt>
<pdfrwt beam="1">  1       21 0.16741330E-01 0.40572093E+03</pdfrwt>
<pdfrwt beam="2">  1       21 0.53160252E-01 0.40572093E+03</pdfrwt>
<totfact> 0.10118263E+05</totfact>
</mgrwt>
</event>
<event>
 7    0  0.4725730E-002  0.4736909E+03  0.7546771E-02  0.1020884E+00
         21   -1    0    0  502  501  0.00000000000E+00  0.00000000000E+00  0.11333646446E+03  0.11333646446E+03  0.00000000000E+00 0.  1.
         21   -1    0    0  501  502 -0.00000000000E+00 -0.00000000000E+00 -0.49494888217E+03  0.49494888217E+03  0.00000000000E+00 0.  1.
      99926    2    1    2    0    0  0.71054273576E-14  0.00000000000E+00 -0.38161241771E+03  0.60828534663E+03  0.47369085444E+03 0.  0.
      99925    2    3    3    0    0 -0.49221458918E+02 -0.47391891648E+02 -0.94463641347E+02  0.28770669594E+03  0.26302665253E+03 0.  0.
         25    1    3    3    0    0  0.49221458918E+02  0.47391891648E+02 -0.28714877636E+03  0.32057865069E+03  0.12509000000E+03 0.  0.
         25    1    4    4    0    0 -0.52154597454E+02 -0.12838750404E+02 -0.18715803724E+02  0.13741442776E+03  0.12509000000E+03 0.  0.
         25    1    4    4    0    0  0.29331385361E+01 -0.34553141244E+02 -0.75747837622E+02  0.15029226818E+03  0.12509000000E+03 0.  0.
<mgrwt>
<rscale>  2 0.47369085E+03</rscale>
<asrwt>0</asrwt>
<pdfrwt beam="1">  1       21 0.16667127E-01 0.47369085E+03</pdfrwt>
<pdfrwt beam="2">  1       21 0.72786600E-01 0.47369085E+03</pdfrwt>
<totfact> 0.50319092E+04</totfact>
</mgrwt>
</event>
<event>
 7    0  0.4725730E-002  0.4559319E+03  0.7546771E-02  0.1025968E+00
         21   -1    0    0  502  501  0.00000000000E+00  0.00000000000E+00  0.17112952190E+04  0.17112952190E+04  0.00000000000E+00 0. -1.
         21   -1    0    0  501  502 -0.00000000000E+00 -0.00000000000E+00 -0.30367921497E+02  0.30367921497E+02  0.00000000000E+00 0. -1.
      99926    2    1    2    0    0  0.00000000000E+00  0.00000000000E+00  0.16809272975E+04  0.17416631405E+04  0.45593191978E+03 0.  0.
      99925    2    3    3    0    0 -0.76434842037E+02  0.83661754253E+02  0.11349296069E+04  0.11701716179E+04  0.26152404941E+03 0.  0.
         25    1    3    3    0    0  0.76434842037E+02 -0.83661754253E+02  0.54599769055E+03  0.57149152259E+03  0.12509000000E+03 0.  0.
         25    1    4    4    0    0 -0.55985523768E+01  0.59986338880E+02  0.51968231136E+03  0.53790976705E+03  0.12509000000E+03 0.  0.
         25    1    4    4    0    0 -0.70836289660E+02  0.23675415373E+02  0.61524729555E+03  0.63226185083E+03  0.12509000000E+03 0.  0.
<mgrwt>
<rscale>  2 0.45593192E+03</rscale>
<asrwt>0</asrwt>
<pdfrwt beam="1">  1       21 0.25166100E+00 0.45593192E+03</pdfrwt>
<pdfrwt beam="2">  1       21 0.44658720E-02 0.45593192E+03</pdfrwt>
<totfact> 0.18275238E+04</totfact>
</mgrwt>
</event>
<event>
 7    0  0.4725730E-002  0.4586117E+03  0.7546771E-02  0.1025185E+00
         21   -1    0    0  502  501  0.00000000000E+00  0.00000000000E+00  0.10884004821E+03  0.10884004821E+03  0.00000000000E+00 0.  1.
         21   -1    0    0  501  502 -0.00000000000E+00 -0.00000000000E+00 -0.48310491516E+03  0.48310491516E+03  0.00000000000E+00 0.  1.
      99926    2    1    2    0    0  0.00000000000E+00  0.00000000000E+00 -0.37426486695E+03  0.59194496337E+03  0.45861165382E+03 0.  0.
      99925    2    3    3    0    0 -0.44799859130E+02 -0.10725349341E+03 -0.24453146758E+03  0.37749543028E+03  0.26305288826E+03 0.  0.
         25    1    4    4    0    0 -0.25243400371E+02 -0.11350419356E+02 -0.12176741591E+03  0.17675087824E+03  0.12509000000E+03 0.  0.
         25    1    3    3    0    0  0.44799859130E+02  0.10725349341E+03 -0.12973339938E+03  0.21444953309E+03  0.12509000000E+03 0.  0.
         25    1    4    4    0    0 -0.19556458759E+02 -0.95903074052E+02 -0.12276405167E+03  0.20074455204E+03  0.12509000000E+03 0.  0.
<mgrwt>
<rscale>  2 0.45861165E+03</rscale>
<asrwt>0</asrwt>
<pdfrwt beam="1">  1       21 0.16005889E-01 0.45861165E+03</pdfrwt>
<pdfrwt beam="2">  1       21 0.71044842E-01 0.45861165E+03</pdfrwt>
<totfact> 0.57517411E+04</totfact>
</mgrwt>
</event>
<event>
 7    0  0.4725730E-002  0.4560377E+03  0.7546771E-02  0.1025937E+00
         21   -1    0    0  502  501  0.00000000000E+00  0.00000000000E+00  0.95893498551E+03  0.95893498551E+03  0.00000000000E+00 0. -1.
         21   -1    0    0  501  502 -0.00000000000E+00 -0.00000000000E+00 -0.54219107653E+02  0.54219107653E+02  0.00000000000E+00 0. -1.
      99926    2    1    2    0    0  0.00000000000E+00  0.00000000000E+00  0.90471587785E+03  0.10131540932E+04  0.45603771428E+03 0.  0.
      99925    2    3    3    0    0 -0.37243483680E+02 -0.40044291013E+02  0.34636736882E+03  0.43835744394E+03  0.26305184309E+03 0.  0.
         25    1    3    3    0    0  0.37243483680E+02  0.40044291013E+02  0.55834850903E+03  0.57479664922E+03  0.12509000000E+03 0.  0.
         25    1    4    4    0    0 -0.34950077490E+00 -0.55236044028E+02  0.19173011351E+03  0.23549753128E+03  0.12509000000E+03 0.  0.
         25    1    4    4    0    0 -0.36893982905E+02  0.15191753016E+02  0.15463725531E+03  0.20285991266E+03  0.12509000000E+03 0.  0.
<mgrwt>
<rscale>  2 0.45603771E+03</rscale>
<asrwt>0</asrwt>
<pdfrwt beam="1">  1       21 0.14101984E+00 0.45603771E+03</pdfrwt>
<pdfrwt beam="2">  1       21 0.79733988E-02 0.45603771E+03</pdfrwt>
<totfact> 0.38347341E+04</totfact>
</mgrwt>
</event>
<event>
 7    0  0.4725730E-002  0.4694143E+03  0.7546771E-02  0.1022086E+00
         21   -1    0    0  502  501  0.00000000000E+00  0.00000000000E+00  0.12455431638E+03  0.12455431638E+03  0.00000000000E+00 0.  1.
         21   -1    0    0  501  502 -0.00000000000E+00 -0.00000000000E+00 -0.44227655701E+03  0.44227655701E+03  0.00000000000E+00 0.  1.
      99926    2    1    2    0    0  0.14210854715E-13 -0.35527136788E-14 -0.31772224063E+03  0.56683087339E+03  0.46941433387E+03 0.  0.
      99925    2    3    3    0    0 -0.72029619276E+02  0.28494574586E+02 -0.31757427616E+03  0.41969917447E+03  0.26323709720E+03 0.  0.
         25    1    4    4    0    0 -0.19076648635E+02  0.24494447555E+02 -0.20992454348E+03  0.24633253650E+03  0.12509000000E+03 0.  0.
         25    1    4    4    0    0 -0.52952970641E+02  0.40001270313E+01 -0.10764973268E+03  0.17336663797E+03  0.12509000000E+03 0.  0.
         25    1    3    3    0    0  0.72029619276E+02 -0.28494574586E+02 -0.14796447515E+00  0.14713169892E+03  0.12509000000E+03 0.  0.
<mgrwt>
<rscale>  2 0.46941433E+03</rscale>
<asrwt>0</asrwt>
<pdfrwt beam="1">  1       21 0.18316811E-01 0.46941433E+03</pdfrwt>
<pdfrwt beam="2">  1       21 0.65040670E-01 0.46941433E+03</pdfrwt>
<totfact> 0.54306897E+04</totfact>
</mgrwt>
</event>
<event>
 7    0  0.4725730E-002  0.4514777E+03  0.7546771E-02  0.1027282E+00
         21   -1    0    0  502  501  0.00000000000E+00  0.00000000000E+00  0.59008506964E+03  0.59008506964E+03  0.00000000000E+00 0. -1.
         21   -1    0    0  501  502 -0.00000000000E+00 -0.00000000000E+00 -0.86357098173E+02  0.86357098173E+02  0.00000000000E+00 0. -1.
      99926    2    1    2    0    0  0.00000000000E+00 -0.71054273576E-14  0.50372797147E+03  0.67644216782E+03  0.45147772609E+03 0.  0.
      99925    2    3    3    0    0 -0.10311131063E+03 -0.35145903938E+02  0.34107144139E+03  0.44412378322E+03  0.26277182069E+03 0.  0.
         25    1    3    3    0    0  0.10311131063E+03  0.35145903938E+02  0.16265653009E+03  0.23231838460E+03  0.12509000000E+03 0.  0.
         25    1    4    4    0    0 -0.33902057489E+02 -0.52004509697E+02  0.18522086620E+03  0.23196572140E+03  0.12509000000E+03 0.  0.
         25    1    4    4    0    0 -0.69209253137E+02  0.16858605759E+02  0.15585057519E+03  0.21215806182E+03  0.12509000000E+03 0.  0.
<mgrwt>
<rscale>  2 0.45147773E+03</rscale>
<asrwt>0</asrwt>
<pdfrwt beam="1">  1       21 0.86777215E-01 0.45147773E+03</pdfrwt>
<pdfrwt beam="2">  1       21 0.12699573E-01 0.45147773E+03</pdfrwt>
<totfact> 0.55731190E+04</totfact>
</mgrwt>
</event>
<event>
 7    0  0.4725730E-002  0.4558942E+03  0.7546771E-02  0.1025979E+00
         21   -1    0    0  502  501  0.00000000000E+00  0.00000000000E+00  0.84160378885E+03  0.84160378885E+03  0.00000000000E+00 0. -1.
         21   -1    0    0  501  502 -0.00000000000E+00 -0.00000000000E+00 -0.61739113310E+02  0.61739113310E+02  0.00000000000E+00 0. -1.
      99926    2    1    2    0    0 -0.35527136788E-14  0.00000000000E+00  0.77986467554E+03  0.90334290216E+03  0.45589416176E+03 0.  0.
      99925    2    3    3    0    0 -0.24708364048E+02 -0.72113667949E+02  0.65832355929E+03  0.71299943524E+03  0.26299696116E+03 0.  0.
         25    1    4    4    0    0 -0.57538737858E+01 -0.46407021676E+02  0.43507040367E+03  0.45510491425E+03  0.12509000000E+03 0.  0.
         25    1    3    3    0    0  0.24708364048E+02  0.72113667949E+02  0.12154111625E+03  0.19034346692E+03  0.12509000000E+03 0.  0.
         25    1    4    4    0    0 -0.18954490262E+02 -0.25706646272E+02  0.22325315562E+03  0.25789452099E+03  0.12509000000E+03 0.  0.
<mgrwt>
<rscale>  2 0.45589416E+03</rscale>
<asrwt>0</asrwt>
<pdfrwt beam="1">  1       21 0.12376526E+00 0.45589416E+03</pdfrwt>
<pdfrwt beam="2">  1       21 0.90792819E-02 0.45589416E+03</pdfrwt>
<totfact> 0.42789147E+04</totfact>
</mgrwt>
</event>
<event>
 7    0  0.4725730E-002  0.4516301E+03  0.7546771E-02  0.1027237E+00
         21   -1    0    0  502  501  0.00000000000E+00  0.00000000000E+00  0.45377602061E+03  0.45377602061E+03  0.00000000000E+00 0.  1.
         21   -1    0    0  501  502 -0.00000000000E+00 -0.00000000000E+00 -0.11237356658E+03  0.11237356658E+03  0.00000000000E+00 0.  1.
      99926    2    1    2    0    0  0.00000000000E+00 -0.14210854715E-13  0.34140245403E+03  0.56614958719E+03  0.45163006927E+03 0.  0.
      99925    2    3    3    0    0 -0.71103556023E+02  0.75910639513E+02  0.25998532470E+03  0.38423092977E+03  0.26310244671E+03 0.  0.
         25    1    4    4    0    0 -0.35921201844E+02 -0.32359279601E+01  0.13217990185E+03  0.18552584328E+03  0.12509000000E+03 0.  0.
         25    1    3    3    0    0  0.71103556023E+02 -0.75910639513E+02  0.81417129331E+02  0.18191865742E+03  0.12509000000E+03 0.  0.
         25    1    4    4    0    0 -0.35182354179E+02  0.79146567473E+02  0.12780542284E+03  0.19870508649E+03  0.12509000000E+03 0.  0.
<mgrwt>
<rscale>  2 0.45163007E+03</rscale>
<asrwt>0</asrwt>
<pdfrwt beam="1">  1       21 0.66731767E-01 0.45163007E+03</pdfrwt>
<pdfrwt beam="2">  1       21 0.16525525E-01 0.45163007E+03</pdfrwt>
<totfact> 0.62459846E+04</totfact>
</mgrwt>
</event>
<event>
 7    0  0.4725730E-002  0.4529997E+03  0.7546771E-02  0.1026831E+00
         21   -1    0    0  502  501  0.00000000000E+00  0.00000000000E+00  0.36031949390E+03  0.36031949390E+03  0.00000000000E+00 0. -1.
         21   -1    0    0  501  502 -0.00000000000E+00 -0.00000000000E+00 -0.14237972096E+03  0.14237972096E+03  0.00000000000E+00 0. -1.
      99926    2    1    2    0    0  0.00000000000E+00 -0.71054273576E-14  0.21793977294E+03  0.50269921486E+03  0.45299973067E+03 0.  0.
      99925    2    3    3    0    0 -0.44970146782E+02 -0.62465939874E+02  0.22629595972E+03  0.35558823055E+03  0.26326568438E+03 0.  0.
         25    1    3    3    0    0  0.44970146782E+02  0.62465939874E+02 -0.83561867805E+01  0.14711098431E+03  0.12509000000E+03 0.  0.
         25    1    4    4    0    0 -0.20679808530E+02 -0.29266317844E+02  0.16556246097E+03  0.21057684684E+03  0.12509000000E+03 0.  0.
         25    1    4    4    0    0 -0.24290338253E+02 -0.33199622030E+02  0.60733498750E+02  0.14501138371E+03  0.12509000000E+03 0.  0.
<mgrwt>
<rscale>  2 0.45299973E+03</rscale>
<asrwt>0</asrwt>
<pdfrwt beam="1">  1       21 0.52988161E-01 0.45299973E+03</pdfrwt>
<pdfrwt beam="2">  1       21 0.20938194E-01 0.45299973E+03</pdfrwt>
<totfact> 0.66125103E+04</totfact>
</mgrwt>
</event>
<event>
 7    0  0.4725730E-002  0.4571187E+03  0.7546771E-02  0.1025620E+00
         21   -1    0    0  502  501  0.00000000000E+00  0.00000000000E+00  0.72571990012E+02  0.72571990012E+02  0.00000000000E+00 0.  1.
         21   -1    0    0  501  502 -0.00000000000E+00 -0.00000000000E+00 -0.71982835467E+03  0.71982835467E+03  0.00000000000E+00 0.  1.
      99926    2    1    2    0    0  0.00000000000E+00 -0.88817841970E-15 -0.64725636465E+03  0.79240034468E+03  0.45711869865E+03 0.  0.
      99925    2    3    3    0    0 -0.11032079845E+03  0.59745643049E+01 -0.46278680786E+03  0.54363760737E+03  0.26299019872E+03 0.  0.
         25    1    3    3    0    0  0.11032079845E+03 -0.59745643049E+01 -0.18446955679E+03  0.24876273731E+03  0.12509000000E+03 0.  0.
         25    1    4    4    0    0 -0.71172762330E+02 -0.18319099467E+02 -0.18147942485E+03  0.23234336927E+03  0.12509000000E+03 0.  0.
         25    1    4    4    0    0 -0.39148036125E+02  0.24293663772E+02 -0.28130738301E+03  0.31129423809E+03  0.12509000000E+03 0.  0.
<mgrwt>
<rscale>  2 0.45711870E+03</rscale>
<asrwt>0</asrwt>
<pdfrwt beam="1">  1       21 0.10672352E-01 0.45711870E+03</pdfrwt>
<pdfrwt beam="2">  1       21 0.10585711E+00 0.45711870E+03</pdfrwt>
<totfact> 0.47342469E+04</totfact>
</mgrwt>
</event>
<event>
 7    0  0.4725730E-002  0.4484342E+03  0.7546771E-02  0.1028190E+00
         21   -1    0    0  502  501  0.00000000000E+00  0.00000000000E+00  0.21632174968E+02  0.21632174968E+02  0.00000000000E+00 0. -1.
         21   -1    0    0  501  502 -0.00000000000E+00 -0.00000000000E+00 -0.23240056998E+04  0.23240056998E+04  0.00000000000E+00 0. -1.
      99926    2    1    2    0    0  0.00000000000E+00  0.00000000000E+00 -0.23023735248E+04  0.23456378748E+04  0.44843415537E+03 0.  0.
      99925    2    3    3    0    0 -0.54360518796E+02 -0.73037717070E+02 -0.11644495295E+04  0.11972441699E+04  0.26298540168E+03 0.  0.
         25    1    3    3    0    0  0.54360518796E+02  0.73037717070E+02 -0.11379239953E+04  0.11483937049E+04  0.12509000000E+03 0.  0.
         25    1    4    4    0    0 -0.35727265259E+02 -0.38887861913E+02 -0.42138492400E+03  0.44272052761E+03  0.12509000000E+03 0.  0.
         25    1    4    4    0    0 -0.18633253537E+02 -0.34149855157E+02 -0.74306460550E+03  0.75452364230E+03  0.12509000000E+03 0.  0.
<mgrwt>
<rscale>  2 0.44843416E+03</rscale>
<asrwt>0</asrwt>
<pdfrwt beam="1">  1       21 0.31812009E-02 0.44843416E+03</pdfrwt>
<pdfrwt beam="2">  1       21 0.34176568E+00 0.44843416E+03</pdfrwt>
<totfact> 0.93089947E+03</totfact>
</mgrwt>
</event>
<event>
 7    0  0.4725730E-002  0.4507016E+03  0.7546771E-02  0.1027513E+00
         21   -1    0    0  502  501  0.00000000000E+00  0.00000000000E+00  0.62477381648E+02  0.62477381648E+02  0.00000000000E+00 0. -1.
         21   -1    0    0  501  502 -0.00000000000E+00 -0.00000000000E+00 -0.81282191048E+03  0.81282191048E+03  0.00000000000E+00 0. -1.
      99926    2    1    2    0    0  0.71054273576E-14 -0.23314683517E-14 -0.75034452884E+03  0.87529929213E+03  0.45070160733E+03 0.  0.
      99925    2    3    3    0    0 -0.50056303762E+02 -0.78302299685E+00 -0.28326828824E+03  0.38917793969E+03  0.26213030910E+03 0.  0.
         25    1    4    4    0    0 -0.46080549412E+02  0.31317375171E+02 -0.16007303966E+03  0.21065393694E+03  0.12509000000E+03 0.  0.
         25    1    3    3    0    0  0.50056303762E+02  0.78302299685E+00 -0.46707624060E+03  0.48612135244E+03  0.12509000000E+03 0.  0.
         25    1    4    4    0    0 -0.39757543504E+01 -0.32100398167E+02 -0.12319524858E+03  0.17852400275E+03  0.12509000000E+03 0.  0.
<mgrwt>
<rscale>  2 0.45070161E+03</rscale>
<asrwt>0</asrwt>
<pdfrwt beam="1">  1       21 0.91878506E-02 0.45070161E+03</pdfrwt>
<pdfrwt beam="2">  1       21 0.11953263E+00 0.45070161E+03</pdfrwt>
<totfact> 0.45842951E+04</totfact>
</mgrwt>
</event>
<event>
 7    0  0.4725730E-002  0.4661853E+03  0.7546771E-02  0.1023002E+00
         21   -1    0    0  502  501  0.00000000000E+00  0.00000000000E+00  0.84644493675E+02  0.84644493675E+02  0.00000000000E+00 0. -1.
         21   -1    0    0  501  502 -0.00000000000E+00 -0.00000000000E+00 -0.64188667379E+03  0.64188667379E+03  0.00000000000E+00 0. -1.
      99926    2    1    2    0    0  0.00000000000E+00  0.00000000000E+00 -0.55724218012E+03  0.72653116747E+03  0.46618525288E+03 0.  0.
      99925    2    3    3    0    0 -0.50347953165E+02  0.96543246296E+02 -0.43773399872E+03  0.52211681299E+03  0.26294371638E+03 0.  0.
         25    1    4    4    0    0 -0.42174182660E+01  0.12558996309E+02 -0.21866927006E+03  0.25226825558E+03  0.12509000000E+03 0.  0.
         25    1    3    3    0    0  0.50347953165E+02 -0.96543246296E+02 -0.11950818140E+03  0.20441435447E+03  0.12509000000E+03 0.  0.
         25    1    4    4    0    0 -0.46130534900E+02  0.83984249987E+02 -0.21906472866E+03  0.26984855742E+03  0.12509000000E+03 0.  0.
<mgrwt>
<rscale>  2 0.46618525E+03</rscale>
<asrwt>0</asrwt>
<pdfrwt beam="1">  1       21 0.12447719E-01 0.46618525E+03</pdfrwt>
<pdfrwt beam="2">  1       21 0.94395100E-01 0.46618525E+03</pdfrwt>
<totfact> 0.47195437E+04</totfact>
</mgrwt>
</event>
<event>
 7    0  0.4725730E-002  0.4545254E+03  0.7546771E-02  0.1026381E+00
         21   -1    0    0  502  501  0.00000000000E+00  0.00000000000E+00  0.18621061742E+03  0.18621061742E+03  0.00000000000E+00 0. -1.
         21   -1    0    0  501  502 -0.00000000000E+00 -0.00000000000E+00 -0.27736520060E+03  0.27736520060E+03  0.00000000000E+00 0. -1.
      99926    2    1    2    0    0  0.00000000000E+00  0.00000000000E+00 -0.91154583178E+02  0.46357581802E+03  0.45452544595E+03 0.  0.
      99925    2    3    3    0    0 -0.16477493427E+02 -0.26369480450E+02 -0.16892404027E+03  0.31303527914E+03  0.26170383512E+03 0.  0.
         25    1    4    4    0    0  0.27986997660E+02 -0.24353976601E+02 -0.91142074655E+02  0.15915644532E+03  0.12509000000E+03 0.  0.
         25    1    4    4    0    0 -0.44464491088E+02 -0.20155038490E+01 -0.77781965617E+02  0.15387883382E+03  0.12509000000E+03 0.  0.
         25    1    3    3    0    0  0.16477493427E+02  0.26369480450E+02  0.77769457094E+02  0.15054053888E+03  0.12509000000E+03 0.  0.
<mgrwt>
<rscale>  2 0.45452545E+03</rscale>
<asrwt>0</asrwt>
<pdfrwt beam="1">  1       21 0.27383914E-01 0.45452545E+03</pdfrwt>
<pdfrwt beam="2">  1       21 0.40789000E-01 0.45452545E+03</pdfrwt>
<totfact> 0.68172897E+04</totfact>
</mgrwt>
</event>
<event>
 7    0  0.4725730E-002  0.4570516E+03  0.7546771E-02  0.1025640E+00
         21   -1    0    0  502  501  0.00000000000E+00  0.00000000000E+00  0.49146896262E+03  0.49146896262E+03  0.00000000000E+00 0. -1.
         21   -1    0    0  501  502 -0.00000000000E+00 -0.00000000000E+00 -0.10626110893E+03  0.10626110893E+03  0.00000000000E+00 0. -1.
      99926    2    1    2    0    0  0.00000000000E+00  0.00000000000E+00  0.38520785369E+03  0.59773007155E+03  0.45705158121E+03 0.  0.
      99925    2    3    3    0    0 -0.97138272742E+02  0.60158706285E+02  0.22291188242E+03  0.36311889457E+03  0.26288915971E+03 0.  0.
         25    1    4    4    0    0 -0.26461033266E+02  0.48176954708E+02  0.14502470186E+03  0.19925079045E+03  0.12509000000E+03 0.  0.
         25    1    3    3    0    0  0.97138272742E+02 -0.60158706285E+02  0.16229597127E+03  0.23461117698E+03  0.12509000000E+03 0.  0.
         25    1    4    4    0    0 -0.70677239476E+02  0.11981751577E+02  0.77887180561E+02  0.16386810412E+03  0.12509000000E+03 0.  0.
<mgrwt>
<rscale>  2 0.45705158E+03</rscale>
<asrwt>0</asrwt>
<pdfrwt beam="1">  1       21 0.72274847E-01 0.45705158E+03</pdfrwt>
<pdfrwt beam="2">  1       21 0.15626634E-01 0.45705158E+03</pdfrwt>
<totfact> 0.57874266E+04</totfact>
</mgrwt>
</event>
<event>
 7    0  0.4725730E-002  0.4519441E+03  0.7546771E-02  0.1027144E+00
         21   -1    0    0  502  501  0.00000000000E+00  0.00000000000E+00  0.30261115258E+03  0.30261115258E+03  0.00000000000E+00 0.  1.
         21   -1    0    0  501  502 -0.00000000000E+00 -0.00000000000E+00 -0.16874251514E+03  0.16874251514E+03  0.00000000000E+00 0.  1.
      99926    2    1    2    0    0  0.17763568394E-14  0.00000000000E+00  0.13386863744E+03  0.47135366772E+03  0.45194409829E+03 0.  0.
      99925    2    3    3    0    0  0.11410339127E+02 -0.96271047273E+02  0.29840804107E+02  0.28196621145E+03  0.26308964333E+03 0.  0.
         25    1    3    3    0    0 -0.11410339127E+02  0.96271047273E+02  0.10402783334E+03  0.18938745627E+03  0.12509000000E+03 0.  0.
         25    1    4    4    0    0  0.24731009909E+02 -0.13113482545E+02  0.27751169723E+02  0.13115342846E+03  0.12509000000E+03 0.  0.
         25    1    4    4    0    0 -0.13320670782E+02 -0.83157564728E+02  0.20896343837E+01  0.15081278299E+03  0.12509000000E+03 0.  0.
<mgrwt>
<rscale>  2 0.45194410E+03</rscale>
<asrwt>0</asrwt>
<pdfrwt beam="1">  1       21 0.44501640E-01 0.45194410E+03</pdfrwt>
<pdfrwt beam="2">  1       21 0.24815076E-01 0.45194410E+03</pdfrwt>
<totfact> 0.68992988E+04</totfact>
</mgrwt>
</event>
<event>
 7    0  0.4725730E-002  0.4580119E+03  0.7546771E-02  0.1025359E+00
         21   -1    0    0  502  501  0.00000000000E+00  0.00000000000E+00  0.74082446867E+02  0.74082446867E+02  0.00000000000E+00 0. -1.
         21   -1    0    0  501  502 -0.00000000000E+00 -0.00000000000E+00 -0.70791038340E+03  0.70791038340E+03  0.00000000000E+00 0. -1.
      99926    2    1    2    0    0  0.00000000000E+00  0.14210854715E-13 -0.63382793654E+03  0.78199283027E+03  0.45801193594E+03 0.  0.
      99925    2    3    3    0    0 -0.20549794137E+02 -0.10788395278E+03 -0.33408464492E+03  0.43913018973E+03  0.26298580239E+03 0.  0.
         25    1    4    4    0    0 -0.10876179171E+02 -0.96649842694E+02 -0.19993970638E+03  0.25511346035E+03  0.12509000000E+03 0.  0.
         25    1    4    4    0    0 -0.96736149661E+01 -0.11234110085E+02 -0.13414493854E+03  0.18401672938E+03  0.12509000000E+03 0.  0.
         25    1    3    3    0    0  0.20549794137E+02  0.10788395278E+03 -0.29974329162E+03  0.34286264054E+03  0.12509000000E+03 0.  0.
<mgrwt>
<rscale>  2 0.45801194E+03</rscale>
<asrwt>0</asrwt>
<pdfrwt beam="1">  1       21 0.10894478E-01 0.45801194E+03</pdfrwt>
<pdfrwt beam="2">  1       21 0.10410446E+00 0.45801194E+03</pdfrwt>
<totfact> 0.47514887E+04</totfact>
</mgrwt>
</event>
<event>
 7    0  0.4725730E-002  0.4562927E+03  0.7546771E-02  0.1025862E+00
         21   -1    0    0  502  501  0.00000000000E+00  0.00000000000E+00  0.34396644063E+02  0.34396644063E+02  0.00000000000E+00 0. -1.
         21   -1    0    0  501  502 -0.00000000000E+00 -0.00000000000E+00 -0.15132512604E+04  0.15132512604E+04  0.00000000000E+00 0. -1.
      99926    2    1    2    0    0  0.00000000000E+00  0.00000000000E+00 -0.14788546163E+04  0.15476479045E+04  0.45629273491E+03 0.  0.
      99925    2    3    3    0    0 -0.31220098018E+02  0.10874702246E+03 -0.99256257487E+03  0.10329362696E+04  0.26263332333E+03 0.  0.
         25    1    3    3    0    0  0.31220098018E+02 -0.10874702246E+03 -0.48629204147E+03  0.51471163491E+03  0.12509000000E+03 0.  0.
         25    1    4    4    0    0 -0.35600363398E+02  0.19264398811E+02 -0.49159895855E+03  0.50887675038E+03  0.12509000000E+03 0.  0.
         25    1    4    4    0    0  0.43802653799E+01  0.89482623645E+02 -0.50096361632E+03  0.52405951917E+03  0.12509000000E+03 0.  0.
<mgrwt>
<rscale>  2 0.45629273E+03</rscale>
<asrwt>0</asrwt>
<pdfrwt beam="1">  1       21 0.50583312E-02 0.45629273E+03</pdfrwt>
<pdfrwt beam="2">  1       21 0.22253690E+00 0.45629273E+03</pdfrwt>
<totfact> 0.22409336E+04</totfact>
</mgrwt>
</event>
<event>
 7    0  0.4725730E-002  0.4485005E+03  0.7546771E-02  0.1028170E+00
         21   -1    0    0  502  501  0.00000000000E+00  0.00000000000E+00  0.13820719951E+03  0.13820719951E+03  0.00000000000E+00 0.  1.
         21   -1    0    0  501  502 -0.00000000000E+00 -0.00000000000E+00 -0.36386075727E+03  0.36386075727E+03  0.00000000000E+00 0.  1.
      99926    2    1    2    0    0  0.00000000000E+00  0.00000000000E+00 -0.22565355776E+03  0.50206795679E+03  0.44850050736E+03 0.  0.
      99925    2    3    3    0    0  0.68179694912E+02 -0.61961550321E+02 -0.81983685869E+02  0.29046397595E+03  0.26298344446E+03 0.  0.
         25    1    3    3    0    0 -0.68179694912E+02  0.61961550321E+02 -0.14366987189E+03  0.21160398083E+03  0.12509000000E+03 0.  0.
         25    1    4    4    0    0  0.62916222640E+02 -0.53675843674E+02 -0.66489797981E+02  0.16403642462E+03  0.12509000000E+03 0.  0.
         25    1    4    4    0    0  0.52634722721E+01 -0.82857066469E+01 -0.15493887888E+02  0.12642755134E+03  0.12509000000E+03 0.  0.
<mgrwt>
<rscale>  2 0.44850051E+03</rscale>
<asrwt>0</asrwt>
<pdfrwt beam="1">  1       21 0.20324588E-01 0.44850051E+03</pdfrwt>
<pdfrwt beam="2">  1       21 0.53508935E-01 0.44850051E+03</pdfrwt>
<totfact> 0.68596623E+04</totfact>
</mgrwt>
</event>
<event>
 7    0  0.4725730E-002  0.4705324E+03  0.7546771E-02  0.1021770E+00
         21   -1    0    0  502  501  0.00000000000E+00  0.00000000000E+00  0.34450039557E+02  0.34450039557E+02  0.00000000000E+00 0.  1.
         21   -1    0    0  501  502 -0.00000000000E+00 -0.00000000000E+00 -0.16066796393E+04  0.16066796393E+04  0.00000000000E+00 0.  1.
      99926    2    1    2    0    0  0.28421709430E-13  0.00000000000E+00 -0.15722295998E+04  0.16411296789E+04  0.47053236714E+03 0.  0.
      99925    2    3    3    0    0  0.12385555434E+03 -0.32133716859E+01 -0.87545103418E+03  0.92245144652E+03  0.26296698244E+03 0.  0.
         25    1    3    3    0    0 -0.12385555434E+03  0.32133716859E+01 -0.69677856559E+03  0.71867823236E+03  0.12509000000E+03 0.  0.
         25    1    4    4    0    0  0.19037522350E+02 -0.72426071207E+01 -0.41472815300E+03  0.43366096390E+03  0.12509000000E+03 0.  0.
         25    1    4    4    0    0  0.10481803199E+03  0.40292354348E+01 -0.46072288117E+03  0.48879048263E+03  0.12509000000E+03 0.  0.
<mgrwt>
<rscale>  2 0.47053237E+03</rscale>
<asrwt>0</asrwt>
<pdfrwt beam="1">  1       21 0.50661818E-02 0.47053237E+03</pdfrwt>
<pdfrwt beam="2">  1       21 0.23627644E+00 0.47053237E+03</pdfrwt>
<totfact> 0.18218011E+04</totfact>
</mgrwt>
</event>
<event>
 7    0  0.4725730E-002  0.4745564E+03  0.7546771E-02  0.1020642E+00
         21   -1    0    0  502  501  0.00000000000E+00  0.00000000000E+00  0.97477020158E+03  0.97477020158E+03  0.00000000000E+00 0. -1.
         21   -1    0    0  501  502 -0.00000000000E+00 -0.00000000000E+00 -0.57758172745E+02  0.57758172745E+02  0.00000000000E+00 0. -1.
      99926    2    1    2    0    0  0.00000000000E+00 -0.14210854715E-13  0.91701202883E+03  0.10325283743E+04  0.47455640630E+03 0.  0.
      99925    2    3    3    0    0  0.57538254920E+02  0.97561063938E+02  0.70920955921E+03  0.76483790669E+03  0.26300192522E+03 0.  0.
         25    1    4    4    0    0  0.43036553921E+02  0.70772223474E+02  0.46743119662E+03  0.49091779787E+03  0.12509000000E+03 0.  0.
         25    1    3    3    0    0 -0.57538254920E+02 -0.97561063938E+02  0.20780246963E+03  0.26769046763E+03  0.12509000000E+03 0.  0.
         25    1    4    4    0    0  0.14501700999E+02  0.26788840465E+02  0.24177836259E+03  0.27392010883E+03  0.12509000000E+03 0.  0.
<mgrwt>
<rscale>  2 0.47455641E+03</rscale>
<asrwt>0</asrwt>
<pdfrwt beam="1">  1       21 0.14334855E+00 0.47455641E+03</pdfrwt>
<pdfrwt beam="2">  1       21 0.84938495E-02 0.47455641E+03</pdfrwt>
<totfact> 0.32648260E+04</totfact>
</mgrwt>
</event>
<event>
 7    0  0.4725730E-002  0.4379877E+03  0.7546771E-02  0.1031366E+00
         21   -1    0    0  502  501  0.00000000000E+00  0.00000000000E+00  0.24088525230E+03  0.24088525230E+03  0.00000000000E+00 0. -1.
         21   -1    0    0  501  502 -0.00000000000E+00 -0.00000000000E+00 -0.19909189367E+03  0.19909189367E+03  0.00000000000E+00 0. -1.
      99926    2    1    2    0    0  0.00000000000E+00  0.17763568394E-14  0.41793358628E+02  0.43997714596E+03  0.43798767579E+03 0.  0.
      99925    2    3    3    0    0  0.77762485839E+02 -0.13551131878E+02  0.82194025352E+02  0.28664626404E+03  0.26302012377E+03 0.  0.
         25    1    4    4    0    0  0.60070968404E+02 -0.27408032835E+02  0.73124025183E+02  0.15923050169E+03  0.12509000000E+03 0.  0.
         25    1    4    4    0    0  0.17691517435E+02  0.13856900956E+02  0.90700001687E+01  0.12741576235E+03  0.12509000000E+03 0.  0.
         25    1    3    3    0    0 -0.77762485839E+02  0.13551131878E+02 -0.40400666724E+02  0.15333088192E+03  0.12509000000E+03 0.  0.
<mgrwt>
<rscale>  2 0.43798768E+03</rscale>
<asrwt>0</asrwt>
<pdfrwt beam="1">  1       21 0.35424302E-01 0.43798768E+03</pdfrwt>
<pdfrwt beam="2">  1       21 0.29278219E-01 0.43798768E+03</pdfrwt>
<totfact> 0.79977431E+04</totfact>
</mgrwt>
</event>
<event>
 7    0  0.4725730E-002  0.4662091E+03  0.7546771E-02  0.1022996E+00
         21   -1    0    0  502  501  0.00000000000E+00  0.00000000000E+00  0.90549286437E+02  0.90549286437E+02  0.00000000000E+00 0. -1.
         21   -1    0    0  501  502 -0.00000000000E+00 -0.00000000000E+00 -0.60009010751E+03  0.60009010751E+03  0.00000000000E+00 0. -1.
      99926    2    1    2    0    0  0.00000000000E+00  0.00000000000E+00 -0.50954082107E+03  0.69063939395E+03  0.46620909915E+03 0.  0.
      99925    2    3    3    0    0  0.86504103147E+02  0.39865475365E+02 -0.43379066535E+03  0.51611773289E+03  0.26292766470E+03 0.  0.
         25    1    4    4    0    0  0.48407795496E+02  0.57469050879E+02 -0.25672949860E+03  0.29530247209E+03  0.12509000000E+03 0.  0.
         25    1    4    4    0    0  0.38096307651E+02 -0.17603575515E+02 -0.17706116676E+03  0.22081526080E+03  0.12509000000E+03 0.  0.
         25    1    3    3    0    0 -0.86504103147E+02 -0.39865475365E+02 -0.75750155720E+02  0.17452166106E+03  0.12509000000E+03 0.  0.
<mgrwt>
<rscale>  2 0.46620910E+03</rscale>
<asrwt>0</asrwt>
<pdfrwt beam="1">  1       21 0.13316072E-01 0.46620910E+03</pdfrwt>
<pdfrwt beam="2">  1       21 0.88248543E-01 0.46620910E+03</pdfrwt>
<totfact> 0.48947843E+04</totfact>
</mgrwt>
</event>
<event>
 7    0  0.4725730E-002  0.4576729E+03  0.7546771E-02  0.1025458E+00
         21   -1    0    0  502  501  0.00000000000E+00  0.00000000000E+00  0.44254787558E+02  0.44254787558E+02  0.00000000000E+00 0. -1.
         21   -1    0    0  501  502 -0.00000000000E+00 -0.00000000000E+00 -0.11832869694E+04  0.11832869694E+04  0.00000000000E+00 0. -1.
      99926    2    1    2    0    0  0.00000000000E+00  0.00000000000E+00 -0.11390321818E+04  0.12275417569E+04  0.45767286767E+03 0.  0.
      99925    2    3    3    0    0  0.36011225833E+02  0.41892002320E+02 -0.44245084730E+03  0.51766513953E+03  0.26298801524E+03 0.  0.
         25    1    3    3    0    0 -0.36011225833E+02 -0.41892002320E+02 -0.69658133452E+03  0.70987661741E+03  0.12509000000E+03 0.  0.
         25    1    4    4    0    0  0.34815924402E+02  0.56874430229E+02 -0.25623841100E+03  0.29283524511E+03  0.12509000000E+03 0.  0.
         25    1    4    4    0    0  0.11953014316E+01 -0.14982427909E+02 -0.18621243631E+03  0.22482989442E+03  0.12509000000E+03 0.  0.
<mgrwt>
<rscale>  2 0.45767287E+03</rscale>
<asrwt>0</asrwt>
<pdfrwt beam="1">  1       21 0.65080576E-02 0.45767287E+03</pdfrwt>
<pdfrwt beam="2">  1       21 0.17401277E+00 0.45767287E+03</pdfrwt>
<totfact> 0.30650899E+04</totfact>
</mgrwt>
</event>
<event>
 7    0  0.4725730E-002  0.4328705E+03  0.7546771E-02  0.1032957E+00
         21   -1    0    0  502  501  0.00000000000E+00  0.00000000000E+00  0.15735806601E+03  0.15735806601E+03  0.00000000000E+00 0.  1.
         21   -1    0    0  501  502 -0.00000000000E+00 -0.00000000000E+00 -0.29769191621E+03  0.29769191621E+03  0.00000000000E+00 0.  1.
      99926    2    1    2    0    0  0.71054273576E-14 -0.14210854715E-13 -0.14033385019E+03  0.45504998222E+03  0.43287053123E+03 0.  0.
      99925    2    3    3    0    0 -0.59134660520E+02  0.68718169076E+02 -0.83752260020E+02  0.29052618673E+03  0.26300556892E+03 0.  0.
         25    1    4    4    0    0  0.27331122809E+00  0.41427949070E+01 -0.31754637091E+02  0.12912436844E+03  0.12509000000E+03 0.  0.
         25    1    3    3    0    0  0.59134660520E+02 -0.68718169076E+02 -0.56581590173E+02  0.16452379549E+03  0.12509000000E+03 0.  0.
         25    1    4    4    0    0 -0.59407971748E+02  0.64575374169E+02 -0.51997622929E+02  0.16140181829E+03  0.12509000000E+03 0.  0.
<mgrwt>
<rscale>  2 0.43287053E+03</rscale>
<asrwt>0</asrwt>
<pdfrwt beam="1">  1       21 0.23140892E-01 0.43287053E+03</pdfrwt>
<pdfrwt beam="2">  1       21 0.43778223E-01 0.43287053E+03</pdfrwt>
<totfact> 0.82050679E+04</totfact>
</mgrwt>
</event>
<event>
 7    0  0.4725730E-002  0.4630914E+03  0.7546771E-02  0.1023888E+00
         21   -1    0    0  502  501  0.00000000000E+00  0.00000000000E+00  0.31255007173E+03  0.31255007173E+03  0.00000000000E+00 0.  1.
         21   -1    0    0  501  502 -0.00000000000E+00 -0.00000000000E+00 -0.17153542825E+03  0.17153542825E+03  0.00000000000E+00 0.  1.
      99926    2    1    2    0    0  0.00000000000E+00  0.00000000000E+00  0.14101464348E+03  0.48408549998E+03  0.46309139661E+03 0.  0.
      99925    2    3    3    0    0  0.21919364045E+02  0.94222955043E+02  0.16339832105E+03  0.32437651182E+03  0.26298799654E+03 0.  0.
         25    1    3    3    0    0 -0.21919364045E+02 -0.94222955043E+02 -0.22383677570E+02  0.15970898816E+03  0.12509000000E+03 0.  0.
         25    1    4    4    0    0  0.23041321198E+01  0.56588917331E+02  0.12776713075E+03  0.18756215607E+03  0.12509000000E+03 0.  0.
         25    1    4    4    0    0  0.19615231925E+02  0.37634037712E+02  0.35631190301E+02  0.13681435575E+03  0.12509000000E+03 0.  0.
<mgrwt>
<rscale>  2 0.46309140E+03</rscale>
<asrwt>0</asrwt>
<pdfrwt beam="1">  1       21 0.45963246E-01 0.46309140E+03</pdfrwt>
<pdfrwt beam="2">  1       21 0.25225798E-01 0.46309140E+03</pdfrwt>
<totfact> 0.62305255E+04</totfact>
</mgrwt>
</event>
<event>
 7    0  0.4725730E-002  0.4596422E+03  0.7546771E-02  0.1024885E+00
         21   -1    0    0  502  501  0.00000000000E+00  0.00000000000E+00  0.93920690712E+02  0.93920690712E+02  0.00000000000E+00 0.  1.
         21   -1    0    0  501  502 -0.00000000000E+00 -0.00000000000E+00 -0.56236541168E+03  0.56236541168E+03  0.00000000000E+00 0.  1.
      99926    2    1    2    0    0 -0.53290705182E-14 -0.35527136788E-14 -0.46844472097E+03  0.65628610239E+03  0.45964224304E+03 0.  0.
      99925    2    3    3    0    0 -0.82658125093E+01 -0.31324226201E+02 -0.13225006417E+03  0.29611407938E+03  0.26295234878E+03 0.  0.
         25    1    3    3    0    0  0.82658125093E+01  0.31324226201E+02 -0.33619465680E+03  0.36017202301E+03  0.12509000000E+03 0.  0.
         25    1    4    4    0    0 -0.36189107435E+02 -0.40621721425E+02 -0.66004686445E+02  0.15153845215E+03  0.12509000000E+03 0.  0.
         25    1    4    4    0    0  0.27923294926E+02  0.92974952236E+01 -0.66245377726E+02  0.14457562722E+03  0.12509000000E+03 0.  0.
<mgrwt>
<rscale>  2 0.45964224E+03</rscale>
<asrwt>0</asrwt>
<pdfrwt beam="1">  1       21 0.13811867E-01 0.45964224E+03</pdfrwt>
<pdfrwt beam="2">  1       21 0.82700792E-01 0.45964224E+03</pdfrwt>
<totfact> 0.53359947E+04</totfact>
</mgrwt>
</event>
<event>
 7    0  0.4725730E-002  0.4144603E+03  0.7546771E-02  0.1038884E+00
         21   -1    0    0  502  501  0.00000000000E+00  0.00000000000E+00  0.16839054197E+03  0.16839054197E+03  0.00000000000E+00 0. -1.
         21   -1    0    0  501  502 -0.00000000000E+00 -0.00000000000E+00 -0.25502824346E+03  0.25502824346E+03  0.00000000000E+00 0. -1.
      99926    2    1    2    0    0  0.00000000000E+00 -0.17763568394E-14 -0.86637701489E+02  0.42341878544E+03  0.41446034375E+03 0.  0.
      99925    2    3    3    0    0  0.12148492457E+02 -0.13289376196E+02 -0.12456768035E+03  0.29147036830E+03  0.26289479878E+03 0.  0.
         25    1    4    4    0    0 -0.25526429294E+02  0.18501934884E+02 -0.57990504276E+02  0.14143665322E+03  0.12509000000E+03 0.  0.
         25    1    4    4    0    0  0.37674921751E+02 -0.31791311080E+02 -0.66577176070E+02  0.15003371509E+03  0.12509000000E+03 0.  0.
         25    1    3    3    0    0 -0.12148492457E+02  0.13289376196E+02  0.37929978856E+02  0.13194841714E+03  0.12509000000E+03 0.  0.
<mgrwt>
<rscale>  2 0.41446034E+03</rscale>
<asrwt>0</asrwt>
<pdfrwt beam="1">  1       21 0.24763315E-01 0.41446034E+03</pdfrwt>
<pdfrwt beam="2">  1       21 0.37504153E-01 0.41446034E+03</pdfrwt>
<totfact> 0.99362117E+04</totfact>
</mgrwt>
</event>
<event>
 7    0  0.4725730E-002  0.4558159E+03  0.7546771E-02  0.1026002E+00
         21   -1    0    0  502  501  0.00000000000E+00  0.00000000000E+00  0.36504655059E+04  0.36504655059E+04  0.00000000000E+00 0. -1.
         21   -1    0    0  501  502 -0.00000000000E+00 -0.00000000000E+00 -0.14228879189E+02  0.14228879189E+02  0.00000000000E+00 0. -1.
      99926    2    1    2    0    0 -0.71054273576E-14  0.00000000000E+00  0.36362366267E+04  0.36646943851E+04  0.45581589559E+03 0.  0.
      99925    2    3    3    0    0 -0.38442037517E+02  0.46051506748E+02  0.30637338640E+04  0.30756226977E+04  0.26342220370E+03 0.  0.
         25    1    4    4    0    0 -0.41108549943E+02 -0.44764745107E+01  0.12679172897E+04  0.12747437834E+04  0.12509000000E+03 0.  0.
         25    1    4    4    0    0  0.26665124260E+01  0.50527981259E+02  0.17958165743E+04  0.18008789143E+04  0.12509000000E+03 0.  0.
         25    1    3    3    0    0  0.38442037517E+02 -0.46051506748E+02  0.57250276274E+03  0.58907168746E+03  0.12509000000E+03 0.  0.
<mgrwt>
<rscale>  2 0.45581590E+03</rscale>
<asrwt>0</asrwt>
<pdfrwt beam="1">  1       21 0.53683251E+00 0.45581590E+03</pdfrwt>
<pdfrwt beam="2">  1       21 0.20924848E-02 0.45581590E+03</pdfrwt>
<totfact> 0.91788568E+02</totfact>
</mgrwt>
</event>
<event>
 7    0  0.4725730E-002  0.4556090E+03  0.7546771E-02  0.1026062E+00
         21   -1    0    0  502  501  0.00000000000E+00  0.00000000000E+00  0.14776093322E+04  0.14776093322E+04  0.00000000000E+00 0. -1.
         21   -1    0    0  501  502 -0.00000000000E+00 -0.00000000000E+00 -0.35120841994E+02  0.35120841994E+02  0.00000000000E+00 0. -1.
      99926    2    1    2    0    0  0.00000000000E+00  0.17763568394E-14  0.14424884902E+04  0.15127301742E+04  0.45560897219E+03 0.  0.
      99925    2    3    3    0    0 -0.11322815148E+03 -0.31512469212E+01  0.89164286677E+03  0.93661477464E+03  0.26341922779E+03 0.  0.
         25    1    4    4    0    0 -0.31964763642E+02 -0.19536373808E+02  0.32034034017E+03  0.34593186852E+03  0.12509000000E+03 0.  0.
         25    1    4    4    0    0 -0.81263387838E+02  0.16385126887E+02  0.57130252660E+03  0.59068290612E+03  0.12509000000E+03 0.  0.
         25    1    3    3    0    0  0.11322815148E+03  0.31512469212E+01  0.55084562347E+03  0.57611539959E+03  0.12509000000E+03 0.  0.
<mgrwt>
<rscale>  2 0.45560897E+03</rscale>
<asrwt>0</asrwt>
<pdfrwt beam="1">  1       21 0.21729545E+00 0.45560897E+03</pdfrwt>
<pdfrwt beam="2">  1       21 0.51648307E-02 0.45560897E+03</pdfrwt>
<totfact> 0.23358166E+04</totfact>
</mgrwt>
</event>
<event>
 7    0  0.4725730E-002  0.4571388E+03  0.7546771E-02  0.1025614E+00
         21   -1    0    0  502  501  0.00000000000E+00  0.00000000000E+00  0.18635825174E+04  0.18635825174E+04  0.00000000000E+00 0.  1.
         21   -1    0    0  501  502 -0.00000000000E+00 -0.00000000000E+00 -0.28034162349E+02  0.28034162349E+02  0.00000000000E+00 0.  1.
      99926    2    1    2    0    0  0.00000000000E+00  0.00000000000E+00  0.18355483550E+04  0.18916166797E+04  0.45713881849E+03 0.  0.
      99925    2    3    3    0    0 -0.78318934353E+02 -0.79783869943E+02  0.12672643615E+04  0.12990852234E+04  0.26299074935E+03 0.  0.
         25    1    4    4    0    0 -0.25138891053E+02  0.62143986745E+00  0.53944481408E+03  0.55432893265E+03  0.12509000000E+03 0.  0.
         25    1    4    4    0    0 -0.53180043300E+02 -0.80405309810E+02  0.72781954746E+03  0.74475629075E+03  0.12509000000E+03 0.  0.
         25    1    3    3    0    0  0.78318934353E+02  0.79783869943E+02  0.56828399347E+03  0.59253145631E+03  0.12509000000E+03 0.  0.
<mgrwt>
<rscale>  2 0.45713882E+03</rscale>
<asrwt>0</asrwt>
<pdfrwt beam="1">  1       21 0.27405617E+00 0.45713882E+03</pdfrwt>
<pdfrwt beam="2">  1       21 0.41226722E-02 0.45713882E+03</pdfrwt>
<totfact> 0.15305462E+04</totfact>
</mgrwt>
</event>
<event>
 7    0  0.4725730E-002  0.4447092E+03  0.7546771E-02  0.1029312E+00
         21   -1    0    0  502  501  0.00000000000E+00  0.00000000000E+00  0.32144556690E+03  0.32144556690E+03  0.00000000000E+00 0.  1.
         21   -1    0    0  501  502 -0.00000000000E+00 -0.00000000000E+00 -0.15381009021E+03  0.15381009021E+03  0.00000000000E+00 0.  1.
      99926    2    1    2    0    0  0.00000000000E+00 -0.14210854715E-13  0.16763547669E+03  0.47525565712E+03  0.44470921575E+03 0.  0.
      99925    2    3    3    0    0  0.26736771317E+02 -0.99996094010E+02  0.10917079023E+03  0.30268769537E+03  0.26265472722E+03 0.  0.
         25    1    4    4    0    0  0.13928033010E+02 -0.86327338692E+02  0.36934420122E+02  0.15702884766E+03  0.12509000000E+03 0.  0.
         25    1    3    3    0    0 -0.26736771317E+02  0.99996094010E+02  0.58464686466E+02  0.17256796175E+03  0.12509000000E+03 0.  0.
         25    1    4    4    0    0  0.12808738307E+02 -0.13668755318E+02  0.72236370104E+02  0.14565884770E+03  0.12509000000E+03 0.  0.
<mgrwt>
<rscale>  2 0.44470922E+03</rscale>
<asrwt>0</asrwt>
<pdfrwt beam="1">  1       21 0.47271407E-01 0.44470922E+03</pdfrwt>
<pdfrwt beam="2">  1       21 0.22619131E-01 0.44470922E+03</pdfrwt>
<totfact> 0.72815708E+04</totfact>
</mgrwt>
</event>
<event>
 7    0  0.4725730E-002  0.4547533E+03  0.7546771E-02  0.1026314E+00
         21   -1    0    0  502  501  0.00000000000E+00  0.00000000000E+00  0.11389170727E+03  0.11389170727E+03  0.00000000000E+00 0.  1.
         21   -1    0    0  501  502 -0.00000000000E+00 -0.00000000000E+00 -0.45394132120E+03  0.45394132120E+03  0.00000000000E+00 0.  1.
      99926    2    1    2    0    0 -0.35527136788E-14  0.00000000000E+00 -0.34004961394E+03  0.56783302847E+03  0.45475334884E+03 0.  0.
      99925    2    3    3    0    0 -0.26843876428E+02  0.49185791449E+02 -0.92573499369E+02  0.28493415755E+03  0.26358639110E+03 0.  0.
         25    1    3    3    0    0  0.26843876428E+02 -0.49185791449E+02 -0.24747611457E+03  0.28289887091E+03  0.12509000000E+03 0.  0.
         25    1    4    4    0    0 -0.42831118048E+02  0.54222640879E+02 -0.41777165269E+02  0.14888733692E+03  0.12509000000E+03 0.  0.
         25    1    4    4    0    0  0.15987241620E+02 -0.50368494307E+01 -0.50796334100E+02  0.13604682063E+03  0.12509000000E+03 0.  0.
<mgrwt>
<rscale>  2 0.45475335E+03</rscale>
<asrwt>0</asrwt>
<pdfrwt beam="1">  1       21 0.16748781E-01 0.45475335E+03</pdfrwt>
<pdfrwt beam="2">  1       21 0.66756076E-01 0.45475335E+03</pdfrwt>
<totfact> 0.60821797E+04</totfact>
</mgrwt>
</event>
<event>
 7    0  0.4725730E-002  0.4430679E+03  0.7546771E-02  0.1029810E+00
         21   -1    0    0  502  501  0.00000000000E+00  0.00000000000E+00  0.23052112478E+03  0.23052112478E+03  0.00000000000E+00 0. -1.
         21   -1    0    0  501  502 -0.00000000000E+00 -0.00000000000E+00 -0.21289719007E+03  0.21289719007E+03  0.00000000000E+00 0. -1.
      99926    2    1    2    0    0  0.17763568394E-14 -0.71054273576E-14  0.17623934711E+02  0.44341831484E+03  0.44306793933E+03 0.  0.
      99925    2    3    3    0    0 -0.63481812200E+01 -0.52016814212E+02 -0.76092061380E+02  0.27856612533E+03  0.26279847033E+03 0.  0.
         25    1    4    4    0    0  0.12035349951E+02 -0.56982314727E+02 -0.17367890828E+02  0.13907187197E+03  0.12509000000E+03 0.  0.
         25    1    4    4    0    0 -0.18383531171E+02  0.49655005155E+01 -0.58724170551E+02  0.13949425336E+03  0.12509000000E+03 0.  0.
         25    1    3    3    0    0  0.63481812200E+01  0.52016814212E+02  0.93715996091E+02  0.16485218952E+03  0.12509000000E+03 0.  0.
<mgrwt>
<rscale>  2 0.44306794E+03</rscale>
<asrwt>0</asrwt>
<pdfrwt beam="1">  1       21 0.33900165E-01 0.44306794E+03</pdfrwt>
<pdfrwt beam="2">  1       21 0.31308410E-01 0.44306794E+03</pdfrwt>
<totfact> 0.76423552E+04</totfact>
</mgrwt>
</event>
<event>
 7    0  0.4725730E-002  0.4068630E+03  0.7546771E-02  0.1041429E+00
         21   -1    0    0  502  501  0.00000000000E+00  0.00000000000E+00  0.79074803940E+03  0.79074803940E+03  0.00000000000E+00 0.  1.
         21   -1    0    0  501  502 -0.00000000000E+00 -0.00000000000E+00 -0.52335740899E+02  0.52335740899E+02  0.00000000000E+00 0.  1.
      99926    2    1    2    0    0  0.71054273576E-14  0.26645352591E-14  0.73841229850E+03  0.84308378030E+03  0.40686304578E+03 0.  0.
      99925    2    3    3    0    0 -0.57339323290E+02  0.55637230279E+01  0.48309668955E+03  0.55299358521E+03  0.26287019768E+03 0.  0.
         25    1    3    3    0    0  0.57339323290E+02 -0.55637230279E+01  0.25531560896E+03  0.29009019509E+03  0.12509000000E+03 0.  0.
         25    1    4    4    0    0 -0.62469342772E+02  0.24685724580E+02  0.23884112568E+03  0.27785678901E+03  0.12509000000E+03 0.  0.
         25    1    4    4    0    0  0.51300194821E+01 -0.19122001552E+02  0.24425556387E+03  0.27513679620E+03  0.12509000000E+03 0.  0.
<mgrwt>
<rscale>  2 0.40686305E+03</rscale>
<asrwt>0</asrwt>
<pdfrwt beam="1">  1       21 0.11628647E+00 0.40686305E+03</pdfrwt>
<pdfrwt beam="2">  1       21 0.76964329E-02 0.40686305E+03</pdfrwt>
<totfact> 0.68016964E+04</totfact>
</mgrwt>
</event>
<event>
 7    0  0.4725730E-002  0.4427646E+03  0.7546771E-02  0.1029902E+00
         21   -1    0    0  502  501  0.00000000000E+00  0.00000000000E+00  0.72074745597E+03  0.72074745597E+03  0.00000000000E+00 0. -1.
         21   -1    0    0  501  502 -0.00000000000E+00 -0.00000000000E+00 -0.67999019939E+02  0.67999019939E+02  0.00000000000E+00 0. -1.
      99926    2    1    2    0    0  0.00000000000E+00 -0.13322676296E-14  0.65274843603E+03  0.78874647590E+03  0.44276459040E+03 0.  0.
      99925    2    3    3    0    0 -0.86129360300E+02  0.16974264803E+01  0.32073506877E+03  0.42364165247E+03  0.26302113489E+03 0.  0.
         25    1    3    3    0    0  0.86129360300E+02 -0.16974264803E+01  0.33201336725E+03  0.36510482344E+03  0.12509000000E+03 0.  0.
         25    1    4    4    0    0 -0.31509171407E+02 -0.15788713961E+02  0.21021795300E+03  0.24714612527E+03  0.12509000000E+03 0.  0.
         25    1    4    4    0    0 -0.54620188893E+02  0.17486140441E+02  0.11051711577E+03  0.17649552720E+03  0.12509000000E+03 0.  0.
<mgrwt>
<rscale>  2 0.44276459E+03</rscale>
<asrwt>0</asrwt>
<pdfrwt beam="1">  1       21 0.10599227E+00 0.44276459E+03</pdfrwt>
<pdfrwt beam="2">  1       21 0.99998563E-02 0.44276459E+03</pdfrwt>
<totfact> 0.53246095E+04</totfact>
</mgrwt>
</event>
<event>
 7    0  0.4725730E-002  0.4539233E+03  0.7546771E-02  0.1026558E+00
         21   -1    0    0  502  501  0.00000000000E+00  0.00000000000E+00  0.65522420460E+03  0.65522420460E+03  0.00000000000E+00 0. -1.
         21   -1    0    0  501  502 -0.00000000000E+00 -0.00000000000E+00 -0.78616737135E+02  0.78616737135E+02  0.00000000000E+00 0. -1.
      99926    2    1    2    0    0  0.35527136788E-14  0.00000000000E+00  0.57660746746E+03  0.73384094173E+03  0.45392329333E+03 0.  0.
      99925    2    3    3    0    0  0.22588482753E+02 -0.10869662443E+03  0.33787545557E+03  0.44235221585E+03  0.26304080229E+03 0.  0.
         25    1    3    3    0    0 -0.22588482753E+02  0.10869662443E+03  0.23873201189E+03  0.29148872589E+03  0.12509000000E+03 0.  0.
         25    1    4    4    0    0  0.15393179602E+02 -0.76799618450E+02  0.23328506881E+03  0.27605173935E+03  0.12509000000E+03 0.  0.
         25    1    4    4    0    0  0.71953031510E+01 -0.31897005983E+02  0.10459038676E+03  0.16630047649E+03  0.12509000000E+03 0.  0.
<mgrwt>
<rscale>  2 0.45392329E+03</rscale>
<asrwt>0</asrwt>
<pdfrwt beam="1">  1       21 0.96356498E-01 0.45392329E+03</pdfrwt>
<pdfrwt beam="2">  1       21 0.11561285E-01 0.45392329E+03</pdfrwt>
<totfact> 0.51538788E+04</totfact>
</mgrwt>
</event>
<event>
 7    0  0.4725730E-002  0.4589103E+03  0.7546771E-02  0.1025098E+00
         21   -1    0    0  502  501  0.00000000000E+00  0.00000000000E+00  0.29200414624E+03  0.29200414624E+03  0.00000000000E+00 0. -1.
         21   -1    0    0  501  502 -0.00000000000E+00 -0.00000000000E+00 -0.18030450231E+03  0.18030450231E+03  0.00000000000E+00 0. -1.
      99926    2    1    2    0    0  0.71054273576E-14  0.14210854715E-13  0.11169964392E+03  0.47230864855E+03  0.45891028431E+03 0.  0.
      99925    2    3    3    0    0  0.53308643050E+02  0.10311308681E+03  0.83808398299E+02  0.29939378575E+03  0.26294233441E+03 0.  0.
         25    1    3    3    0    0 -0.53308643050E+02 -0.10311308681E+03  0.27891245622E+02  0.17291486280E+03  0.12509000000E+03 0.  0.
         25    1    4    4    0    0 -0.18342859539E+01  0.78674897389E+02  0.32279836355E+02  0.15126995742E+03  0.12509000000E+03 0.  0.
         25    1    4    4    0    0  0.55142929004E+02  0.24438189421E+02  0.51528561943E+02  0.14812382832E+03  0.12509000000E+03 0.  0.
<mgrwt>
<rscale>  2 0.45891028E+03</rscale>
<asrwt>0</asrwt>
<pdfrwt beam="1">  1       21 0.42941787E-01 0.45891028E+03</pdfrwt>
<pdfrwt beam="2">  1       21 0.26515368E-01 0.45891028E+03</pdfrwt>
<totfact> 0.65217799E+04</totfact>
</mgrwt>
</event>
<event>
 7    0  0.4725730E-002  0.4459976E+03  0.7546771E-02  0.1028922E+00
         21   -1    0    0  502  501  0.00000000000E+00  0.00000000000E+00  0.34947243982E+03  0.34947243982E+03  0.00000000000E+00 0. -1.
         21   -1    0    0  501  502 -0.00000000000E+00 -0.00000000000E+00 -0.14229578538E+03  0.14229578538E+03  0.00000000000E+00 0. -1.
      99926    2    1    2    0    0  0.71054273576E-14  0.00000000000E+00  0.20717665444E+03  0.49176822520E+03  0.44599755736E+03 0.  0.
      99925    2    3    3    0    0  0.39185196648E+02 -0.68726136317E+02  0.56803200715E+02  0.28077427947E+03  0.26334166201E+03 0.  0.
         25    1    3    3    0    0 -0.39185196648E+02  0.68726136317E+02  0.15037345372E+03  0.21099394573E+03  0.12509000000E+03 0.  0.
         25    1    4    4    0    0 -0.85089203141E+01 -0.61806265777E+02  0.41705028411E+02  0.14587403370E+03  0.12509000000E+03 0.  0.
         25    1    4    4    0    0  0.47694116963E+02 -0.69198705406E+01  0.15098172304E+02  0.13490024577E+03  0.12509000000E+03 0.  0.
<mgrwt>
<rscale>  2 0.44599756E+03</rscale>
<asrwt>0</asrwt>
<pdfrwt beam="1">  1       21 0.51393006E-01 0.44599756E+03</pdfrwt>
<pdfrwt beam="2">  1       21 0.20925851E-01 0.44599756E+03</pdfrwt>
<totfact> 0.70777365E+04</totfact>
</mgrwt>
</event>
<event>
 7    0  0.4725730E-002  0.4845412E+03  0.7546771E-02  0.1017895E+00
         21   -1    0    0  502  501  0.00000000000E+00  0.00000000000E+00  0.66703162663E+02  0.66703162663E+02  0.00000000000E+00 0. -1.
         21   -1    0    0  501  502 -0.00000000000E+00 -0.00000000000E+00 -0.87994391066E+03  0.87994391066E+03  0.00000000000E+00 0. -1.
      99926    2    1    2    0    0  0.00000000000E+00  0.14210854715E-13 -0.81324074800E+03  0.94664707332E+03  0.48454119250E+03 0.  0.
      99925    2    3    3    0    0  0.80046452827E+02 -0.10922135335E+03 -0.55952645678E+03  0.63303076586E+03  0.26328949096E+03 0.  0.
         25    1    3    3    0    0 -0.80046452827E+02  0.10922135335E+03 -0.25371429122E+03  0.31361630746E+03  0.12509000000E+03 0.  0.
         25    1    4    4    0    0 -0.15831601933E+01 -0.40013725881E+02 -0.23995231226E+03  0.27354748201E+03  0.12509000000E+03 0.  0.
         25    1    4    4    0    0  0.81629613020E+02 -0.69207627473E+02 -0.31957414452E+03  0.35948328385E+03  0.12509000000E+03 0.  0.
<mgrwt>
<rscale>  2 0.48454119E+03</rscale>
<asrwt>0</asrwt>
<pdfrwt beam="1">  1       21 0.98092890E-02 0.48454119E+03</pdfrwt>
<pdfrwt beam="2">  1       21 0.12940351E+00 0.48454119E+03</pdfrwt>
<totfact> 0.32969918E+04</totfact>
</mgrwt>
</event>
<event>
 7    0  0.4725730E-002  0.4430869E+03  0.7546771E-02  0.1029804E+00
         21   -1    0    0  502  501  0.00000000000E+00  0.00000000000E+00  0.11323939088E+04  0.11323939088E+04  0.00000000000E+00 0.  1.
         21   -1    0    0  501  502 -0.00000000000E+00 -0.00000000000E+00 -0.43343134656E+02  0.43343134656E+02  0.00000000000E+00 0.  1.
      99926    2    1    2    0    0  0.00000000000E+00  0.00000000000E+00  0.10890507741E+04  0.11757370434E+04  0.44308690647E+03 0.  0.
      99925    2    3    3    0    0  0.67529939272E+02  0.67331273005E+02  0.78619429552E+03  0.83446977610E+03  0.26295350139E+03 0.  0.
         25    1    4    4    0    0  0.64699064765E+02  0.60179141346E+02  0.47099193019E+03  0.49526599362E+03  0.12509000000E+03 0.  0.
         25    1    4    4    0    0  0.28308745066E+01  0.71521316589E+01  0.31520236533E+03  0.33920378248E+03  0.12509000000E+03 0.  0.
         25    1    3    3    0    0 -0.67529939272E+02 -0.67331273005E+02  0.30285647860E+03  0.34126726733E+03  0.12509000000E+03 0.  0.
<mgrwt>
<rscale>  2 0.44308691E+03</rscale>
<asrwt>0</asrwt>
<pdfrwt beam="1">  1       21 0.16652850E+00 0.44308691E+03</pdfrwt>
<pdfrwt beam="2">  1       21 0.63739911E-02 0.44308691E+03</pdfrwt>
<totfact> 0.36177871E+04</totfact>
</mgrwt>
</event>
<event>
 7    0  0.4725730E-002  0.4469709E+03  0.7546771E-02  0.1028629E+00
         21   -1    0    0  502  501  0.00000000000E+00  0.00000000000E+00  0.13052249303E+03  0.13052249303E+03  0.00000000000E+00 0.  1.
         21   -1    0    0  501  502 -0.00000000000E+00 -0.00000000000E+00 -0.38266006423E+03  0.38266006423E+03  0.00000000000E+00 0.  1.
      99926    2    1    2    0    0  0.17763568394E-14  0.00000000000E+00 -0.25213757120E+03  0.51318255726E+03  0.44697089644E+03 0.  0.
      99925    2    3    3    0    0  0.11666887735E+02  0.70099894436E+02 -0.70353040354E+02  0.28135668462E+03  0.26298654381E+03 0.  0.
         25    1    3    3    0    0 -0.11666887735E+02 -0.70099894436E+02 -0.18178453085E+03  0.23182587264E+03  0.12509000000E+03 0.  0.
         25    1    4    4    0    0 -0.13229623172E+02  0.20373819989E+02  0.34031032978E-01  0.12742693879E+03  0.12509000000E+03 0.  0.
         25    1    4    4    0    0  0.24896510907E+02  0.49726074447E+02 -0.70387071387E+02  0.15392974584E+03  0.12509000000E+03 0.  0.
<mgrwt>
<rscale>  2 0.44697090E+03</rscale>
<asrwt>0</asrwt>
<pdfrwt beam="1">  1       21 0.19194484E-01 0.44697090E+03</pdfrwt>
<pdfrwt beam="2">  1       21 0.56273539E-01 0.44697090E+03</pdfrwt>
<totfact> 0.68622653E+04</totfact>
</mgrwt>
</event>
<event>
 7    0  0.4725730E-002  0.4526382E+03  0.7546771E-02  0.1026938E+00
         21   -1    0    0  502  501  0.00000000000E+00  0.00000000000E+00  0.51560791572E+03  0.51560791572E+03  0.00000000000E+00 0.  1.
         21   -1    0    0  501  502 -0.00000000000E+00 -0.00000000000E+00 -0.99339706097E+02  0.99339706097E+02  0.00000000000E+00 0.  1.
      99926    2    1    2    0    0  0.35527136788E-14  0.00000000000E+00  0.41626820962E+03  0.61494762181E+03  0.45263821672E+03 0.  0.
      99925    2    3    3    0    0  0.23344776672E+02  0.10639930273E+03  0.23475699989E+03  0.36906224694E+03  0.26311651963E+03 0.  0.
         25    1    4    4    0    0  0.51156456908E+02  0.57371850739E+02  0.10794696542E+03  0.18223218098E+03  0.12509000000E+03 0.  0.
         25    1    3    3    0    0 -0.23344776672E+02 -0.10639930273E+03  0.18151120973E+03  0.24588537487E+03  0.12509000000E+03 0.  0.
         25    1    4    4    0    0 -0.27811680237E+02  0.49027451986E+02  0.12681003447E+03  0.18683006596E+03  0.12509000000E+03 0.  0.
<mgrwt>
<rscale>  2 0.45263822E+03</rscale>
<asrwt>0</asrwt>
<pdfrwt beam="1">  1       21 0.75824692E-01 0.45263822E+03</pdfrwt>
<pdfrwt beam="2">  1       21 0.14608781E-01 0.45263822E+03</pdfrwt>
<totfact> 0.58857696E+04</totfact>
</mgrwt>
</event>
<event>
 7    0  0.4725730E-002  0.4567002E+03  0.7546771E-02  0.1025743E+00
         21   -1    0    0  502  501  0.00000000000E+00  0.00000000000E+00  0.10090300542E+03  0.10090300542E+03  0.00000000000E+00 0.  1.
         21   -1    0    0  501  502 -0.00000000000E+00 -0.00000000000E+00 -0.51677127814E+03  0.51677127814E+03  0.00000000000E+00 0.  1.
      99926    2    1    2    0    0  0.00000000000E+00  0.00000000000E+00 -0.41586827272E+03  0.61767428356E+03  0.45670023026E+03 0.  0.
      99925    2    3    3    0    0 -0.43504333471E+02  0.90717294610E+02 -0.18670838373E+03  0.33788147201E+03  0.26302397990E+03 0.  0.
         25    1    4    4    0    0  0.12303625628E+02  0.21378538339E+02 -0.73900133597E+02  0.14736742839E+03  0.12509000000E+03 0.  0.
         25    1    4    4    0    0 -0.55807959099E+02  0.69338756270E+02 -0.11280825013E+03  0.19051404362E+03  0.12509000000E+03 0.  0.
         25    1    3    3    0    0  0.43504333471E+02 -0.90717294610E+02 -0.22915988899E+03  0.27979281155E+03  0.12509000000E+03 0.  0.
<mgrwt>
<rscale>  2 0.45670023E+03</rscale>
<asrwt>0</asrwt>
<pdfrwt beam="1">  1       21 0.14838678E-01 0.45670023E+03</pdfrwt>
<pdfrwt beam="2">  1       21 0.75995775E-01 0.45670023E+03</pdfrwt>
<totfact> 0.56836355E+04</totfact>
</mgrwt>
</event>
<event>
 7    0  0.4725730E-002  0.4396851E+03  0.7546771E-02  0.1030843E+00
         21   -1    0    0  502  501  0.00000000000E+00  0.00000000000E+00  0.10656233120E+04  0.10656233120E+04  0.00000000000E+00 0.  1.
         21   -1    0    0  501  502 -0.00000000000E+00 -0.00000000000E+00 -0.45354448066E+02  0.45354448066E+02  0.00000000000E+00 0.  1.
      99926    2    1    2    0    0 -0.14210854715E-13 -0.71054273576E-14  0.10202688639E+04  0.11109777600E+04  0.43968514717E+03 0.  0.
      99925    2    3    3    0    0  0.87288329193E+02  0.45156433032E+02  0.65895248859E+03  0.71619251838E+03  0.26278315264E+03 0.  0.
         25    1    3    3    0    0 -0.87288329193E+02 -0.45156433032E+02  0.36131637529E+03  0.39478524163E+03  0.12509000000E+03 0.  0.
         25    1    4    4    0    0  0.60822190647E+02  0.60442594607E+02  0.36725964365E+03  0.39734091165E+03  0.12509000000E+03 0.  0.
         25    1    4    4    0    0  0.26466138546E+02 -0.15286161575E+02  0.29169284494E+03  0.31885160673E+03  0.12509000000E+03 0.  0.
<mgrwt>
<rscale>  2 0.43968515E+03</rscale>
<asrwt>0</asrwt>
<pdfrwt beam="1">  1       21 0.15670929E+00 0.43968515E+03</pdfrwt>
<pdfrwt beam="2">  1       21 0.66697725E-02 0.43968515E+03</pdfrwt>
<totfact> 0.39638033E+04</totfact>
</mgrwt>
</event>
<event>
 7    0  0.4725730E-002  0.4626133E+03  0.7546771E-02  0.1024026E+00
         21   -1    0    0  502  501  0.00000000000E+00  0.00000000000E+00  0.28637458263E+03  0.28637458263E+03  0.00000000000E+00 0. -1.
         21   -1    0    0  501  502 -0.00000000000E+00 -0.00000000000E+00 -0.18682790405E+03  0.18682790405E+03  0.00000000000E+00 0. -1.
      99926    2    1    2    0    0  0.00000000000E+00 -0.14210854715E-13  0.99546678576E+02  0.47320248668E+03  0.46261328579E+03 0.  0.
      99925    2    3    3    0    0 -0.56279496600E+02  0.10295453585E+03  0.35770274623E+02  0.29022173362E+03  0.26302494925E+03 0.  0.
         25    1    4    4    0    0 -0.54031526196E+02  0.81768306044E+02  0.37672077174E+02  0.16331612044E+03  0.12509000000E+03 0.  0.
         25    1    4    4    0    0 -0.22479704035E+01  0.21186229804E+02 -0.19018025513E+01  0.12690561318E+03  0.12509000000E+03 0.  0.
         25    1    3    3    0    0  0.56279496600E+02 -0.10295453585E+03  0.63776403953E+02  0.18298075306E+03  0.12509000000E+03 0.  0.
<mgrwt>
<rscale>  2 0.46261329E+03</rscale>
<asrwt>0</asrwt>
<pdfrwt beam="1">  1       21 0.42113909E-01 0.46261329E+03</pdfrwt>
<pdfrwt beam="2">  1       21 0.27474692E-01 0.46261329E+03</pdfrwt>
<totfact> 0.63288083E+04</totfact>
</mgrwt>
</event>
<event>
 7    0  0.4725730E-002  0.4518498E+03  0.7546771E-02  0.1027172E+00
         21   -1    0    0  502  501  0.00000000000E+00  0.00000000000E+00  0.76082491251E+02  0.76082491251E+02  0.00000000000E+00 0.  1.
         21   -1    0    0  501  502 -0.00000000000E+00 -0.00000000000E+00 -0.67087773323E+03  0.67087773323E+03  0.00000000000E+00 0.  1.
      99926    2    1    2    0    0  0.14210854715E-13  0.00000000000E+00 -0.59479524198E+03  0.74696022448E+03  0.45184975056E+03 0.  0.
      99925    2    3    3    0    0 -0.79468974337E+02  0.46358563907E+02 -0.47571311982E+03  0.55127554382E+03  0.26293976213E+03 0.  0.
         25    1    4    4    0    0 -0.42431101311E+02  0.25771427446E+02 -0.16015107911E+03  0.20918996408E+03  0.12509000000E+03 0.  0.
         25    1    4    4    0    0 -0.37037873027E+02  0.20587136462E+02 -0.31556204071E+03  0.34208557974E+03  0.12509000000E+03 0.  0.
         25    1    3    3    0    0  0.79468974337E+02 -0.46358563907E+02 -0.11908212216E+03  0.19568468067E+03  0.12509000000E+03 0.  0.
<mgrwt>
<rscale>  2 0.45184975E+03</rscale>
<asrwt>0</asrwt>
<pdfrwt beam="1">  1       21 0.11188602E-01 0.45184975E+03</pdfrwt>
<pdfrwt beam="2">  1       21 0.98658491E-01 0.45184975E+03</pdfrwt>
<totfact> 0.51694537E+04</totfact>
</mgrwt>
</event>
<event>
 7    0  0.4725730E-002  0.4514494E+03  0.7546771E-02  0.1027291E+00
         21   -1    0    0  502  501  0.00000000000E+00  0.00000000000E+00  0.24320991016E+03  0.24320991016E+03  0.00000000000E+00 0. -1.
         21   -1    0    0  501  502 -0.00000000000E+00 -0.00000000000E+00 -0.20949653791E+03  0.20949653791E+03  0.00000000000E+00 0. -1.
      99926    2    1    2    0    0  0.00000000000E+00  0.00000000000E+00  0.33713372243E+02  0.45270644807E+03  0.45144937330E+03 0.  0.
      99925    2    3    3    0    0  0.71381844998E+02 -0.79555255350E+02 -0.39762594318E+01  0.28390946088E+03  0.26299118785E+03 0.  0.
         25    1    3    3    0    0 -0.71381844998E+02  0.79555255350E+02  0.37689631675E+02  0.16879698719E+03  0.12509000000E+03 0.  0.
         25    1    4    4    0    0 -0.54058847647E+01 -0.39492320711E+02 -0.97802818363E+01  0.13165116406E+03  0.12509000000E+03 0.  0.
         25    1    4    4    0    0  0.76787729763E+02 -0.40062934639E+02  0.58040224046E+01  0.15225829682E+03  0.12509000000E+03 0.  0.
<mgrwt>
<rscale>  2 0.45144937E+03</rscale>
<asrwt>0</asrwt>
<pdfrwt beam="1">  1       21 0.35766163E-01 0.45144937E+03</pdfrwt>
<pdfrwt beam="2">  1       21 0.30808314E-01 0.45144937E+03</pdfrwt>
<totfact> 0.70695829E+04</totfact>
</mgrwt>
</event>
<event>
 7    0  0.4725730E-002  0.4543581E+03  0.7546771E-02  0.1026430E+00
         21   -1    0    0  502  501  0.00000000000E+00  0.00000000000E+00  0.25562185380E+03  0.25562185380E+03  0.00000000000E+00 0.  1.
         21   -1    0    0  501  502 -0.00000000000E+00 -0.00000000000E+00 -0.20190107010E+03  0.20190107010E+03  0.00000000000E+00 0.  1.
      99926    2    1    2    0    0  0.00000000000E+00  0.00000000000E+00  0.53720783703E+02  0.45752292391E+03  0.45435812230E+03 0.  0.
      99925    2    3    3    0    0  0.67605529912E+02  0.13443718054E+02 -0.55844742844E+02  0.27751360765E+03  0.26295232629E+03 0.  0.
         25    1    4    4    0    0  0.49800249436E+02  0.72722863910E+01  0.94294340071E+01  0.13516424571E+03  0.12509000000E+03 0.  0.
         25    1    3    3    0    0 -0.67605529912E+02 -0.13443718054E+02  0.10956552655E+03  0.18000931625E+03  0.12509000000E+03 0.  0.
         25    1    4    4    0    0  0.17805280476E+02  0.61714316630E+01 -0.65274176851E+02  0.14234936194E+03  0.12509000000E+03 0.  0.
<mgrwt>
<rscale>  2 0.45435812E+03</rscale>
<asrwt>0</asrwt>
<pdfrwt beam="1">  1       21 0.37591449E-01 0.45435812E+03</pdfrwt>
<pdfrwt beam="2">  1       21 0.29691334E-01 0.45435812E+03</pdfrwt>
<totfact> 0.68712467E+04</totfact>
</mgrwt>
</event>
<event>
 7    0  0.4725730E-002  0.4665092E+03  0.7546771E-02  0.1022910E+00
         21   -1    0    0  502  501  0.00000000000E+00  0.00000000000E+00  0.16602717940E+03  0.16602717940E+03  0.00000000000E+00 0.  1.
         21   -1    0    0  501  502 -0.00000000000E+00 -0.00000000000E+00 -0.32770356217E+03  0.32770356217E+03  0.00000000000E+00 0.  1.
      99926    2    1    2    0    0 -0.14210854715E-13  0.00000000000E+00 -0.16167638277E+03  0.49373074157E+03  0.46650915578E+03 0.  0.
      99925    2    3    3    0    0 -0.87442821692E+02 -0.52637493153E+02 -0.26708851461E+02  0.28330095433E+03  0.26292416250E+03 0.  0.
         25    1    3    3    0    0  0.87442821692E+02  0.52637493153E+02 -0.13496753131E+03  0.21042978724E+03  0.12509000000E+03 0.  0.
         25    1    4    4    0    0 -0.84450103079E+02 -0.39283078394E+02 -0.20660687401E+02  0.15731926857E+03  0.12509000000E+03 0.  0.
         25    1    4    4    0    0 -0.29927186136E+01 -0.13354414759E+02 -0.60481640594E+01  0.12598168576E+03  0.12509000000E+03 0.  0.
<mgrwt>
<rscale>  2 0.46650916E+03</rscale>
<asrwt>0</asrwt>
<pdfrwt beam="1">  1       21 0.24415762E-01 0.46650916E+03</pdfrwt>
<pdfrwt beam="2">  1       21 0.48191700E-01 0.46650916E+03</pdfrwt>
<totfact> 0.60037672E+04</totfact>
</mgrwt>
</event>
<event>
 7    0  0.4725730E-002  0.4580558E+03  0.7546771E-02  0.1025347E+00
         21   -1    0    0  502  501  0.00000000000E+00  0.00000000000E+00  0.10241438972E+03  0.10241438972E+03  0.00000000000E+00 0.  1.
         21   -1    0    0  501  502 -0.00000000000E+00 -0.00000000000E+00 -0.51217204619E+03  0.51217204619E+03  0.00000000000E+00 0.  1.
      99926    2    1    2    0    0 -0.71054273576E-14  0.00000000000E+00 -0.40975765646E+03  0.61458643591E+03  0.45805583740E+03 0.  0.
      99925    2    3    3    0    0 -0.52856355658E+02  0.92505023619E+02 -0.31872711983E+03  0.42674330873E+03  0.26300551497E+03 0.  0.
         25    1    3    3    0    0  0.52856355658E+02 -0.92505023619E+02 -0.91030536634E+02  0.18784312718E+03  0.12509000000E+03 0.  0.
         25    1    4    4    0    0  0.97069530330E+01  0.29940942633E+02 -0.12358538308E+03  0.17863801386E+03  0.12509000000E+03 0.  0.
         25    1    4    4    0    0 -0.62563308690E+02  0.62564080986E+02 -0.19514173675E+03  0.24810529487E+03  0.12509000000E+03 0.  0.
<mgrwt>
<rscale>  2 0.45805584E+03</rscale>
<asrwt>0</asrwt>
<pdfrwt beam="1">  1       21 0.15060940E-01 0.45805584E+03</pdfrwt>
<pdfrwt beam="2">  1       21 0.75319419E-01 0.45805584E+03</pdfrwt>
<totfact> 0.56415341E+04</totfact>
</mgrwt>
</event>
<event>
 7    0  0.4725730E-002  0.4487597E+03  0.7546771E-02  0.1028093E+00
         21   -1    0    0  502  501  0.00000000000E+00  0.00000000000E+00  0.74996723798E+02  0.74996723798E+02  0.00000000000E+00 0. -1.
         21   -1    0    0  501  502 -0.00000000000E+00 -0.00000000000E+00 -0.67131349878E+03  0.67131349878E+03  0.00000000000E+00 0. -1.
      99926    2    1    2    0    0 -0.71054273576E-14 -0.71054273576E-14 -0.59631677498E+03  0.74631022258E+03  0.44875968201E+03 0.  0.
      99925    2    3    3    0    0 -0.40318167630E+02 -0.31979753635E+02 -0.53418025382E+03  0.59745890533E+03  0.26260300970E+03 0.  0.
         25    1    3    3    0    0  0.40318167630E+02  0.31979753635E+02 -0.62136521163E+02  0.14885131725E+03  0.12509000000E+03 0.  0.
         25    1    4    4    0    0 -0.40923914348E+02 -0.11460288722E+02 -0.19662099458E+03  0.23688273173E+03  0.12509000000E+03 0.  0.
         25    1    4    4    0    0  0.60574671763E+00 -0.20519464913E+02 -0.33755925924E+03  0.36057617360E+03  0.12509000000E+03 0.  0.
<mgrwt>
<rscale>  2 0.44875968E+03</rscale>
<asrwt>0</asrwt>
<pdfrwt beam="1">  1       21 0.11028930E-01 0.44875968E+03</pdfrwt>
<pdfrwt beam="2">  1       21 0.98722577E-01 0.44875968E+03</pdfrwt>
<totfact> 0.53012471E+04</totfact>
</mgrwt>
</event>
<event>
 7    0  0.4725730E-002  0.4573236E+03  0.7546771E-02  0.1025560E+00
         21   -1    0    0  502  501  0.00000000000E+00  0.00000000000E+00  0.11190855213E+03  0.11190855213E+03  0.00000000000E+00 0. -1.
         21   -1    0    0  501  502 -0.00000000000E+00 -0.00000000000E+00 -0.46722266624E+03  0.46722266624E+03  0.00000000000E+00 0. -1.
      99926    2    1    2    0    0  0.00000000000E+00  0.00000000000E+00 -0.35531411411E+03  0.57913121837E+03  0.45732357080E+03 0.  0.
      99925    2    3    3    0    0 -0.10264010712E+03  0.36134157894E+02 -0.17566328256E+03  0.33466731852E+03  0.26325644586E+03 0.  0.
         25    1    4    4    0    0 -0.25402267991E+02 -0.15038792781E+02 -0.90875646799E+02  0.15740816938E+03  0.12509000000E+03 0.  0.
         25    1    3    3    0    0  0.10264010712E+03 -0.36134157894E+02 -0.17965083155E+03  0.24446389985E+03  0.12509000000E+03 0.  0.
         25    1    4    4    0    0 -0.77237839125E+02  0.51172950676E+02 -0.84787635763E+02  0.17725914913E+03  0.12509000000E+03 0.  0.
<mgrwt>
<rscale>  2 0.45732357E+03</rscale>
<asrwt>0</asrwt>
<pdfrwt beam="1">  1       21 0.16457140E-01 0.45732357E+03</pdfrwt>
<pdfrwt beam="2">  1       21 0.68709216E-01 0.45732357E+03</pdfrwt>
<totfact> 0.58892208E+04</totfact>
</mgrwt>
</event>
<event>
 7    0  0.4725730E-002  0.4842822E+03  0.7546771E-02  0.1017965E+00
         21   -1    0    0  502  501  0.00000000000E+00  0.00000000000E+00  0.55699603592E+02  0.55699603592E+02  0.00000000000E+00 0.  1.
         21   -1    0    0  501  502 -0.00000000000E+00 -0.00000000000E+00 -0.10526522220E+04  0.10526522220E+04  0.00000000000E+00 0.  1.
      99926    2    1    2    0    0 -0.71054273576E-14 -0.14210854715E-13 -0.99695261837E+03  0.11083518256E+04  0.48428219659E+03 0.  0.
      99925    2    3    3    0    0 -0.19159292487E+02 -0.95642009558E+02 -0.83828111460E+03  0.88398911321E+03  0.26307233360E+03 0.  0.
         25    1    3    3    0    0  0.19159292487E+02  0.95642009558E+02 -0.15867150378E+03  0.22436271235E+03  0.12509000000E+03 0.  0.
         25    1    4    4    0    0  0.13719278894E+02 -0.52270746054E+02 -0.31482250190E+03  0.34304688500E+03  0.12509000000E+03 0.  0.
         25    1    4    4    0    0 -0.32878571381E+02 -0.43371263504E+02 -0.52345861270E+03  0.54094222821E+03  0.12509000000E+03 0.  0.
<mgrwt>
<rscale>  2 0.48428220E+03</rscale>
<asrwt>0</asrwt>
<pdfrwt beam="1">  1       21 0.81911182E-02 0.48428220E+03</pdfrwt>
<pdfrwt beam="2">  1       21 0.15480180E+00 0.48428220E+03</pdfrwt>
<totfact> 0.28193764E+04</totfact>
</mgrwt>
</event>
<event>
 7    0  0.4725730E-002  0.4635186E+03  0.7546771E-02  0.1023766E+00
         21   -1    0    0  502  501  0.00000000000E+00  0.00000000000E+00  0.49155059788E+02  0.49155059788E+02  0.00000000000E+00 0. -1.
         21   -1    0    0  501  502 -0.00000000000E+00 -0.00000000000E+00 -0.10927128234E+04  0.10927128234E+04  0.00000000000E+00 0. -1.
      99926    2    1    2    0    0  0.00000000000E+00  0.14210854715E-13 -0.10435577636E+04  0.11418678832E+04  0.46351856129E+03 0.  0.
      99925    2    3    3    0    0  0.18091947634E+02  0.81593883581E+02 -0.43657811317E+03  0.51652263090E+03  0.26307850335E+03 0.  0.
         25    1    4    4    0    0  0.45568829000E+02  0.59918184087E+02 -0.23943752067E+03  0.28043634102E+03  0.12509000000E+03 0.  0.
         25    1    3    3    0    0 -0.18091947634E+02 -0.81593883581E+02 -0.60697965046E+03  0.62534525230E+03  0.12509000000E+03 0.  0.
         25    1    4    4    0    0 -0.27476881366E+02  0.21675699494E+02 -0.19714059250E+03  0.23608628988E+03  0.12509000000E+03 0.  0.
<mgrwt>
<rscale>  2 0.46351856E+03</rscale>
<asrwt>0</asrwt>
<pdfrwt beam="1">  1       21 0.72286858E-02 0.46351856E+03</pdfrwt>
<pdfrwt beam="2">  1       21 0.16069305E+00 0.46351856E+03</pdfrwt>
<totfact> 0.31884807E+04</totfact>
</mgrwt>
</event>
<event>
 7    0  0.4725730E-002  0.4598281E+03  0.7546771E-02  0.1024831E+00
         21   -1    0    0  502  501  0.00000000000E+00  0.00000000000E+00  0.41579484667E+03  0.41579484667E+03  0.00000000000E+00 0.  1.
         21   -1    0    0  501  502 -0.00000000000E+00 -0.00000000000E+00 -0.12713115604E+03  0.12713115604E+03  0.00000000000E+00 0.  1.
      99926    2    1    2    0    0 -0.17763568394E-14  0.17763568394E-14  0.28866369063E+03  0.54292600271E+03  0.45982813978E+03 0.  0.
      99925    2    3    3    0    0  0.94088210626E+01  0.10101009856E+02  0.42881201552E+02  0.26679723501E+03  0.26296655842E+03 0.  0.
         25    1    3    3    0    0 -0.94088210626E+01 -0.10101009856E+02  0.24578248908E+03  0.27612876770E+03  0.12509000000E+03 0.  0.
         25    1    4    4    0    0  0.11069979992E+02 -0.10797062118E+02  0.58588744294E+02  0.13899377707E+03  0.12509000000E+03 0.  0.
         25    1    4    4    0    0 -0.16611589294E+01  0.20898071974E+02 -0.15707542742E+02  0.12780345794E+03  0.12509000000E+03 0.  0.
<mgrwt>
<rscale>  2 0.45982814E+03</rscale>
<asrwt>0</asrwt>
<pdfrwt beam="1">  1       21 0.61146300E-01 0.45982814E+03</pdfrwt>
<pdfrwt beam="2">  1       21 0.18695758E-01 0.45982814E+03</pdfrwt>
<totfact> 0.60010492E+04</totfact>
</mgrwt>
</event>
<event>
 7    0  0.4725730E-002  0.4478027E+03  0.7546771E-02  0.1028379E+00
         21   -1    0    0  502  501  0.00000000000E+00  0.00000000000E+00  0.53543476630E+02  0.53543476630E+02  0.00000000000E+00 0. -1.
         21   -1    0    0  501  502 -0.00000000000E+00 -0.00000000000E+00 -0.93628233246E+03  0.93628233246E+03  0.00000000000E+00 0. -1.
      99926    2    1    2    0    0  0.00000000000E+00  0.00000000000E+00 -0.88273885583E+03  0.98982580909E+03  0.44780268506E+03 0.  0.
      99925    2    3    3    0    0  0.51625645389E+02  0.73273825038E+02 -0.68546603400E+03  0.73962921633E+03  0.26297040362E+03 0.  0.
         25    1    3    3    0    0 -0.51625645389E+02 -0.73273825038E+02 -0.19727282183E+03  0.25019659276E+03  0.12509000000E+03 0.  0.
         25    1    4    4    0    0  0.53626654180E+02  0.17432517094E+02 -0.28355238616E+03  0.31500662610E+03  0.12509000000E+03 0.  0.
         25    1    4    4    0    0 -0.20010087906E+01  0.55841307944E+02 -0.40191364784E+03  0.42462259023E+03  0.12509000000E+03 0.  0.
<mgrwt>
<rscale>  2 0.44780269E+03</rscale>
<asrwt>0</asrwt>
<pdfrwt beam="1">  1       21 0.78740408E-02 0.44780269E+03</pdfrwt>
<pdfrwt beam="2">  1       21 0.13768858E+00 0.44780269E+03</pdfrwt>
<totfact> 0.41869523E+04</totfact>
</mgrwt>
</event>
<event>
 7    0  0.4725730E-002  0.4526954E+03  0.7546771E-02  0.1026921E+00
         21   -1    0    0  502  501  0.00000000000E+00  0.00000000000E+00  0.72503078577E+03  0.72503078577E+03  0.00000000000E+00 0.  1.
         21   -1    0    0  501  502 -0.00000000000E+00 -0.00000000000E+00 -0.70663584570E+02  0.70663584570E+02  0.00000000000E+00 0.  1.
      99926    2    1    2    0    0  0.00000000000E+00  0.71054273576E-14  0.65436720120E+03  0.79569437034E+03  0.45269536886E+03 0.  0.
      99925    2    3    3    0    0 -0.10561595110E+03  0.34583285779E+02  0.41573433097E+03  0.50424302339E+03  0.26282172648E+03 0.  0.
         25    1    3    3    0    0  0.10561595110E+03 -0.34583285779E+02  0.23863287023E+03  0.29145134695E+03  0.12509000000E+03 0.  0.
         25    1    4    4    0    0 -0.43438122249E+02 -0.70534330333E+01  0.14314011321E+03  0.19512360568E+03  0.12509000000E+03 0.  0.
         25    1    4    4    0    0 -0.62177828854E+02  0.41636718813E+02  0.27259421775E+03  0.30911941771E+03  0.12509000000E+03 0.  0.
<mgrwt>
<rscale>  2 0.45269537E+03</rscale>
<asrwt>0</asrwt>
<pdfrwt beam="1">  1       21 0.10662217E+00 0.45269537E+03</pdfrwt>
<pdfrwt beam="2">  1       21 0.10391704E-01 0.45269537E+03</pdfrwt>
<totfact> 0.48851375E+04</totfact>
</mgrwt>
</event>
<event>
 7    0  0.4725730E-002  0.4589900E+03  0.7546771E-02  0.1025075E+00
         21   -1    0    0  502  501  0.00000000000E+00  0.00000000000E+00  0.14218146914E+03  0.14218146914E+03  0.00000000000E+00 0. -1.
         21   -1    0    0  501  502 -0.00000000000E+00 -0.00000000000E+00 -0.37042777280E+03  0.37042777280E+03  0.00000000000E+00 0. -1.
      99926    2    1    2    0    0  0.00000000000E+00  0.00000000000E+00 -0.22824630365E+03  0.51260924194E+03  0.45899004323E+03 0.  0.
      99925    2    3    3    0    0 -0.10333635355E+03  0.36845856538E+02 -0.18708793037E+03  0.34121047035E+03  0.26341350057E+03 0.  0.
         25    1    3    3    0    0  0.10333635355E+03 -0.36845856538E+02 -0.41158373288E+02  0.17139877158E+03  0.12509000000E+03 0.  0.
         25    1    4    4    0    0 -0.26386500883E+02  0.42777666650E+02 -0.11642072837E+03  0.17812206569E+03  0.12509000000E+03 0.  0.
         25    1    4    4    0    0 -0.76949852666E+02 -0.59318101117E+01 -0.70667201996E+02  0.16308840466E+03  0.12509000000E+03 0.  0.
<mgrwt>
<rscale>  2 0.45899004E+03</rscale>
<asrwt>0</asrwt>
<pdfrwt beam="1">  1       21 0.20909040E-01 0.45899004E+03</pdfrwt>
<pdfrwt beam="2">  1       21 0.54474671E-01 0.45899004E+03</pdfrwt>
<totfact> 0.62394295E+04</totfact>
</mgrwt>
</event>
<event>
 7    0  0.4725730E-002  0.4249458E+03  0.7546771E-02  0.1035469E+00
         21   -1    0    0  502  501  0.00000000000E+00  0.00000000000E+00  0.26711382180E+03  0.26711382180E+03  0.00000000000E+00 0. -1.
         21   -1    0    0  501  502 -0.00000000000E+00 -0.00000000000E+00 -0.16900938029E+03  0.16900938029E+03  0.00000000000E+00 0. -1.
      99926    2    1    2    0    0  0.00000000000E+00  0.35527136788E-14  0.98104441510E+02  0.43612320209E+03  0.42494583885E+03 0.  0.
      99925    2    3    3    0    0  0.19336233415E+01  0.28779780106E+01  0.14740511554E+03  0.30162381095E+03  0.26312854954E+03 0.  0.
         25    1    4    4    0    0  0.18608715028E+01  0.37075276661E+02  0.51258111032E+02  0.14018894760E+03  0.12509000000E+03 0.  0.
         25    1    4    4    0    0  0.72751838761E-01 -0.34197298651E+02  0.96147004511E+02  0.16143486335E+03  0.12509000000E+03 0.  0.
         25    1    3    3    0    0 -0.19336233415E+01 -0.28779780106E+01 -0.49300674033E+02  0.13449939114E+03  0.12509000000E+03 0.  0.
<mgrwt>
<rscale>  2 0.42494584E+03</rscale>
<asrwt>0</asrwt>
<pdfrwt beam="1">  1       21 0.39281445E-01 0.42494584E+03</pdfrwt>
<pdfrwt beam="2">  1       21 0.24854320E-01 0.42494584E+03</pdfrwt>
<totfact> 0.89558637E+04</totfact>
</mgrwt>
</event>
<event>
 7    0  0.4725730E-002  0.4406232E+03  0.7546771E-02  0.1030556E+00
         21   -1    0    0  502  501  0.00000000000E+00  0.00000000000E+00  0.12104946681E+03  0.12104946681E+03  0.00000000000E+00 0. -1.
         21   -1    0    0  501  502 -0.00000000000E+00 -0.00000000000E+00 -0.40096992407E+03  0.40096992407E+03  0.00000000000E+00 0. -1.
      99926    2    1    2    0    0  0.76327832943E-15  0.14210854715E-13 -0.27992045726E+03  0.52201939088E+03  0.44062317468E+03 0.  0.
      99925    2    3    3    0    0 -0.78520216696E-01  0.94959708584E+02 -0.14649033149E+03  0.31594062200E+03  0.26332813559E+03 0.  0.
         25    1    4    4    0    0 -0.29581465513E+02  0.17441845895E+02 -0.72509692841E+02  0.14860836028E+03  0.12509000000E+03 0.  0.
         25    1    4    4    0    0  0.29502945296E+02  0.77517862688E+02 -0.73980638647E+02  0.16733226172E+03  0.12509000000E+03 0.  0.
         25    1    3    3    0    0  0.78520216696E-01 -0.94959708584E+02 -0.13343012577E+03  0.20607876888E+03  0.12509000000E+03 0.  0.
<mgrwt>
<rscale>  2 0.44062317E+03</rscale>
<asrwt>0</asrwt>
<pdfrwt beam="1">  1       21 0.17801392E-01 0.44062317E+03</pdfrwt>
<pdfrwt beam="2">  1       21 0.58966166E-01 0.44062317E+03</pdfrwt>
<totfact> 0.71558236E+04</totfact>
</mgrwt>
</event>
<event>
 7    0  0.4725730E-002  0.4585900E+03  0.7546771E-02  0.1025191E+00
         21   -1    0    0  502  501  0.00000000000E+00  0.00000000000E+00  0.92922549215E+03  0.92922549215E+03  0.00000000000E+00 0.  1.
         21   -1    0    0  501  502 -0.00000000000E+00 -0.00000000000E+00 -0.56580672147E+02  0.56580672147E+02  0.00000000000E+00 0.  1.
      99926    2    1    2    0    0  0.00000000000E+00  0.00000000000E+00  0.87264482000E+03  0.98580616429E+03  0.45859002572E+03 0.  0.
      99925    2    3    3    0    0 -0.10651565660E+03 -0.18892740728E+02  0.64431984493E+03  0.70388006920E+03  0.26190946622E+03 0.  0.
         25    1    4    4    0    0 -0.20095702648E+02 -0.30168425256E+02  0.32121356671E+03  0.34661164822E+03  0.12509000000E+03 0.  0.
         25    1    3    3    0    0  0.10651565660E+03  0.18892740728E+02  0.22832497507E+03  0.28192609509E+03  0.12509000000E+03 0.  0.
         25    1    4    4    0    0 -0.86419953948E+02  0.11275684528E+02  0.32310627822E+03  0.35726842098E+03  0.12509000000E+03 0.  0.
<mgrwt>
<rscale>  2 0.45859003E+03</rscale>
<asrwt>0</asrwt>
<pdfrwt beam="1">  1       21 0.13665080E+00 0.45859003E+03</pdfrwt>
<pdfrwt beam="2">  1       21 0.83206876E-02 0.45859003E+03</pdfrwt>
<totfact> 0.38628204E+04</totfact>
</mgrwt>
</event>
<event>
 7    0  0.4725730E-002  0.4549739E+03  0.7546771E-02  0.1026249E+00
         21   -1    0    0  502  501  0.00000000000E+00  0.00000000000E+00  0.15557841650E+02  0.15557841650E+02  0.00000000000E+00 0.  1.
         21   -1    0    0  501  502 -0.00000000000E+00 -0.00000000000E+00 -0.33263176723E+04  0.33263176723E+04  0.00000000000E+00 0.  1.
      99926    2    1    2    0    0  0.00000000000E+00 -0.17763568394E-14 -0.33107598306E+04  0.33418755139E+04  0.45497394924E+03 0.  0.
      99925    2    3    3    0    0 -0.11079282333E+03  0.41722802697E+01 -0.22497522929E+04  0.22677819608E+04  0.26297753661E+03 0.  0.
         25    1    3    3    0    0  0.11079282333E+03 -0.41722802697E+01 -0.10610075377E+04  0.10740935531E+04  0.12509000000E+03 0.  0.
         25    1    4    4    0    0 -0.33230118110E+02 -0.32632485452E+02 -0.10109164562E+04  0.10196904969E+04  0.12509000000E+03 0.  0.
         25    1    4    4    0    0 -0.77562705220E+02  0.36804765722E+02 -0.12388358367E+04  0.12480914639E+04  0.12509000000E+03 0.  0.
<mgrwt>
<rscale>  2 0.45497395E+03</rscale>
<asrwt>0</asrwt>
<pdfrwt beam="1">  1       21 0.22879180E-02 0.45497395E+03</pdfrwt>
<pdfrwt beam="2">  1       21 0.48916434E+00 0.45497395E+03</pdfrwt>
<totfact> 0.17509258E+03</totfact>
</mgrwt>
</event>
<event>
 7    0  0.4725730E-002  0.4598687E+03  0.7546771E-02  0.1024819E+00
         21   -1    0    0  502  501  0.00000000000E+00  0.00000000000E+00  0.38731091294E+03  0.38731091294E+03  0.00000000000E+00 0. -1.
         21   -1    0    0  501  502 -0.00000000000E+00 -0.00000000000E+00 -0.13650478918E+03  0.13650478918E+03  0.00000000000E+00 0. -1.
      99926    2    1    2    0    0  0.00000000000E+00 -0.35527136788E-14  0.25080612376E+03  0.52381570213E+03  0.45986865307E+03 0.  0.
      99925    2    3    3    0    0 -0.66448955046E+02  0.21278561843E+02  0.49129682078E+02  0.27645132302E+03  0.26295126453E+03 0.  0.
         25    1    3    3    0    0  0.66448955046E+02 -0.21278561843E+02  0.20167644168E+03  0.24736437911E+03  0.12509000000E+03 0.  0.
         25    1    4    4    0    0 -0.36158870509E+02  0.25223990998E+02 -0.13398342167E+02  0.13330692897E+03  0.12509000000E+03 0.  0.
         25    1    4    4    0    0 -0.30290084537E+02 -0.39454291548E+01  0.62528024244E+02  0.14314439405E+03  0.12509000000E+03 0.  0.
<mgrwt>
<rscale>  2 0.45986865E+03</rscale>
<asrwt>0</asrwt>
<pdfrwt beam="1">  1       21 0.56957487E-01 0.45986865E+03</pdfrwt>
<pdfrwt beam="2">  1       21 0.20074234E-01 0.45986865E+03</pdfrwt>
<totfact> 0.61228616E+04</totfact>
</mgrwt>
</event>
<event>
 7    0  0.4725730E-002  0.4534223E+03  0.7546771E-02  0.1026706E+00
         21   -1    0    0  502  501  0.00000000000E+00  0.00000000000E+00  0.35568685784E+03  0.35568685784E+03  0.00000000000E+00 0. -1.
         21   -1    0    0  501  502 -0.00000000000E+00 -0.00000000000E+00 -0.14450334914E+03  0.14450334914E+03  0.00000000000E+00 0. -1.
      99926    2    1    2    0    0  0.88817841970E-15  0.44408920985E-15  0.21118350869E+03  0.50019020698E+03  0.45342228531E+03 0.  0.
      99925    2    3    3    0    0 -0.66216152256E+01  0.20692112391E+01  0.99926976443E+01  0.26318097093E+03  0.26289968054E+03 0.  0.
         25    1    4    4    0    0  0.17941149604E+02  0.15822108854E+02  0.36009454173E+02  0.13234958582E+03  0.12509000000E+03 0.  0.
         25    1    4    4    0    0 -0.24562764830E+02 -0.13752897615E+02 -0.26016756529E+02  0.13083138511E+03  0.12509000000E+03 0.  0.
         25    1    3    3    0    0  0.66216152256E+01 -0.20692112391E+01  0.20119081105E+03  0.23700923605E+03  0.12509000000E+03 0.  0.
<mgrwt>
<rscale>  2 0.45342229E+03</rscale>
<asrwt>0</asrwt>
<pdfrwt beam="1">  1       21 0.52306891E-01 0.45342229E+03</pdfrwt>
<pdfrwt beam="2">  1       21 0.21250493E-01 0.45342229E+03</pdfrwt>
<totfact> 0.66081014E+04</totfact>
</mgrwt>
</event>
<event>
 7    0  0.4725730E-002  0.4513175E+03  0.7546771E-02  0.1027330E+00
         21   -1    0    0  502  501  0.00000000000E+00  0.00000000000E+00  0.35059382967E+03  0.35059382967E+03  0.00000000000E+00 0.  1.
         21   -1    0    0  501  502 -0.00000000000E+00 -0.00000000000E+00 -0.14524462829E+03  0.14524462829E+03  0.00000000000E+00 0.  1.
      99926    2    1    2    0    0  0.35527136788E-14 -0.14210854715E-13  0.20534920138E+03  0.49583845796E+03  0.45131749565E+03 0.  0.
      99925    2    3    3    0    0 -0.28626441316E+02  0.10299333289E+03  0.10300897248E+03  0.30206505856E+03  0.26306910010E+03 0.  0.
         25    1    3    3    0    0  0.28626441316E+02 -0.10299333289E+03  0.10234022889E+03  0.19377339939E+03  0.12509000000E+03 0.  0.
         25    1    4    4    0    0  0.16711423247E+02  0.65136168778E+02  0.76154135184E+02  0.16114885217E+03  0.12509000000E+03 0.  0.
         25    1    4    4    0    0 -0.45337864563E+02  0.37857164114E+02  0.26854837300E+02  0.14091620639E+03  0.12509000000E+03 0.  0.
<mgrwt>
<rscale>  2 0.45131750E+03</rscale>
<asrwt>0</asrwt>
<pdfrwt beam="1">  1       21 0.51557916E-01 0.45131750E+03</pdfrwt>
<pdfrwt beam="2">  1       21 0.21359504E-01 0.45131750E+03</pdfrwt>
<totfact> 0.67516223E+04</totfact>
</mgrwt>
</event>
<event>
 7    0  0.4725730E-002  0.4522040E+03  0.7546771E-02  0.1027067E+00
         21   -1    0    0  502  501  0.00000000000E+00  0.00000000000E+00  0.14784171928E+03  0.14784171928E+03  0.00000000000E+00 0.  1.
         21   -1    0    0  501  502 -0.00000000000E+00 -0.00000000000E+00 -0.34578943399E+03  0.34578943399E+03  0.00000000000E+00 0.  1.
      99926    2    1    2    0    0  0.71054273576E-14  0.00000000000E+00 -0.19794771471E+03  0.49363115328E+03  0.45220395589E+03 0.  0.
      99925    2    3    3    0    0  0.56529013131E+02  0.94731137561E+02 -0.12227232864E+03  0.31048151526E+03  0.26320853181E+03 0.  0.
         25    1    4    4    0    0 -0.12226825494E+02  0.44331688356E+02 -0.46125147578E+02  0.14103131281E+03  0.12509000000E+03 0.  0.
         25    1    3    3    0    0 -0.56529013131E+02 -0.94731137561E+02 -0.75675386073E+02  0.18314963802E+03  0.12509000000E+03 0.  0.
         25    1    4    4    0    0  0.68755838624E+02  0.50399449205E+02 -0.76147181063E+02  0.16945020245E+03  0.12509000000E+03 0.  0.
<mgrwt>
<rscale>  2 0.45220396E+03</rscale>
<asrwt>0</asrwt>
<pdfrwt beam="1">  1       21 0.21741429E-01 0.45220396E+03</pdfrwt>
<pdfrwt beam="2">  1       21 0.50851388E-01 0.45220396E+03</pdfrwt>
<totfact> 0.67199697E+04</totfact>
</mgrwt>
</event>
<event>
 7    0  0.4725730E-002  0.4714318E+03  0.7546771E-02  0.1021517E+00
         21   -1    0    0  502  501  0.00000000000E+00  0.00000000000E+00  0.30933178856E+03  0.30933178856E+03  0.00000000000E+00 0. -1.
         21   -1    0    0  501  502 -0.00000000000E+00 -0.00000000000E+00 -0.17961935826E+03  0.17961935826E+03  0.00000000000E+00 0. -1.
      99926    2    1    2    0    0 -0.14210854715E-13  0.00000000000E+00  0.12971243030E+03  0.48895114682E+03  0.47143176538E+03 0.  0.
      99925    2    3    3    0    0 -0.11881369969E+03 -0.38517080971E+02  0.10912447956E+03  0.31098589017E+03  0.26306617245E+03 0.  0.
         25    1    3    3    0    0  0.11881369969E+03  0.38517080971E+02  0.20587950744E+02  0.17796525665E+03  0.12509000000E+03 0.  0.
         25    1    4    4    0    0 -0.71031075577E+02  0.14724211391E+02  0.75017034740E+02  0.16290266941E+03  0.12509000000E+03 0.  0.
         25    1    4    4    0    0 -0.47782624112E+02 -0.53241292362E+02  0.34107444817E+02  0.14808322076E+03  0.12509000000E+03 0.  0.
<mgrwt>
<rscale>  2 0.47143177E+03</rscale>
<asrwt>0</asrwt>
<pdfrwt beam="1">  1       21 0.45489969E-01 0.47143177E+03</pdfrwt>
<pdfrwt beam="2">  1       21 0.26414611E-01 0.47143177E+03</pdfrwt>
<totfact> 0.58098959E+04</totfact>
</mgrwt>
</event>
<event>
 7    0  0.4725730E-002  0.4501536E+03  0.7546771E-02  0.1027676E+00
         21   -1    0    0  502  501  0.00000000000E+00  0.00000000000E+00  0.71665854841E+02  0.71665854841E+02  0.00000000000E+00 0.  1.
         21   -1    0    0  501  502 -0.00000000000E+00 -0.00000000000E+00 -0.70688557040E+03  0.70688557040E+03  0.00000000000E+00 0.  1.
      99926    2    1    2    0    0  0.00000000000E+00  0.00000000000E+00 -0.63521971556E+03  0.77855142524E+03  0.45015356792E+03 0.  0.
      99925    2    3    3    0    0 -0.69821758232E+02 -0.82817577052E+02 -0.41120255556E+03  0.50004644312E+03  0.26310658408E+03 0.  0.
         25    1    4    4    0    0 -0.28032905032E+02 -0.42635819032E+02 -0.13312407492E+03  0.18966598075E+03  0.12509000000E+03 0.  0.
         25    1    4    4    0    0 -0.41788853200E+02 -0.40181758020E+02 -0.27807848064E+03  0.31038046237E+03  0.12509000000E+03 0.  0.
         25    1    3    3    0    0  0.69821758232E+02  0.82817577052E+02 -0.22401716000E+03  0.27850498212E+03  0.12509000000E+03 0.  0.
<mgrwt>
<rscale>  2 0.45015357E+03</rscale>
<asrwt>0</asrwt>
<pdfrwt beam="1">  1       21 0.10539097E-01 0.45015357E+03</pdfrwt>
<pdfrwt beam="2">  1       21 0.10395376E+00 0.45015357E+03</pdfrwt>
<totfact> 0.50721975E+04</totfact>
</mgrwt>
</event>
<event>
 7    0  0.4725730E-002  0.4789027E+03  0.7546771E-02  0.1019437E+00
         21   -1    0    0  502  501  0.00000000000E+00  0.00000000000E+00  0.91020555670E+03  0.91020555670E+03  0.00000000000E+00 0.  1.
         21   -1    0    0  501  502 -0.00000000000E+00 -0.00000000000E+00 -0.62993415205E+02  0.62993415205E+02  0.00000000000E+00 0.  1.
      99926    2    1    2    0    0  0.00000000000E+00  0.28421709430E-13  0.84721214150E+03  0.97319897191E+03  0.47890273148E+03 0.  0.
      99925    2    3    3    0    0  0.58884403720E+01 -0.13039481796E+03  0.58744171299E+03  0.65670937348E+03  0.26294857441E+03 0.  0.
         25    1    4    4    0    0  0.10718513028E+02 -0.34237929481E+02  0.32994144777E+03  0.35467730318E+03  0.12509000000E+03 0.  0.
         25    1    4    4    0    0 -0.48300726564E+01 -0.96156888482E+02  0.25750026522E+03  0.30203207030E+03  0.12509000000E+03 0.  0.
         25    1    3    3    0    0 -0.58884403720E+01  0.13039481796E+03  0.25977042851E+03  0.31648959843E+03  0.12509000000E+03 0.  0.
<mgrwt>
<rscale>  2 0.47890273E+03</rscale>
<asrwt>0</asrwt>
<pdfrwt beam="1">  1       21 0.13385375E+00 0.47890273E+03</pdfrwt>
<pdfrwt beam="2">  1       21 0.92637381E-02 0.47890273E+03</pdfrwt>
<totfact> 0.33500946E+04</totfact>
</mgrwt>
</event>
<event>
 7    0  0.4725730E-002  0.4538525E+03  0.7546771E-02  0.1026579E+00
         21   -1    0    0  502  501  0.00000000000E+00  0.00000000000E+00  0.27886264751E+03  0.27886264751E+03  0.00000000000E+00 0.  1.
         21   -1    0    0  501  502 -0.00000000000E+00 -0.00000000000E+00 -0.18466265737E+03  0.18466265737E+03  0.00000000000E+00 0.  1.
      99926    2    1    2    0    0  0.88817841970E-15 -0.14210854715E-13  0.94199990136E+02  0.46352530487E+03  0.45385247616E+03 0.  0.
      99925    2    3    3    0    0 -0.57979404271E+01  0.87094796519E+02  0.13062689845E+03  0.30670200481E+03  0.26340769438E+03 0.  0.
         25    1    3    3    0    0  0.57979404271E+01 -0.87094796519E+02 -0.36426908319E+02  0.15682330007E+03  0.12509000000E+03 0.  0.
         25    1    4    4    0    0  0.14437086940E+02  0.67901386568E+01  0.74880590300E+02  0.14665996852E+03  0.12509000000E+03 0.  0.
         25    1    4    4    0    0 -0.20235027367E+02  0.80304657862E+02  0.55746308154E+02  0.16004203629E+03  0.12509000000E+03 0.  0.
<mgrwt>
<rscale>  2 0.45385248E+03</rscale>
<asrwt>0</asrwt>
<pdfrwt beam="1">  1       21 0.41009213E-01 0.45385248E+03</pdfrwt>
<pdfrwt beam="2">  1       21 0.27156273E-01 0.45385248E+03</pdfrwt>
<totfact> 0.68542874E+04</totfact>
</mgrwt>
</event>
<event>
 7    0  0.4725730E-002  0.4520490E+03  0.7546771E-02  0.1027113E+00
         21   -1    0    0  502  501  0.00000000000E+00  0.00000000000E+00  0.46699084985E+02  0.46699084985E+02  0.00000000000E+00 0. -1.
         21   -1    0    0  501  502 -0.00000000000E+00 -0.00000000000E+00 -0.10939630096E+04  0.10939630096E+04  0.00000000000E+00 0. -1.
      99926    2    1    2    0    0 -0.88817841970E-15  0.35527136788E-14 -0.10472639247E+04  0.11406620946E+04  0.45204898654E+03 0.  0.
      99925    2    3    3    0    0  0.74978906814E+01 -0.30314851938E+02 -0.39362006857E+03  0.47442414366E+03  0.26299486895E+03 0.  0.
         25    1    4    4    0    0 -0.14959791621E+02  0.20590068417E+02 -0.17896811188E+03  0.21982911420E+03  0.12509000000E+03 0.  0.
         25    1    4    4    0    0  0.22457682303E+02 -0.50904920355E+02 -0.21465195670E+03  0.25459502946E+03  0.12509000000E+03 0.  0.
         25    1    3    3    0    0 -0.74978906814E+01  0.30314851938E+02 -0.65364385608E+03  0.66623795096E+03  0.12509000000E+03 0.  0.
<mgrwt>
<rscale>  2 0.45204899E+03</rscale>
<asrwt>0</asrwt>
<pdfrwt beam="1">  1       21 0.68675120E-02 0.45204899E+03</pdfrwt>
<pdfrwt beam="2">  1       21 0.16087693E+00 0.45204899E+03</pdfrwt>
<totfact> 0.34891339E+04</totfact>
</mgrwt>
</event>
<event>
 7    0  0.4725730E-002  0.4516351E+03  0.7546771E-02  0.1027236E+00
         21   -1    0    0  502  501  0.00000000000E+00  0.00000000000E+00  0.36915582895E+03  0.36915582895E+03  0.00000000000E+00 0.  1.
         21   -1    0    0  501  502 -0.00000000000E+00 -0.00000000000E+00 -0.13813561279E+03  0.13813561279E+03  0.00000000000E+00 0.  1.
      99926    2    1    2    0    0  0.00000000000E+00  0.17763568394E-14  0.23102021617E+03  0.50729144174E+03  0.45163510336E+03 0.  0.
      99925    2    3    3    0    0 -0.10874746996E+03  0.11891391823E+02  0.13449513862E+03  0.31511439806E+03  0.26313632233E+03 0.  0.
         25    1    4    4    0    0 -0.54019013053E+02  0.45655627244E+02  0.57593556913E+02  0.15481284174E+03  0.12509000000E+03 0.  0.
         25    1    4    4    0    0 -0.54728456908E+02 -0.33764235422E+02  0.76901581710E+02  0.16030155632E+03  0.12509000000E+03 0.  0.
         25    1    3    3    0    0  0.10874746996E+03 -0.11891391823E+02  0.96525077545E+02  0.19217704368E+03  0.12509000000E+03 0.  0.
<mgrwt>
<rscale>  2 0.45163510E+03</rscale>
<asrwt>0</asrwt>
<pdfrwt beam="1">  1       21 0.54287622E-01 0.45163510E+03</pdfrwt>
<pdfrwt beam="2">  1       21 0.20314061E-01 0.45163510E+03</pdfrwt>
<totfact> 0.66520164E+04</totfact>
</mgrwt>
</event>
<event>
 7    0  0.4725730E-002  0.4518890E+03  0.7546771E-02  0.1027160E+00
         21   -1    0    0  502  501  0.00000000000E+00  0.00000000000E+00  0.78263622883E+03  0.78263622883E+03  0.00000000000E+00 0. -1.
         21   -1    0    0  501  502 -0.00000000000E+00 -0.00000000000E+00 -0.65229437339E+02  0.65229437339E+02  0.00000000000E+00 0. -1.
      99926    2    1    2    0    0  0.35527136788E-14  0.88817841970E-15  0.71740679149E+03  0.84786566617E+03  0.45188901667E+03 0.  0.
      99925    2    3    3    0    0 -0.14768916774E+02 -0.75457850508E+01  0.24834946465E+03  0.36213184633E+03  0.26303413801E+03 0.  0.
         25    1    4    4    0    0 -0.34921662953E+02 -0.26708823127E+02  0.15266722724E+03  0.20220700816E+03  0.12509000000E+03 0.  0.
         25    1    4    4    0    0  0.20152746178E+02  0.19163038077E+02  0.95682237409E+02  0.15992483817E+03  0.12509000000E+03 0.  0.
         25    1    3    3    0    0  0.14768916774E+02  0.75457850508E+01  0.46905732684E+03  0.48573381984E+03  0.12509000000E+03 0.  0.
<mgrwt>
<rscale>  2 0.45188902E+03</rscale>
<asrwt>0</asrwt>
<pdfrwt beam="1">  1       21 0.11509356E+00 0.45188902E+03</pdfrwt>
<pdfrwt beam="2">  1       21 0.95925648E-02 0.45188902E+03</pdfrwt>
<totfact> 0.46663430E+04</totfact>
</mgrwt>
</event>
<event>
 7    0  0.4725730E-002  0.4516475E+03  0.7546771E-02  0.1027232E+00
         21   -1    0    0  502  501  0.00000000000E+00  0.00000000000E+00  0.39227047766E+03  0.39227047766E+03  0.00000000000E+00 0. -1.
         21   -1    0    0  501  502 -0.00000000000E+00 -0.00000000000E+00 -0.13000308792E+03  0.13000308792E+03  0.00000000000E+00 0. -1.
      99926    2    1    2    0    0  0.00000000000E+00  0.35527136788E-14  0.26226738973E+03  0.52227356558E+03  0.45164753247E+03 0.  0.
      99925    2    3    3    0    0 -0.10394503900E+03  0.24417664861E+02  0.19598804666E+03  0.34495675051E+03  0.26302671308E+03 0.  0.
         25    1    3    3    0    0  0.10394503900E+03 -0.24417664861E+02  0.66279343070E+02  0.17731681507E+03  0.12509000000E+03 0.  0.
         25    1    4    4    0    0 -0.83814922628E+02  0.19851738006E+01  0.74550966135E+02  0.16803046397E+03  0.12509000000E+03 0.  0.
         25    1    4    4    0    0 -0.20130116372E+02  0.22432491061E+02  0.12143708053E+03  0.17692628654E+03  0.12509000000E+03 0.  0.
<mgrwt>
<rscale>  2 0.45164753E+03</rscale>
<asrwt>0</asrwt>
<pdfrwt beam="1">  1       21 0.57686835E-01 0.45164753E+03</pdfrwt>
<pdfrwt beam="2">  1       21 0.19118101E-01 0.45164753E+03</pdfrwt>
<totfact> 0.65454906E+04</totfact>
</mgrwt>
</event>
<event>
 7    0  0.4725730E-002  0.4613672E+03  0.7546771E-02  0.1024385E+00
         21   -1    0    0  502  501  0.00000000000E+00  0.00000000000E+00  0.74238008708E+02  0.74238008708E+02  0.00000000000E+00 0.  1.
         21   -1    0    0  501  502 -0.00000000000E+00 -0.00000000000E+00 -0.71681496575E+03  0.71681496575E+03  0.00000000000E+00 0.  1.
      99926    2    1    2    0    0 -0.35527136788E-14 -0.71054273576E-14 -0.64257695704E+03  0.79105297446E+03  0.46136716688E+03 0.  0.
      99925    2    3    3    0    0 -0.11964108078E+02 -0.61857628954E+02 -0.57510900781E+03  0.63558935036E+03  0.26316144340E+03 0.  0.
         25    1    4    4    0    0  0.14027424557E+02 -0.58800176092E+02 -0.35271957092E+03  0.37909475486E+03  0.12509000000E+03 0.  0.
         25    1    4    4    0    0 -0.25991532635E+02 -0.30574528622E+01 -0.22238943689E+03  0.25649459551E+03  0.12509000000E+03 0.  0.
         25    1    3    3    0    0  0.11964108078E+02  0.61857628954E+02 -0.67467949233E+02  0.15546362409E+03  0.12509000000E+03 0.  0.
<mgrwt>
<rscale>  2 0.46136717E+03</rscale>
<asrwt>0</asrwt>
<pdfrwt beam="1">  1       21 0.10917354E-01 0.46136717E+03</pdfrwt>
<pdfrwt beam="2">  1       21 0.10541397E+00 0.46136717E+03</pdfrwt>
<totfact> 0.45865355E+04</totfact>
</mgrwt>
</event>
<event>
 7    0  0.4725730E-002  0.4551136E+03  0.7546771E-02  0.1026208E+00
         21   -1    0    0  502  501  0.00000000000E+00  0.00000000000E+00  0.13290595988E+04  0.13290595988E+04  0.00000000000E+00 0.  1.
         21   -1    0    0  501  502 -0.00000000000E+00 -0.00000000000E+00 -0.38961450506E+02  0.38961450506E+02  0.00000000000E+00 0.  1.
      99926    2    1    2    0    0  0.00000000000E+00  0.00000000000E+00  0.12900981483E+04  0.13680210493E+04  0.45511356727E+03 0.  0.
      99925    2    3    3    0    0  0.94980808254E+02 -0.61473641856E+02  0.80058846761E+03  0.85026860058E+03  0.26308636620E+03 0.  0.
         25    1    4    4    0    0  0.69257213612E+01 -0.19261714415E+02  0.38994497957E+03  0.41002874832E+03  0.12509000000E+03 0.  0.
         25    1    4    4    0    0  0.88055086892E+02 -0.42211927441E+02  0.41064348804E+03  0.44023985226E+03  0.12509000000E+03 0.  0.
         25    1    3    3    0    0 -0.94980808254E+02  0.61473641856E+02  0.48950968071E+03  0.51775244875E+03  0.12509000000E+03 0.  0.
<mgrwt>
<rscale>  2 0.45511357E+03</rscale>
<asrwt>0</asrwt>
<pdfrwt beam="1">  1       21 0.19544991E+00 0.45511357E+03</pdfrwt>
<pdfrwt beam="2">  1       21 0.57296260E-02 0.45511357E+03</pdfrwt>
<totfact> 0.27172810E+04</totfact>
</mgrwt>
</event>
<event>
 7    0  0.4725730E-002  0.4530832E+03  0.7546771E-02  0.1026807E+00
         21   -1    0    0  502  501  0.00000000000E+00  0.00000000000E+00  0.44383883136E+03  0.44383883136E+03  0.00000000000E+00 0. -1.
         21   -1    0    0  501  502 -0.00000000000E+00 -0.00000000000E+00 -0.11563003421E+03  0.11563003421E+03  0.00000000000E+00 0. -1.
      99926    2    1    2    0    0  0.00000000000E+00  0.00000000000E+00  0.32820879716E+03  0.55946886557E+03  0.45308321201E+03 0.  0.
      99925    2    3    3    0    0  0.10731588135E+03 -0.18984645712E+02  0.17839613329E+03  0.33593261008E+03  0.26296087728E+03 0.  0.
         25    1    4    4    0    0  0.44455830790E+02  0.15672851331E+02  0.12231111814E+03  0.18118906391E+03  0.12509000000E+03 0.  0.
         25    1    4    4    0    0  0.62860050555E+02 -0.34657497043E+02  0.56085015145E+02  0.15474354617E+03  0.12509000000E+03 0.  0.
         25    1    3    3    0    0 -0.10731588135E+03  0.18984645712E+02  0.14981266387E+03  0.22353625549E+03  0.12509000000E+03 0.  0.
<mgrwt>
<rscale>  2 0.45308321E+03</rscale>
<asrwt>0</asrwt>
<pdfrwt beam="1">  1       21 0.65270416E-01 0.45308321E+03</pdfrwt>
<pdfrwt beam="2">  1       21 0.17004417E-01 0.45308321E+03</pdfrwt>
<totfact> 0.62182550E+04</totfact>
</mgrwt>
</event>
<event>
 7    0  0.4725730E-002  0.4071336E+03  0.7546771E-02  0.1041337E+00
         21   -1    0    0  502  501  0.00000000000E+00  0.00000000000E+00  0.32689561505E+03  0.32689561505E+03  0.00000000000E+00 0. -1.
         21   -1    0    0  501  502 -0.00000000000E+00 -0.00000000000E+00 -0.12676657573E+03  0.12676657573E+03  0.00000000000E+00 0. -1.
      99926    2    1    2    0    0  0.00000000000E+00  0.00000000000E+00  0.20012903933E+03  0.45366219078E+03  0.40713357877E+03 0.  0.
      99925    2    3    3    0    0 -0.34718401702E+02  0.45042336185E+02  0.11983725260E+03  0.29451301993E+03  0.26295013279E+03 0.  0.
         25    1    4    4    0    0 -0.65612473431E+01  0.51639848833E+02  0.32800863715E+02  0.13940275720E+03  0.12509000000E+03 0.  0.
         25    1    4    4    0    0 -0.28157154359E+02 -0.65975126484E+01  0.87036388885E+02  0.15511026273E+03  0.12509000000E+03 0.  0.
         25    1    3    3    0    0  0.34718401702E+02 -0.45042336185E+02  0.80291786727E+02  0.15914917085E+03  0.12509000000E+03 0.  0.
<mgrwt>
<rscale>  2 0.40713358E+03</rscale>
<asrwt>0</asrwt>
<pdfrwt beam="1">  1       21 0.48072884E-01 0.40713358E+03</pdfrwt>
<pdfrwt beam="2">  1       21 0.18642144E-01 0.40713358E+03</pdfrwt>
<totfact> 0.10237694E+05</totfact>
</mgrwt>
</event>
<event>
 7    0  0.4725730E-002  0.4549926E+03  0.7546771E-02  0.1026244E+00
         21   -1    0    0  502  501  0.00000000000E+00  0.00000000000E+00  0.17455282656E+03  0.17455282656E+03  0.00000000000E+00 0. -1.
         21   -1    0    0  501  502 -0.00000000000E+00 -0.00000000000E+00 -0.29649804009E+03  0.29649804009E+03  0.00000000000E+00 0. -1.
      99926    2    1    2    0    0  0.14210854715E-13  0.00000000000E+00 -0.12194521354E+03  0.47105086665E+03  0.45499261957E+03 0.  0.
      99925    2    3    3    0    0  0.79160721999E+02 -0.77565372310E+02 -0.52692858327E+02  0.29014701459E+03  0.26291813529E+03 0.  0.
         25    1    3    3    0    0 -0.79160721999E+02  0.77565372310E+02 -0.69252355208E+02  0.18090385206E+03  0.12509000000E+03 0.  0.
         25    1    4    4    0    0  0.64063509742E+01 -0.12416316077E+02 -0.33807915719E+02  0.13032915830E+03  0.12509000000E+03 0.  0.
         25    1    4    4    0    0  0.72754371025E+02 -0.65149056233E+02 -0.18884942609E+02  0.15981785629E+03  0.12509000000E+03 0.  0.
<mgrwt>
<rscale>  2 0.45499262E+03</rscale>
<asrwt>0</asrwt>
<pdfrwt beam="1">  1       21 0.25669534E-01 0.45499262E+03</pdfrwt>
<pdfrwt beam="2">  1       21 0.43602652E-01 0.45499262E+03</pdfrwt>
<totfact> 0.67361580E+04</totfact>
</mgrwt>
</event>
<event>
 7    0  0.4725730E-002  0.4478248E+03  0.7546771E-02  0.1028373E+00
         21   -1    0    0  502  501  0.00000000000E+00  0.00000000000E+00  0.14590461381E+03  0.14590461381E+03  0.00000000000E+00 0. -1.
         21   -1    0    0  501  502 -0.00000000000E+00 -0.00000000000E+00 -0.34362692974E+03  0.34362692974E+03  0.00000000000E+00 0. -1.
      99926    2    1    2    0    0  0.00000000000E+00  0.00000000000E+00 -0.19772231593E+03  0.48953154355E+03  0.44782476250E+03 0.  0.
      99925    2    3    3    0    0  0.23340333927E+02 -0.68268552139E+02 -0.39855546285E+02  0.27558110195E+03  0.26296599169E+03 0.  0.
         25    1    4    4    0    0  0.13177828613E+02 -0.15170500249E+02 -0.55687164859E+02  0.13839207952E+03  0.12509000000E+03 0.  0.
         25    1    3    3    0    0 -0.23340333927E+02  0.68268552139E+02 -0.15786676965E+03  0.21395044159E+03  0.12509000000E+03 0.  0.
         25    1    4    4    0    0  0.10162505314E+02 -0.53098051891E+02  0.15831618574E+02  0.13718902243E+03  0.12509000000E+03 0.  0.
<mgrwt>
<rscale>  2 0.44782476E+03</rscale>
<asrwt>0</asrwt>
<pdfrwt beam="1">  1       21 0.21456561E-01 0.44782476E+03</pdfrwt>
<pdfrwt beam="2">  1       21 0.50533372E-01 0.44782476E+03</pdfrwt>
<totfact> 0.69910689E+04</totfact>
</mgrwt>
</event>
<event>
 7    0  0.4725730E-002  0.4567245E+03  0.7546771E-02  0.1025736E+00
         21   -1    0    0  502  501  0.00000000000E+00  0.00000000000E+00  0.25940114948E+03  0.25940114948E+03  0.00000000000E+00 0. -1.
         21   -1    0    0  501  502 -0.00000000000E+00 -0.00000000000E+00 -0.20103734191E+03  0.20103734191E+03  0.00000000000E+00 0. -1.
      99926    2    1    2    0    0  0.00000000000E+00  0.00000000000E+00  0.58363807567E+02  0.46043849139E+03  0.45672450156E+03 0.  0.
      99925    2    3    3    0    0 -0.73571806193E+02 -0.12459365641E+02 -0.51251345192E+02  0.27814467287E+03  0.26300135399E+03 0.  0.
         25    1    3    3    0    0  0.73571806193E+02  0.12459365641E+02  0.10961515276E+03  0.18229381853E+03  0.12509000000E+03 0.  0.
         25    1    4    4    0    0 -0.47512798757E+02  0.29549338852E+02 -0.97327748403E+01  0.13737854446E+03  0.12509000000E+03 0.  0.
         25    1    4    4    0    0 -0.26059007436E+02 -0.42008704493E+02 -0.41518570352E+02  0.14076612840E+03  0.12509000000E+03 0.  0.
<mgrwt>
<rscale>  2 0.45672450E+03</rscale>
<asrwt>0</asrwt>
<pdfrwt beam="1">  1       21 0.38147228E-01 0.45672450E+03</pdfrwt>
<pdfrwt beam="2">  1       21 0.29564315E-01 0.45672450E+03</pdfrwt>
<totfact> 0.67219389E+04</totfact>
</mgrwt>
</event>
<event>
 7    0  0.4725730E-002  0.4139213E+03  0.7546771E-02  0.1039063E+00
         21   -1    0    0  502  501  0.00000000000E+00  0.00000000000E+00  0.13578547899E+03  0.13578547899E+03  0.00000000000E+00 0. -1.
         21   -1    0    0  501  502 -0.00000000000E+00 -0.00000000000E+00 -0.31544399479E+03  0.31544399479E+03  0.00000000000E+00 0. -1.
      99926    2    1    2    0    0  0.00000000000E+00  0.00000000000E+00 -0.17965851579E+03  0.45122947378E+03  0.41392131584E+03 0.  0.
      99925    2    3    3    0    0  0.16520673812E+02  0.20621235150E+02 -0.18600621140E+03  0.32322178127E+03  0.26301300577E+03 0.  0.
         25    1    4    4    0    0 -0.26099119641E+02  0.12623040434E+01 -0.66781224313E+02  0.14418736934E+03  0.12509000000E+03 0.  0.
         25    1    4    4    0    0  0.42619793453E+02  0.19358931107E+02 -0.11922498709E+03  0.17903441193E+03  0.12509000000E+03 0.  0.
         25    1    3    3    0    0 -0.16520673812E+02 -0.20621235150E+02  0.63476956062E+01  0.12800769251E+03  0.12509000000E+03 0.  0.
<mgrwt>
<rscale>  2 0.41392132E+03</rscale>
<asrwt>0</asrwt>
<pdfrwt beam="1">  1       21 0.19968453E-01 0.41392132E+03</pdfrwt>
<pdfrwt beam="2">  1       21 0.46388823E-01 0.41392132E+03</pdfrwt>
<totfact> 0.96758461E+04</totfact>
</mgrwt>
</event>
<event>
 7    0  0.4725730E-002  0.4397583E+03  0.7546771E-02  0.1030821E+00
         21   -1    0    0  502  501  0.00000000000E+00  0.00000000000E+00  0.22037180101E+03  0.22037180101E+03  0.00000000000E+00 0. -1.
         21   -1    0    0  501  502 -0.00000000000E+00 -0.00000000000E+00 -0.21938761410E+03  0.21938761410E+03  0.00000000000E+00 0. -1.
      99926    2    1    2    0    0 -0.17763568394E-14 -0.71054273576E-14  0.98418691021E+00  0.43975941512E+03  0.43975831381E+03 0.  0.
      99925    2    3    3    0    0 -0.26667252228E+01  0.41228693553E+02  0.89227172487E+02  0.28119949206E+03  0.26344781159E+03 0.  0.
         25    1    4    4    0    0  0.17174495761E+02  0.21690480608E+02  0.83494868771E+02  0.15291939532E+03  0.12509000000E+03 0.  0.
         25    1    3    3    0    0  0.26667252228E+01 -0.41228693553E+02 -0.88242985577E+02  0.15855992305E+03  0.12509000000E+03 0.  0.
         25    1    4    4    0    0 -0.19841220984E+02  0.19538212945E+02  0.57323037156E+01  0.12828009675E+03  0.12509000000E+03 0.  0.
<mgrwt>
<rscale>  2 0.43975831E+03</rscale>
<asrwt>0</asrwt>
<pdfrwt beam="1">  1       21 0.32407618E-01 0.43975831E+03</pdfrwt>
<pdfrwt beam="2">  1       21 0.32262884E-01 0.43975831E+03</pdfrwt>
<totfact> 0.78837214E+04</totfact>
</mgrwt>
</event>
<event>
 7    0  0.4725730E-002  0.4515595E+03  0.7546771E-02  0.1027258E+00
         21   -1    0    0  502  501  0.00000000000E+00  0.00000000000E+00  0.34097713964E+02  0.34097713964E+02  0.00000000000E+00 0. -1.
         21   -1    0    0  501  502 -0.00000000000E+00 -0.00000000000E+00 -0.14950120866E+04  0.14950120866E+04  0.00000000000E+00 0. -1.
      99926    2    1    2    0    0  0.00000000000E+00 -0.14210854715E-13 -0.14609143726E+04  0.15291098005E+04  0.45155949553E+03 0.  0.
      99925    2    3    3    0    0  0.29585175738E+02 -0.90731754532E+02 -0.73549541925E+03  0.78682434338E+03  0.26273846636E+03 0.  0.
         25    1    3    3    0    0 -0.29585175738E+02  0.90731754532E+02 -0.72541895336E+03  0.74228545715E+03  0.12509000000E+03 0.  0.
         25    1    4    4    0    0  0.19921376358E+02 -0.79462040325E+02 -0.46468447442E+03  0.48814981917E+03  0.12509000000E+03 0.  0.
         25    1    4    4    0    0  0.96637993804E+01 -0.11269714207E+02 -0.27081094483E+03  0.29867452422E+03  0.12509000000E+03 0.  0.
<mgrwt>
<rscale>  2 0.45155950E+03</rscale>
<asrwt>0</asrwt>
<pdfrwt beam="1">  1       21 0.50143705E-02 0.45155950E+03</pdfrwt>
<pdfrwt beam="2">  1       21 0.21985468E+00 0.45155950E+03</pdfrwt>
<totfact> 0.23701678E+04</totfact>
</mgrwt>
</event>
<event>
 7    0  0.4725730E-002  0.4557294E+03  0.7546771E-02  0.1026027E+00
         21   -1    0    0  502  501  0.00000000000E+00  0.00000000000E+00  0.20454111532E+04  0.20454111532E+04  0.00000000000E+00 0. -1.
         21   -1    0    0  501  502 -0.00000000000E+00 -0.00000000000E+00 -0.25384787109E+02  0.25384787109E+02  0.00000000000E+00 0. -1.
      99926    2    1    2    0    0 -0.71054273576E-14  0.00000000000E+00  0.20200263661E+04  0.20707959403E+04  0.45572942268E+03 0.  0.
      99925    2    3    3    0    0 -0.42550507301E+02  0.34744008781E+02  0.81560786823E+03  0.85865357329E+03  0.26277761015E+03 0.  0.
         25    1    3    3    0    0  0.42550507301E+02 -0.34744008781E+02  0.12044184978E+04  0.12121423670E+04  0.12509000000E+03 0.  0.
         25    1    4    4    0    0 -0.61971757198E+02  0.16994364239E+02  0.42605035282E+03  0.44865991390E+03  0.12509000000E+03 0.  0.
         25    1    4    4    0    0  0.19421249896E+02  0.17749644541E+02  0.38955751541E+03  0.40999365939E+03  0.12509000000E+03 0.  0.
<mgrwt>
<rscale>  2 0.45572942E+03</rscale>
<asrwt>0</asrwt>
<pdfrwt beam="1">  1       21 0.30079564E+00 0.45572942E+03</pdfrwt>
<pdfrwt beam="2">  1       21 0.37330583E-02 0.45572942E+03</pdfrwt>
<totfact> 0.12517220E+04</totfact>
</mgrwt>
</event>
<event>
 7    0  0.4725730E-002  0.4492181E+03  0.7546771E-02  0.1027955E+00
         21   -1    0    0  502  501  0.00000000000E+00  0.00000000000E+00  0.49382621948E+03  0.49382621948E+03  0.00000000000E+00 0.  1.
         21   -1    0    0  501  502 -0.00000000000E+00 -0.00000000000E+00 -0.10215988849E+03  0.10215988849E+03  0.00000000000E+00 0.  1.
      99926    2    1    2    0    0  0.14210854715E-13  0.00000000000E+00  0.39166633099E+03  0.59598610797E+03  0.44921812749E+03 0.  0.
      99925    2    3    3    0    0  0.10261679618E+03  0.19657850796E+02  0.21306414611E+03  0.35419511042E+03  0.26294715805E+03 0.  0.
         25    1    4    4    0    0  0.13327849277E+02  0.27221079358E+02  0.88156447178E+02  0.15600540377E+03  0.12509000000E+03 0.  0.
         25    1    3    3    0    0 -0.10261679618E+03 -0.19657850796E+02  0.17860218487E+03  0.24179099755E+03  0.12509000000E+03 0.  0.
         25    1    4    4    0    0  0.89288946902E+02 -0.75632285620E+01  0.12490769894E+03  0.19818970664E+03  0.12509000000E+03 0.  0.
<mgrwt>
<rscale>  2 0.44921813E+03</rscale>
<asrwt>0</asrwt>
<pdfrwt beam="1">  1       21 0.72621502E-01 0.44921813E+03</pdfrwt>
<pdfrwt beam="2">  1       21 0.15023513E-01 0.44921813E+03</pdfrwt>
<totfact> 0.61696884E+04</totfact>
</mgrwt>
</event>
<event>
 7    0  0.4725730E-002  0.4583781E+03  0.7546771E-02  0.1025253E+00
         21   -1    0    0  502  501  0.00000000000E+00  0.00000000000E+00  0.43918722690E+03  0.43918722690E+03  0.00000000000E+00 0. -1.
         21   -1    0    0  501  502 -0.00000000000E+00 -0.00000000000E+00 -0.11960188302E+03  0.11960188302E+03  0.00000000000E+00 0. -1.
      99926    2    1    2    0    0  0.00000000000E+00  0.00000000000E+00  0.31958534388E+03  0.55878910992E+03  0.45837809432E+03 0.  0.
      99925    2    3    3    0    0  0.79578970170E+02 -0.73927806511E+01  0.97543473222E+02  0.29169817761E+03  0.26303161779E+03 0.  0.
         25    1    4    4    0    0  0.10278092954E+02 -0.30831494127E+01  0.14783255019E+02  0.12641676208E+03  0.12509000000E+03 0.  0.
         25    1    4    4    0    0  0.69300877216E+02 -0.43096312384E+01  0.82760218203E+02  0.16528141553E+03  0.12509000000E+03 0.  0.
         25    1    3    3    0    0 -0.79578970170E+02  0.73927806511E+01  0.22204187065E+03  0.26709093231E+03  0.12509000000E+03 0.  0.
<mgrwt>
<rscale>  2 0.45837809E+03</rscale>
<asrwt>0</asrwt>
<pdfrwt beam="1">  1       21 0.64586356E-01 0.45837809E+03</pdfrwt>
<pdfrwt beam="2">  1       21 0.17588512E-01 0.45837809E+03</pdfrwt>
<totfact> 0.59678675E+04</totfact>
</mgrwt>
</event>
<event>
 7    0  0.4725730E-002  0.4478312E+03  0.7546771E-02  0.1028371E+00
         21   -1    0    0  502  501  0.00000000000E+00  0.00000000000E+00  0.27823482167E+03  0.27823482167E+03  0.00000000000E+00 0. -1.
         21   -1    0    0  501  502 -0.00000000000E+00 -0.00000000000E+00 -0.18020097582E+03  0.18020097582E+03  0.00000000000E+00 0. -1.
      99926    2    1    2    0    0  0.35527136788E-14 -0.88817841970E-15  0.98033845854E+02  0.45843579749E+03  0.44783115734E+03 0.  0.
      99925    2    3    3    0    0  0.23179893191E+02 -0.54823084095E+01 -0.43925163358E+02  0.26773385321E+03  0.26302971890E+03 0.  0.
         25    1    4    4    0    0  0.33708019425E+02  0.31306786819E+02 -0.20845111670E+02  0.13490134267E+03  0.12509000000E+03 0.  0.
         25    1    4    4    0    0 -0.10528126235E+02 -0.36789095229E+02 -0.23080051688E+02  0.13283251054E+03  0.12509000000E+03 0.  0.
         25    1    3    3    0    0 -0.23179893191E+02  0.54823084095E+01  0.14195900921E+03  0.19070194428E+03  0.12509000000E+03 0.  0.
<mgrwt>
<rscale>  2 0.44783116E+03</rscale>
<asrwt>0</asrwt>
<pdfrwt beam="1">  1       21 0.40916885E-01 0.44783116E+03</pdfrwt>
<pdfrwt beam="2">  1       21 0.26500144E-01 0.44783116E+03</pdfrwt>
<totfact> 0.72332331E+04</totfact>
</mgrwt>
</event>
<event>
 7    0  0.4725730E-002  0.4545570E+03  0.7546771E-02  0.1026372E+00
         21   -1    0    0  502  501  0.00000000000E+00  0.00000000000E+00  0.28437167957E+03  0.28437167957E+03  0.00000000000E+00 0.  1.
         21   -1    0    0  501  502 -0.00000000000E+00 -0.00000000000E+00 -0.18164785780E+03  0.18164785780E+03  0.00000000000E+00 0.  1.
      99926    2    1    2    0    0  0.00000000000E+00  0.00000000000E+00  0.10272382178E+03  0.46601953737E+03  0.45455695534E+03 0.  0.
      99925    2    3    3    0    0 -0.51005845562E+02 -0.80388927812E+02  0.26581337881E+01  0.27967408932E+03  0.26295732461E+03 0.  0.
         25    1    4    4    0    0  0.14335842543E+02 -0.40617440218E+02  0.11403933943E+02  0.13278874441E+03  0.12509000000E+03 0.  0.
         25    1    3    3    0    0  0.51005845562E+02  0.80388927812E+02  0.10006568799E+03  0.18634544805E+03  0.12509000000E+03 0.  0.
         25    1    4    4    0    0 -0.65341688106E+02 -0.39771487593E+02 -0.87458001551E+01  0.14688534491E+03  0.12509000000E+03 0.  0.
<mgrwt>
<rscale>  2 0.45455696E+03</rscale>
<asrwt>0</asrwt>
<pdfrwt beam="1">  1       21 0.41819365E-01 0.45455696E+03</pdfrwt>
<pdfrwt beam="2">  1       21 0.26712920E-01 0.45455696E+03</pdfrwt>
<totfact> 0.67971822E+04</totfact>
</mgrwt>
</event>
<event>
 7    0  0.4725730E-002  0.4579284E+03  0.7546771E-02  0.1025384E+00
         21   -1    0    0  502  501  0.00000000000E+00  0.00000000000E+00  0.71626079939E+02  0.71626079939E+02  0.00000000000E+00 0.  1.
         21   -1    0    0  501  502 -0.00000000000E+00 -0.00000000000E+00 -0.73192052030E+03  0.73192052030E+03  0.00000000000E+00 0.  1.
      99926    2    1    2    0    0  0.71054273576E-14  0.00000000000E+00 -0.66029444036E+03  0.80354660024E+03  0.45792836862E+03 0.  0.
      99925    2    3    3    0    0  0.59599059998E+02  0.98055113100E+02 -0.44280286346E+03  0.52765360055E+03  0.26301538571E+03 0.  0.
         25    1    3    3    0    0 -0.59599059998E+02 -0.98055113100E+02 -0.21749157690E+03  0.27589299969E+03  0.12509000000E+03 0.  0.
         25    1    4    4    0    0  0.29621038915E+02  0.45784416059E+02 -0.14522483848E+03  0.19927714498E+03  0.12509000000E+03 0.  0.
         25    1    4    4    0    0  0.29978021084E+02  0.52270697041E+02 -0.29757802498E+03  0.32837645556E+03  0.12509000000E+03 0.  0.
<mgrwt>
<rscale>  2 0.45792837E+03</rscale>
<asrwt>0</asrwt>
<pdfrwt beam="1">  1       21 0.10533247E-01 0.45792837E+03</pdfrwt>
<pdfrwt beam="2">  1       21 0.10763537E+00 0.45792837E+03</pdfrwt>
<totfact> 0.46515538E+04</totfact>
</mgrwt>
</event>
<event>
 7    0  0.4725730E-002  0.4623220E+03  0.7546771E-02  0.1024110E+00
         21   -1    0    0  502  501  0.00000000000E+00  0.00000000000E+00  0.18774535443E+03  0.18774535443E+03  0.00000000000E+00 0. -1.
         21   -1    0    0  501  502 -0.00000000000E+00 -0.00000000000E+00 -0.28461644172E+03  0.28461644172E+03  0.00000000000E+00 0. -1.
      99926    2    1    2    0    0  0.00000000000E+00  0.00000000000E+00 -0.96871087291E+02  0.47236179616E+03  0.46232202945E+03 0.  0.
      99925    2    3    3    0    0 -0.62036476125E+02 -0.58729166012E+02  0.25480149330E+02  0.27764412230E+03  0.26294368471E+03 0.  0.
         25    1    4    4    0    0  0.38540265218E+01 -0.43161216068E+02  0.28321256683E+02  0.13537852774E+03  0.12509000000E+03 0.  0.
         25    1    4    4    0    0 -0.65890502646E+02 -0.15567949944E+02 -0.28411073523E+01  0.14226559456E+03  0.12509000000E+03 0.  0.
         25    1    3    3    0    0  0.62036476125E+02  0.58729166012E+02 -0.12235123662E+03  0.19471767386E+03  0.12509000000E+03 0.  0.
<mgrwt>
<rscale>  2 0.46232203E+03</rscale>
<asrwt>0</asrwt>
<pdfrwt beam="1">  1       21 0.27609611E-01 0.46232203E+03</pdfrwt>
<pdfrwt beam="2">  1       21 0.41855359E-01 0.46232203E+03</pdfrwt>
<totfact> 0.63490666E+04</totfact>
</mgrwt>
</event>
<event>
 7    0  0.4725730E-002  0.4550469E+03  0.7546771E-02  0.1026228E+00
         21   -1    0    0  502  501  0.00000000000E+00  0.00000000000E+00  0.44931914648E+03  0.44931914648E+03  0.00000000000E+00 0.  1.
         21   -1    0    0  501  502 -0.00000000000E+00 -0.00000000000E+00 -0.11521192050E+03  0.11521192050E+03  0.00000000000E+00 0.  1.
      99926    2    1    2    0    0  0.00000000000E+00  0.00000000000E+00  0.33410722598E+03  0.56453106697E+03  0.45504690651E+03 0.  0.
      99925    2    3    3    0    0  0.51807668070E+02  0.21836728410E+02  0.88309558732E+02  0.28306192390E+03  0.26299162994E+03 0.  0.
         25    1    4    4    0    0  0.26460923993E+02  0.27154892576E+02  0.83747424935E+02  0.15523758557E+03  0.12509000000E+03 0.  0.
         25    1    3    3    0    0 -0.51807668070E+02 -0.21836728410E+02  0.24579766725E+03  0.28146914307E+03  0.12509000000E+03 0.  0.
         25    1    4    4    0    0  0.25346744077E+02 -0.53181641661E+01  0.45621337963E+01  0.12782433833E+03  0.12509000000E+03 0.  0.
<mgrwt>
<rscale>  2 0.45504691E+03</rscale>
<asrwt>0</asrwt>
<pdfrwt beam="1">  1       21 0.66076344E-01 0.45504691E+03</pdfrwt>
<pdfrwt beam="2">  1       21 0.16942930E-01 0.45504691E+03</pdfrwt>
<totfact> 0.60893785E+04</totfact>
</mgrwt>
</event>
<event>
 7    0  0.4725730E-002  0.4535006E+03  0.7546771E-02  0.1026683E+00
         21   -1    0    0  502  501  0.00000000000E+00  0.00000000000E+00  0.26400818030E+03  0.26400818030E+03  0.00000000000E+00 0. -1.
         21   -1    0    0  501  502 -0.00000000000E+00 -0.00000000000E+00 -0.19475036637E+03  0.19475036637E+03  0.00000000000E+00 0. -1.
      99926    2    1    2    0    0 -0.14210854715E-13  0.00000000000E+00  0.69257813929E+02  0.45875854667E+03  0.45350056158E+03 0.  0.
      99925    2    3    3    0    0  0.93679969130E+02 -0.57501879506E+02  0.63983049362E+02  0.29215202218E+03  0.26301439256E+03 0.  0.
         25    1    4    4    0    0  0.47151049493E+02 -0.58130769440E+02  0.40017994683E+01  0.14582842769E+03  0.12509000000E+03 0.  0.
         25    1    4    4    0    0  0.46528919637E+02  0.62888993343E+00  0.59981249893E+02  0.14632359449E+03  0.12509000000E+03 0.  0.
         25    1    3    3    0    0 -0.93679969130E+02  0.57501879506E+02  0.52747645670E+01  0.16660652449E+03  0.12509000000E+03 0.  0.
<mgrwt>
<rscale>  2 0.45350056E+03</rscale>
<asrwt>0</asrwt>
<pdfrwt beam="1">  1       21 0.38824732E-01 0.45350056E+03</pdfrwt>
<pdfrwt beam="2">  1       21 0.28639760E-01 0.45350056E+03</pdfrwt>
<totfact> 0.69093625E+04</totfact>
</mgrwt>
</event>
<event>
 7    0  0.4725730E-002  0.4535183E+03  0.7546771E-02  0.1026678E+00
         21   -1    0    0  502  501  0.00000000000E+00  0.00000000000E+00  0.36597975544E+03  0.36597975544E+03  0.00000000000E+00 0.  1.
         21   -1    0    0  501  502 -0.00000000000E+00 -0.00000000000E+00 -0.14049879376E+03  0.14049879376E+03  0.00000000000E+00 0.  1.
      99926    2    1    2    0    0  0.71054273576E-14  0.00000000000E+00  0.22548096168E+03  0.50647854920E+03  0.45351830913E+03 0.  0.
      99925    2    3    3    0    0  0.54939043091E+02  0.95076575303E+02  0.11580894679E+03  0.30714638276E+03  0.26242967564E+03 0.  0.
         25    1    3    3    0    0 -0.54939043091E+02 -0.95076575303E+02  0.10967201489E+03  0.19933216644E+03  0.12509000000E+03 0.  0.
         25    1    4    4    0    0  0.56757084934E+02  0.57553868605E+02  0.33150866232E+02  0.15257884032E+03  0.12509000000E+03 0.  0.
         25    1    4    4    0    0 -0.18180418432E+01  0.37522706697E+02  0.82658080553E+02  0.15456754244E+03  0.12509000000E+03 0.  0.
<mgrwt>
<rscale>  2 0.45351831E+03</rscale>
<asrwt>0</asrwt>
<pdfrwt beam="1">  1       21 0.53820552E-01 0.45351831E+03</pdfrwt>
<pdfrwt beam="2">  1       21 0.20661587E-01 0.45351831E+03</pdfrwt>
<totfact> 0.65585778E+04</totfact>
</mgrwt>
</event>
<event>
 7    0  0.4725730E-002  0.5111840E+03  0.7546771E-02  0.1010900E+00
         21   -1    0    0  502  501  0.00000000000E+00  0.00000000000E+00  0.62980619106E+02  0.62980619106E+02  0.00000000000E+00 0. -1.
         21   -1    0    0  501  502 -0.00000000000E+00 -0.00000000000E+00 -0.10372597560E+04  0.10372597560E+04  0.00000000000E+00 0. -1.
      99926    2    1    2    0    0  0.00000000000E+00  0.00000000000E+00 -0.97427913694E+03  0.11002403752E+04  0.51118396536E+03 0.  0.
      99925    2    3    3    0    0  0.11060458558E+03  0.97963102767E+02 -0.71678240039E+03  0.77808789372E+03  0.26422266556E+03 0.  0.
         25    1    3    3    0    0 -0.11060458558E+03 -0.97963102767E+02 -0.25749673655E+03  0.32215248143E+03  0.12509000000E+03 0.  0.
         25    1    4    4    0    0  0.82687840702E+02  0.53452294442E+02 -0.47331477403E+03  0.49936841129E+03  0.12509000000E+03 0.  0.
         25    1    4    4    0    0  0.27916744881E+02  0.44510808325E+02 -0.24346762636E+03  0.27871948243E+03  0.12509000000E+03 0.  0.
<mgrwt>
<rscale>  2 0.51118397E+03</rscale>
<asrwt>0</asrwt>
<pdfrwt beam="1">  1       21 0.92618559E-02 0.51118397E+03</pdfrwt>
<pdfrwt beam="2">  1       21 0.15253820E+00 0.51118397E+03</pdfrwt>
<totfact> 0.23413831E+04</totfact>
</mgrwt>
</event>
<event>
 7    0  0.4725730E-002  0.4554313E+03  0.7546771E-02  0.1026115E+00
         21   -1    0    0  502  501  0.00000000000E+00  0.00000000000E+00  0.77847343741E+02  0.77847343741E+02  0.00000000000E+00 0. -1.
         21   -1    0    0  501  502 -0.00000000000E+00 -0.00000000000E+00 -0.66610386335E+03  0.66610386335E+03  0.00000000000E+00 0. -1.
      99926    2    1    2    0    0 -0.14210854715E-13  0.35527136788E-14 -0.58825651961E+03  0.74395120709E+03  0.45543129632E+03 0.  0.
      99925    2    3    3    0    0 -0.92812705042E+02  0.26540753623E+01 -0.26326289765E+03  0.38354920273E+03  0.26302356416E+03 0.  0.
         25    1    4    4    0    0 -0.29771803487E+02  0.35095257336E+02 -0.14879841192E+03  0.19976614543E+03  0.12509000000E+03 0.  0.
         25    1    4    4    0    0 -0.63040901555E+02 -0.32441181974E+02 -0.11446448573E+03  0.18378305730E+03  0.12509000000E+03 0.  0.
         25    1    3    3    0    0  0.92812705042E+02 -0.26540753623E+01 -0.32499362196E+03  0.36040200437E+03  0.12509000000E+03 0.  0.
<mgrwt>
<rscale>  2 0.45543130E+03</rscale>
<asrwt>0</asrwt>
<pdfrwt beam="1">  1       21 0.11448139E-01 0.45543130E+03</pdfrwt>
<pdfrwt beam="2">  1       21 0.97956453E-01 0.45543130E+03</pdfrwt>
<totfact> 0.50409673E+04</totfact>
</mgrwt>
</event>
<event>
 7    0  0.4725730E-002  0.4553997E+03  0.7546771E-02  0.1026124E+00
         21   -1    0    0  502  501  0.00000000000E+00  0.00000000000E+00  0.57840616172E+03  0.57840616172E+03  0.00000000000E+00 0. -1.
         21   -1    0    0  501  502 -0.00000000000E+00 -0.00000000000E+00 -0.89638079678E+02  0.89638079678E+02  0.00000000000E+00 0. -1.
      99926    2    1    2    0    0  0.00000000000E+00  0.00000000000E+00  0.48876808204E+03  0.66804424140E+03  0.45539968208E+03 0.  0.
      99925    2    3    3    0    0  0.52281825440E+02 -0.88901051945E+02  0.37696866565E+03  0.47110921680E+03  0.26306222261E+03 0.  0.
         25    1    4    4    0    0  0.37239061728E+01 -0.63570113338E+02  0.23778957473E+03  0.27612753709E+03  0.12509000000E+03 0.  0.
         25    1    3    3    0    0 -0.52281825440E+02  0.88901051945E+02  0.11179941639E+03  0.19693502460E+03  0.12509000000E+03 0.  0.
         25    1    4    4    0    0  0.48557919267E+02 -0.25330938607E+02  0.13917909092E+03  0.19498167971E+03  0.12509000000E+03 0.  0.
<mgrwt>
<rscale>  2 0.45539968E+03</rscale>
<asrwt>0</asrwt>
<pdfrwt beam="1">  1       21 0.85059728E-01 0.45539968E+03</pdfrwt>
<pdfrwt beam="2">  1       21 0.13182071E-01 0.45539968E+03</pdfrwt>
<totfact> 0.54500560E+04</totfact>
</mgrwt>
</event>
<event>
 7    0  0.4725730E-002  0.4573134E+03  0.7546771E-02  0.1025563E+00
         21   -1    0    0  502  501  0.00000000000E+00  0.00000000000E+00  0.40866024376E+02  0.40866024376E+02  0.00000000000E+00 0.  1.
         21   -1    0    0  501  502 -0.00000000000E+00 -0.00000000000E+00 -0.12793976208E+04  0.12793976208E+04  0.00000000000E+00 0.  1.
      99926    2    1    2    0    0  0.00000000000E+00  0.00000000000E+00 -0.12385315965E+04  0.13202636452E+04  0.45731343457E+03 0.  0.
      99925    2    3    3    0    0  0.48069382858E+01 -0.36449448719E+02 -0.10933470014E+04  0.11251284518E+04  0.26297280962E+03 0.  0.
         25    1    4    4    0    0  0.26107960428E+02  0.46256149534E+01 -0.63619562396E+03  0.64891864048E+03  0.12509000000E+03 0.  0.
         25    1    3    3    0    0 -0.48069382858E+01  0.36449448719E+02 -0.14518459506E+03  0.19513519342E+03  0.12509000000E+03 0.  0.
         25    1    4    4    0    0 -0.21301022142E+02 -0.41075063673E+02 -0.45715137745E+03  0.47620981133E+03  0.12509000000E+03 0.  0.
<mgrwt>
<rscale>  2 0.45731343E+03</rscale>
<asrwt>0</asrwt>
<pdfrwt beam="1">  1       21 0.60097094E-02 0.45731343E+03</pdfrwt>
<pdfrwt beam="2">  1       21 0.18814671E+00 0.45731343E+03</pdfrwt>
<totfact> 0.28024304E+04</totfact>
</mgrwt>
</event>
<event>
 7    0  0.4725730E-002  0.4610586E+03  0.7546771E-02  0.1024475E+00
         21   -1    0    0  502  501  0.00000000000E+00  0.00000000000E+00  0.90213018531E+02  0.90213018531E+02  0.00000000000E+00 0.  1.
         21   -1    0    0  501  502 -0.00000000000E+00 -0.00000000000E+00 -0.58909185937E+03  0.58909185937E+03  0.00000000000E+00 0.  1.
      99926    2    1    2    0    0  0.35527136788E-14  0.00000000000E+00 -0.49887884084E+03  0.67930487790E+03  0.46105858554E+03 0.  0.
      99925    2    3    3    0    0  0.25192579209E+02  0.24361403335E+02 -0.47922147311E+03  0.54791970284E+03  0.26331470990E+03 0.  0.
         25    1    4    4    0    0  0.34761888673E+02  0.17706687465E+02 -0.31490482714E+03  0.34107839853E+03  0.12509000000E+03 0.  0.
         25    1    4    4    0    0 -0.95693094635E+01  0.66547158701E+01 -0.16431664597E+03  0.20684130432E+03  0.12509000000E+03 0.  0.
         25    1    3    3    0    0 -0.25192579209E+02 -0.24361403335E+02 -0.19657367725E+02  0.13138517506E+03  0.12509000000E+03 0.  0.
<mgrwt>
<rscale>  2 0.46105859E+03</rscale>
<asrwt>0</asrwt>
<pdfrwt beam="1">  1       21 0.13266621E-01 0.46105859E+03</pdfrwt>
<pdfrwt beam="2">  1       21 0.86631155E-01 0.46105859E+03</pdfrwt>
<totfact> 0.51536554E+04</totfact>
</mgrwt>
</event>
<event>
 7    0  0.4725730E-002  0.4571852E+03  0.7546771E-02  0.1025601E+00
         21   -1    0    0  502  501  0.00000000000E+00  0.00000000000E+00  0.10841368042E+03  0.10841368042E+03  0.00000000000E+00 0. -1.
         21   -1    0    0  501  502 -0.00000000000E+00 -0.00000000000E+00 -0.48199255427E+03  0.48199255427E+03  0.00000000000E+00 0. -1.
      99926    2    1    2    0    0  0.00000000000E+00  0.00000000000E+00 -0.37357887386E+03  0.59040623469E+03  0.45718524360E+03 0.  0.
      99925    2    3    3    0    0 -0.71068793481E+01  0.62729271653E+02 -0.35908694524E+03  0.44954107451E+03  0.26297960791E+03 0.  0.
         25    1    3    3    0    0  0.71068793481E+01 -0.62729271653E+02 -0.14491928615E+02  0.14086516018E+03  0.12509000000E+03 0.  0.
         25    1    4    4    0    0  0.26012688172E+02  0.55009392846E+02 -0.16053103041E+03  0.21241566108E+03  0.12509000000E+03 0.  0.
         25    1    4    4    0    0 -0.33119567520E+02  0.77198788072E+01 -0.19855591483E+03  0.23712541343E+03  0.12509000000E+03 0.  0.
<mgrwt>
<rscale>  2 0.45718524E+03</rscale>
<asrwt>0</asrwt>
<pdfrwt beam="1">  1       21 0.15943188E-01 0.45718524E+03</pdfrwt>
<pdfrwt beam="2">  1       21 0.70881257E-01 0.45718524E+03</pdfrwt>
<totfact> 0.58259956E+04</totfact>
</mgrwt>
</event>
<event>
 7    0  0.4725730E-002  0.4493684E+03  0.7546771E-02  0.1027911E+00
         21   -1    0    0  502  501  0.00000000000E+00  0.00000000000E+00  0.13137824091E+03  0.13137824091E+03  0.00000000000E+00 0. -1.
         21   -1    0    0  501  502 -0.00000000000E+00 -0.00000000000E+00 -0.38425690001E+03  0.38425690001E+03  0.00000000000E+00 0. -1.
      99926    2    1    2    0    0  0.14210854715E-13  0.00000000000E+00 -0.25287865910E+03  0.51563514092E+03  0.44936842604E+03 0.  0.
      99925    2    3    3    0    0  0.98370790755E+02  0.42525375045E+02 -0.14810766744E+03  0.32041811095E+03  0.26314761005E+03 0.  0.
         25    1    4    4    0    0  0.12128500362E+02  0.18724264417E+02 -0.43008230594E+02  0.13414512514E+03  0.12509000000E+03 0.  0.
         25    1    4    4    0    0  0.86242290393E+02  0.23801110628E+02 -0.10509943684E+03  0.18627298581E+03  0.12509000000E+03 0.  0.
         25    1    3    3    0    0 -0.98370790755E+02 -0.42525375045E+02 -0.10477099166E+03  0.19521702997E+03  0.12509000000E+03 0.  0.
<mgrwt>
<rscale>  2 0.44936843E+03</rscale>
<asrwt>0</asrwt>
<pdfrwt beam="1">  1       21 0.19320329E-01 0.44936843E+03</pdfrwt>
<pdfrwt beam="2">  1       21 0.56508368E-01 0.44936843E+03</pdfrwt>
<totfact> 0.67135539E+04</totfact>
</mgrwt>
</event>
<event>
 7    0  0.4725730E-002  0.4318705E+03  0.7546771E-02  0.1033271E+00
         21   -1    0    0  502  501  0.00000000000E+00  0.00000000000E+00  0.49068179972E+03  0.49068179972E+03  0.00000000000E+00 0. -1.
         21   -1    0    0  501  502 -0.00000000000E+00 -0.00000000000E+00 -0.95027013138E+02  0.95027013138E+02  0.00000000000E+00 0. -1.
      99926    2    1    2    0    0  0.71054273576E-14  0.00000000000E+00  0.39565478659E+03  0.58570881286E+03  0.43187047053E+03 0.  0.
      99925    2    3    3    0    0 -0.38883911173E+02 -0.79919212510E+02  0.23651370195E+03  0.36463771119E+03  0.26291232404E+03 0.  0.
         25    1    4    4    0    0  0.18006160848E+02 -0.30342742289E+02  0.92722733767E+02  0.15965562093E+03  0.12509000000E+03 0.  0.
         25    1    3    3    0    0  0.38883911173E+02  0.79919212510E+02  0.15914108463E+03  0.22107110167E+03  0.12509000000E+03 0.  0.
         25    1    4    4    0    0 -0.56890072021E+02 -0.49576470221E+02  0.14379096819E+03  0.20498209026E+03  0.12509000000E+03 0.  0.
<mgrwt>
<rscale>  2 0.43187047E+03</rscale>
<asrwt>0</asrwt>
<pdfrwt beam="1">  1       21 0.72159087E-01 0.43187047E+03</pdfrwt>
<pdfrwt beam="2">  1       21 0.13974561E-01 0.43187047E+03</pdfrwt>
<totfact> 0.71823527E+04</totfact>
</mgrwt>
</event>
<event>
 7    0  0.4725730E-002  0.4496164E+03  0.7546771E-02  0.1027836E+00
         21   -1    0    0  502  501  0.00000000000E+00  0.00000000000E+00  0.37791937275E+02  0.37791937275E+02  0.00000000000E+00 0.  1.
         21   -1    0    0  501  502 -0.00000000000E+00 -0.00000000000E+00 -0.13372888140E+04  0.13372888140E+04  0.00000000000E+00 0.  1.
      99926    2    1    2    0    0  0.53290705182E-14  0.17763568394E-14 -0.12994968767E+04  0.13750807512E+04  0.44961643643E+03 0.  0.
      99925    2    3    3    0    0  0.93794864296E+01  0.14556468237E+02 -0.49709521402E+03  0.56280259575E+03  0.26333105485E+03 0.  0.
         25    1    4    4    0    0  0.44461086243E+02  0.10871922929E+02 -0.23066349410E+03  0.26636092526E+03  0.12509000000E+03 0.  0.
         25    1    4    4    0    0 -0.35081599814E+02  0.36845453082E+01 -0.26643171992E+03  0.29644167049E+03  0.12509000000E+03 0.  0.
         25    1    3    3    0    0 -0.93794864296E+01 -0.14556468237E+02 -0.80240166266E+03  0.81227815548E+03  0.12509000000E+03 0.  0.
<mgrwt>
<rscale>  2 0.44961644E+03</rscale>
<asrwt>0</asrwt>
<pdfrwt beam="1">  1       21 0.55576381E-02 0.44961644E+03</pdfrwt>
<pdfrwt beam="2">  1       21 0.19666011E+00 0.44961644E+03</pdfrwt>
<totfact> 0.28163830E+04</totfact>
</mgrwt>
</event>
<event>
 7    0  0.4725730E-002  0.4564886E+03  0.7546771E-02  0.1025805E+00
         21   -1    0    0  502  501  0.00000000000E+00  0.00000000000E+00  0.70973886315E+03  0.70973886315E+03  0.00000000000E+00 0. -1.
         21   -1    0    0  501  502 -0.00000000000E+00 -0.00000000000E+00 -0.73400870553E+02  0.73400870553E+02  0.00000000000E+00 0. -1.
      99926    2    1    2    0    0  0.00000000000E+00  0.14210854715E-13  0.63633799260E+03  0.78313973370E+03  0.45648855591E+03 0.  0.
      99925    2    3    3    0    0 -0.15131291324E+02 -0.10568919570E+03  0.47112969464E+03  0.55002934809E+03  0.26300177286E+03 0.  0.
         25    1    4    4    0    0 -0.35614562738E+02 -0.32177240244E+02  0.26726283067E+03  0.29896605263E+03  0.12509000000E+03 0.  0.
         25    1    3    3    0    0  0.15131291324E+02  0.10568919570E+03  0.16520829795E+03  0.23311038561E+03  0.12509000000E+03 0.  0.
         25    1    4    4    0    0  0.20483271413E+02 -0.73511955456E+02  0.20386686397E+03  0.25106329546E+03  0.12509000000E+03 0.  0.
<mgrwt>
<rscale>  2 0.45648856E+03</rscale>
<asrwt>0</asrwt>
<pdfrwt beam="1">  1       21 0.10437336E+00 0.45648856E+03</pdfrwt>
<pdfrwt beam="2">  1       21 0.10794246E-01 0.45648856E+03</pdfrwt>
<totfact> 0.48027575E+04</totfact>
</mgrwt>
</event>
<event>
 7    0  0.4725730E-002  0.4529005E+03  0.7546771E-02  0.1026861E+00
         21   -1    0    0  502  501  0.00000000000E+00  0.00000000000E+00  0.15316709186E+03  0.15316709186E+03  0.00000000000E+00 0. -1.
         21   -1    0    0  501  502 -0.00000000000E+00 -0.00000000000E+00 -0.33479585515E+03  0.33479585515E+03  0.00000000000E+00 0. -1.
      99926    2    1    2    0    0  0.35527136788E-14  0.00000000000E+00 -0.18162876328E+03  0.48796294701E+03  0.45290046368E+03 0.  0.
      99925    2    3    3    0    0 -0.95109787527E+01 -0.50232557199E+02 -0.81229459411E+01  0.26804126716E+03  0.26299500020E+03 0.  0.
         25    1    3    3    0    0  0.95109787527E+01  0.50232557199E+02 -0.17350581734E+03  0.21992167986E+03  0.12509000000E+03 0.  0.
         25    1    4    4    0    0 -0.42398818259E+02 -0.37386762527E+02 -0.13648515832E+02  0.13794643847E+03  0.12509000000E+03 0.  0.
         25    1    4    4    0    0  0.32887839506E+02 -0.12845794672E+02  0.55255698910E+01  0.13009482869E+03  0.12509000000E+03 0.  0.
<mgrwt>
<rscale>  2 0.45290046E+03</rscale>
<asrwt>0</asrwt>
<pdfrwt beam="1">  1       21 0.22524572E-01 0.45290046E+03</pdfrwt>
<pdfrwt beam="2">  1       21 0.49234684E-01 0.45290046E+03</pdfrwt>
<totfact> 0.67238596E+04</totfact>
</mgrwt>
</event>
<event>
 7    0  0.4725730E-002  0.4557208E+03  0.7546771E-02  0.1026030E+00
         21   -1    0    0  502  501  0.00000000000E+00  0.00000000000E+00  0.58499676960E+03  0.58499676960E+03  0.00000000000E+00 0.  1.
         21   -1    0    0  501  502 -0.00000000000E+00 -0.00000000000E+00 -0.88753264059E+02  0.88753264059E+02  0.00000000000E+00 0.  1.
      99926    2    1    2    0    0  0.00000000000E+00 -0.14210854715E-13  0.49624350554E+03  0.67375003366E+03  0.45572084774E+03 0.  0.
      99925    2    3    3    0    0 -0.16995639591E+02 -0.11135855826E+03  0.28783505879E+03  0.40584861701E+03  0.26301045340E+03 0.  0.
         25    1    4    4    0    0  0.63212895140E+01 -0.85445130531E+02  0.19099172032E+03  0.24385687270E+03  0.12509000000E+03 0.  0.
         25    1    3    3    0    0  0.16995639591E+02  0.11135855826E+03  0.20840844675E+03  0.26790141664E+03  0.12509000000E+03 0.  0.
         25    1    4    4    0    0 -0.23316929105E+02 -0.25913427732E+02  0.96843338476E+02  0.16199174432E+03  0.12509000000E+03 0.  0.
<mgrwt>
<rscale>  2 0.45572085E+03</rscale>
<asrwt>0</asrwt>
<pdfrwt beam="1">  1       21 0.86028935E-01 0.45572085E+03</pdfrwt>
<pdfrwt beam="2">  1       21 0.13051951E-01 0.45572085E+03</pdfrwt>
<totfact> 0.54044058E+04</totfact>
</mgrwt>
</event>
<event>
 7    0  0.4725730E-002  0.4625014E+03  0.7546771E-02  0.1024058E+00
         21   -1    0    0  502  501  0.00000000000E+00  0.00000000000E+00  0.44455059601E+02  0.44455059601E+02  0.00000000000E+00 0.  1.
         21   -1    0    0  501  502 -0.00000000000E+00 -0.00000000000E+00 -0.12029424157E+04  0.12029424157E+04  0.00000000000E+00 0.  1.
      99926    2    1    2    0    0 -0.71054273576E-14  0.00000000000E+00 -0.11584873561E+04  0.12473974753E+04  0.46250135907E+03 0.  0.
      99925    2    3    3    0    0 -0.41445912741E+02  0.10863537930E+03 -0.80414904885E+03  0.85404959695E+03  0.26310760530E+03 0.  0.
         25    1    3    3    0    0  0.41445912741E+02 -0.10863537930E+03 -0.35433830724E+03  0.39334787834E+03  0.12509000000E+03 0.  0.
         25    1    4    4    0    0 -0.29045232822E+02  0.83193925188E+02 -0.34672813390E+03  0.37898913134E+03  0.12509000000E+03 0.  0.
         25    1    4    4    0    0 -0.12400679920E+02  0.25441454109E+02 -0.45742091495E+03  0.47506046561E+03  0.12509000000E+03 0.  0.
<mgrwt>
<rscale>  2 0.46250136E+03</rscale>
<asrwt>0</asrwt>
<pdfrwt beam="1">  1       21 0.65375104E-02 0.46250136E+03</pdfrwt>
<pdfrwt beam="2">  1       21 0.17690325E+00 0.46250136E+03</pdfrwt>
<totfact> 0.28953415E+04</totfact>
</mgrwt>
</event>
<event>
 7    0  0.4725730E-002  0.4514909E+03  0.7546771E-02  0.1027278E+00
         21   -1    0    0  502  501  0.00000000000E+00  0.00000000000E+00  0.89572121441E+02  0.89572121441E+02  0.00000000000E+00 0.  1.
         21   -1    0    0  501  502 -0.00000000000E+00 -0.00000000000E+00 -0.56893826494E+03  0.56893826494E+03  0.00000000000E+00 0.  1.
      99926    2    1    2    0    0 -0.26090241079E-14  0.00000000000E+00 -0.47936614350E+03  0.65851038638E+03  0.45149089630E+03 0.  0.
      99925    2    3    3    0    0  0.37246670013E+00  0.46896473798E+02 -0.44675387058E+03  0.52099498204E+03  0.26390781050E+03 0.  0.
         25    1    3    3    0    0 -0.37246670013E+00 -0.46896473798E+02 -0.32612272915E+02  0.13751540434E+03  0.12509000000E+03 0.  0.
         25    1    4    4    0    0 -0.36535291157E+02  0.20645188724E+02 -0.26174935961E+03  0.29312333014E+03  0.12509000000E+03 0.  0.
         25    1    4    4    0    0  0.36907757857E+02  0.26251285075E+02 -0.18500451097E+03  0.22787165190E+03  0.12509000000E+03 0.  0.
<mgrwt>
<rscale>  2 0.45149090E+03</rscale>
<asrwt>0</asrwt>
<pdfrwt beam="1">  1       21 0.13172370E-01 0.45149090E+03</pdfrwt>
<pdfrwt beam="2">  1       21 0.83667394E-01 0.45149090E+03</pdfrwt>
<totfact> 0.56768233E+04</totfact>
</mgrwt>
</event>
<event>
 7    0  0.4725730E-002  0.4561184E+03  0.7546771E-02  0.1025913E+00
         21   -1    0    0  502  501  0.00000000000E+00  0.00000000000E+00  0.97346942168E+03  0.97346942168E+03  0.00000000000E+00 0.  1.
         21   -1    0    0  501  502 -0.00000000000E+00 -0.00000000000E+00 -0.53428498948E+02  0.53428498948E+02  0.00000000000E+00 0.  1.
      99926    2    1    2    0    0  0.00000000000E+00  0.00000000000E+00  0.92004092273E+03  0.10268979206E+04  0.45611844940E+03 0.  0.
      99925    2    3    3    0    0 -0.10335394138E+03  0.40122516714E+02  0.51578350128E+03  0.58944686686E+03  0.26291278993E+03 0.  0.
         25    1    3    3    0    0  0.10335394138E+03 -0.40122516714E+02  0.40425742146E+03  0.43745105377E+03  0.12509000000E+03 0.  0.
         25    1    4    4    0    0 -0.59350177162E+02 -0.15664916039E+02  0.28979881950E+03  0.32155667776E+03  0.12509000000E+03 0.  0.
         25    1    4    4    0    0 -0.44003764219E+02  0.55787432753E+02  0.22598468178E+03  0.26789018910E+03  0.12509000000E+03 0.  0.
<mgrwt>
<rscale>  2 0.45611845E+03</rscale>
<asrwt>0</asrwt>
<pdfrwt beam="1">  1       21 0.14315726E+00 0.45611845E+03</pdfrwt>
<pdfrwt beam="2">  1       21 0.78571328E-02 0.45611845E+03</pdfrwt>
<totfact> 0.37805469E+04</totfact>
</mgrwt>
</event>
<event>
 7    0  0.4725730E-002  0.4457949E+03  0.7546771E-02  0.1028983E+00
         21   -1    0    0  502  501  0.00000000000E+00  0.00000000000E+00  0.26547639481E+03  0.26547639481E+03  0.00000000000E+00 0.  1.
         21   -1    0    0  501  502 -0.00000000000E+00 -0.00000000000E+00 -0.18714764371E+03  0.18714764371E+03  0.00000000000E+00 0.  1.
      99926    2    1    2    0    0  0.00000000000E+00 -0.71054273576E-14  0.78328751107E+02  0.45262403852E+03  0.44579493828E+03 0.  0.
      99925    2    3    3    0    0 -0.54010631390E+02 -0.42522325216E+02 -0.29958267649E+02  0.27346242719E+03  0.26298080697E+03 0.  0.
         25    1    4    4    0    0 -0.33845760593E+02 -0.55260489227E+02 -0.37849914850E+02  0.14587453970E+03  0.12509000000E+03 0.  0.
         25    1    3    3    0    0  0.54010631390E+02  0.42522325216E+02  0.10828701876E+03  0.17916161133E+03  0.12509000000E+03 0.  0.
         25    1    4    4    0    0 -0.20164870798E+02  0.12738164011E+02  0.78916472009E+01  0.12758788748E+03  0.12509000000E+03 0.  0.
<mgrwt>
<rscale>  2 0.44579494E+03</rscale>
<asrwt>0</asrwt>
<pdfrwt beam="1">  1       21 0.39040647E-01 0.44579494E+03</pdfrwt>
<pdfrwt beam="2">  1       21 0.27521712E-01 0.44579494E+03</pdfrwt>
<totfact> 0.74006311E+04</totfact>
</mgrwt>
</event>
<event>
 7    0  0.4725730E-002  0.4577856E+03  0.7546771E-02  0.1025425E+00
         21   -1    0    0  502  501  0.00000000000E+00  0.00000000000E+00  0.27402469985E+03  0.27402469985E+03  0.00000000000E+00 0. -1.
         21   -1    0    0  501  502 -0.00000000000E+00 -0.00000000000E+00 -0.19119410512E+03  0.19119410512E+03  0.00000000000E+00 0. -1.
      99926    2    1    2    0    0  0.00000000000E+00  0.00000000000E+00  0.82830594733E+02  0.46521880497E+03  0.45778557106E+03 0.  0.
      99925    2    3    3    0    0 -0.25321302755E+02 -0.60182921787E+02  0.14800165572E+03  0.30979059730E+03  0.26420176312E+03 0.  0.
         25    1    4    4    0    0 -0.10430368121E+02 -0.34224228460E+02  0.12243154181E+03  0.17865352200E+03  0.12509000000E+03 0.  0.
         25    1    3    3    0    0  0.25321302755E+02  0.60182921787E+02 -0.65171060983E+02  0.15542820766E+03  0.12509000000E+03 0.  0.
         25    1    4    4    0    0 -0.14890934634E+02 -0.25958693327E+02  0.25570113904E+02  0.13113707530E+03  0.12509000000E+03 0.  0.
<mgrwt>
<rscale>  2 0.45778557E+03</rscale>
<asrwt>0</asrwt>
<pdfrwt beam="1">  1       21 0.40297750E-01 0.45778557E+03</pdfrwt>
<pdfrwt beam="2">  1       21 0.28116780E-01 0.45778557E+03</pdfrwt>
<totfact> 0.66313283E+04</totfact>
</mgrwt>
</event>
<event>
 7    0  0.4725730E-002  0.4467847E+03  0.7546771E-02  0.1028685E+00
         21   -1    0    0  502  501  0.00000000000E+00  0.00000000000E+00  0.15875716662E+04  0.15875716662E+04  0.00000000000E+00 0. -1.
         21   -1    0    0  501  502 -0.00000000000E+00 -0.00000000000E+00 -0.31434256741E+02  0.31434256741E+02  0.00000000000E+00 0. -1.
      99926    2    1    2    0    0  0.11102230246E-15  0.00000000000E+00  0.15561374095E+04  0.16190059229E+04  0.44678467006E+03 0.  0.
      99925    2    3    3    0    0  0.49066994062E+00  0.72174993867E+02  0.12645027134E+04  0.12935711759E+04  0.26296350429E+03 0.  0.
         25    1    3    3    0    0 -0.49066994062E+00 -0.72174993867E+02  0.29163469608E+03  0.32543474700E+03  0.12509000000E+03 0.  0.
         25    1    4    4    0    0  0.67055856883E+01  0.38406209011E+01  0.71188833791E+03  0.72283623941E+03  0.12509000000E+03 0.  0.
         25    1    4    4    0    0 -0.62149157477E+01  0.68334372966E+02  0.55261437548E+03  0.57073493654E+03  0.12509000000E+03 0.  0.
<mgrwt>
<rscale>  2 0.44678467E+03</rscale>
<asrwt>0</asrwt>
<pdfrwt beam="1">  1       21 0.23346637E+00 0.44678467E+03</pdfrwt>
<pdfrwt beam="2">  1       21 0.46226859E-02 0.44678467E+03</pdfrwt>
<totfact> 0.22398815E+04</totfact>
</mgrwt>
</event>
<event>
 7    0  0.4725730E-002  0.4714531E+03  0.7546771E-02  0.1021511E+00
         21   -1    0    0  502  501  0.00000000000E+00  0.00000000000E+00  0.13843435616E+03  0.13843435616E+03  0.00000000000E+00 0. -1.
         21   -1    0    0  501  502 -0.00000000000E+00 -0.00000000000E+00 -0.40139601959E+03  0.40139601959E+03  0.00000000000E+00 0. -1.
      99926    2    1    2    0    0  0.00000000000E+00  0.00000000000E+00 -0.26296166343E+03  0.53983037575E+03  0.47145307099E+03 0.  0.
      99925    2    3    3    0    0 -0.84357689229E+02  0.96008998194E+02 -0.16031986087E+03  0.33363436415E+03  0.26320236262E+03 0.  0.
         25    1    4    4    0    0 -0.15668255301E+02  0.68810625072E+02 -0.10611998104E+03  0.17857590773E+03  0.12509000000E+03 0.  0.
         25    1    4    4    0    0 -0.68689433928E+02  0.27198373122E+02 -0.54199879832E+02  0.15505845642E+03  0.12509000000E+03 0.  0.
         25    1    3    3    0    0  0.84357689229E+02 -0.96008998194E+02 -0.10264180256E+03  0.20619601160E+03  0.12509000000E+03 0.  0.
<mgrwt>
<rscale>  2 0.47145307E+03</rscale>
<asrwt>0</asrwt>
<pdfrwt beam="1">  1       21 0.20357994E-01 0.47145307E+03</pdfrwt>
<pdfrwt beam="2">  1       21 0.59028826E-01 0.47145307E+03</pdfrwt>
<totfact> 0.55013941E+04</totfact>
</mgrwt>
</event>
<event>
 7    0  0.4725730E-002  0.4513309E+03  0.7546771E-02  0.1027326E+00
         21   -1    0    0  502  501  0.00000000000E+00  0.00000000000E+00  0.10299093780E+03  0.10299093780E+03  0.00000000000E+00 0.  1.
         21   -1    0    0  501  502 -0.00000000000E+00 -0.00000000000E+00 -0.49446005281E+03  0.49446005281E+03  0.00000000000E+00 0.  1.
      99926    2    1    2    0    0  0.00000000000E+00  0.00000000000E+00 -0.39146911501E+03  0.59745099060E+03  0.45133094085E+03 0.  0.
      99925    2    3    3    0    0 -0.74527524713E+02  0.77816746801E+02 -0.27463532414E+03  0.39519511106E+03  0.26295401977E+03 0.  0.
         25    1    4    4    0    0 -0.19599631317E+02  0.52769671176E+02 -0.18336554868E+03  0.22899610539E+03  0.12509000000E+03 0.  0.
         25    1    3    3    0    0  0.74527524713E+02 -0.77816746801E+02 -0.11683379087E+03  0.20225587955E+03  0.12509000000E+03 0.  0.
         25    1    4    4    0    0 -0.54927893397E+02  0.25047075624E+02 -0.91269775458E+02  0.16619900566E+03  0.12509000000E+03 0.  0.
<mgrwt>
<rscale>  2 0.45133094E+03</rscale>
<asrwt>0</asrwt>
<pdfrwt beam="1">  1       21 0.15145726E-01 0.45133094E+03</pdfrwt>
<pdfrwt beam="2">  1       21 0.72714712E-01 0.45133094E+03</pdfrwt>
<totfact> 0.60572540E+04</totfact>
</mgrwt>
</event>
<event>
 7    0  0.4725730E-002  0.4504723E+03  0.7546771E-02  0.1027581E+00
         21   -1    0    0  502  501  0.00000000000E+00  0.00000000000E+00  0.54433385986E+03  0.54433385986E+03  0.00000000000E+00 0. -1.
         21   -1    0    0  501  502 -0.00000000000E+00 -0.00000000000E+00 -0.93198903069E+02  0.93198903069E+02  0.00000000000E+00 0. -1.
      99926    2    1    2    0    0  0.14210854715E-13  0.00000000000E+00  0.45113495679E+03  0.63753276293E+03  0.45047227947E+03 0.  0.
      99925    2    3    3    0    0  0.98806236917E+02 -0.44355476715E+01  0.34926153708E+03  0.44830261660E+03  0.26307654442E+03 0.  0.
         25    1    4    4    0    0  0.72488272398E+01 -0.77772850427E+01  0.14356882629E+03  0.19071588199E+03  0.12509000000E+03 0.  0.
         25    1    4    4    0    0  0.91557409677E+02  0.33417373712E+01  0.20569271079E+03  0.25758673461E+03  0.12509000000E+03 0.  0.
         25    1    3    3    0    0 -0.98806236917E+02  0.44355476715E+01  0.10187341971E+03  0.18923014633E+03  0.12509000000E+03 0.  0.
<mgrwt>
<rscale>  2 0.45047228E+03</rscale>
<asrwt>0</asrwt>
<pdfrwt beam="1">  1       21 0.80049096E-01 0.45047228E+03</pdfrwt>
<pdfrwt beam="2">  1       21 0.13705721E-01 0.45047228E+03</pdfrwt>
<totfact> 0.58487544E+04</totfact>
</mgrwt>
</event>
<event>
 7    0  0.4725730E-002  0.4538213E+03  0.7546771E-02  0.1026589E+00
         21   -1    0    0  502  501  0.00000000000E+00  0.00000000000E+00  0.48547315469E+03  0.48547315469E+03  0.00000000000E+00 0.  1.
         21   -1    0    0  501  502 -0.00000000000E+00 -0.00000000000E+00 -0.10605826351E+03  0.10605826351E+03  0.00000000000E+00 0.  1.
      99926    2    1    2    0    0  0.71054273576E-14  0.00000000000E+00  0.37941489118E+03  0.59153141821E+03  0.45382128540E+03 0.  0.
      99925    2    3    3    0    0  0.62722008582E+02  0.64079147152E+02  0.15195420065E+03  0.31689336313E+03  0.26323209728E+03 0.  0.
         25    1    4    4    0    0  0.38682042245E+02  0.22151678218E+02  0.12012523930E+03  0.17906584950E+03  0.12509000000E+03 0.  0.
         25    1    3    3    0    0 -0.62722008582E+02 -0.64079147152E+02  0.22746069053E+03  0.27463805508E+03  0.12509000000E+03 0.  0.
         25    1    4    4    0    0  0.24039966337E+02  0.41927468934E+02  0.31828961346E+02  0.13782751363E+03  0.12509000000E+03 0.  0.
<mgrwt>
<rscale>  2 0.45382129E+03</rscale>
<asrwt>0</asrwt>
<pdfrwt beam="1">  1       21 0.71393110E-01 0.45382129E+03</pdfrwt>
<pdfrwt beam="2">  1       21 0.15596804E-01 0.45382129E+03</pdfrwt>
<totfact> 0.59757310E+04</totfact>
</mgrwt>
</event>
<event>
 7    0  0.4725730E-002  0.4046047E+03  0.7546771E-02  0.1042197E+00
         21   -1    0    0  502  501  0.00000000000E+00  0.00000000000E+00  0.87895533373E+03  0.87895533373E+03  0.00000000000E+00 0. -1.
         21   -1    0    0  501  502 -0.00000000000E+00 -0.00000000000E+00 -0.46562367816E+02  0.46562367816E+02  0.00000000000E+00 0. -1.
      99926    2    1    2    0    0  0.00000000000E+00  0.00000000000E+00  0.83239296592E+03  0.92551770155E+03  0.40460470359E+03 0.  0.
      99925    2    3    3    0    0  0.23866134505E+01  0.53669557461E+02  0.55044059231E+03  0.61241904872E+03  0.26303256119E+03 0.  0.
         25    1    4    4    0    0  0.42183382330E+01  0.49104045240E+02  0.20657407077E+03  0.24647384537E+03  0.12509000000E+03 0.  0.
         25    1    3    3    0    0 -0.23866134505E+01 -0.53669557461E+02  0.28195237360E+03  0.31309865283E+03  0.12509000000E+03 0.  0.
         25    1    4    4    0    0 -0.18317247824E+01  0.45655122208E+01  0.34386652155E+03  0.36594520335E+03  0.12509000000E+03 0.  0.
<mgrwt>
<rscale>  2 0.40460470E+03</rscale>
<asrwt>0</asrwt>
<pdfrwt beam="1">  1       21 0.12925813E+00 0.40460470E+03</pdfrwt>
<pdfrwt beam="2">  1       21 0.68474076E-02 0.40460470E+03</pdfrwt>
<totfact> 0.63839147E+04</totfact>
</mgrwt>
</event>
<event>
 7    0  0.4725730E-002  0.4724472E+03  0.7546771E-02  0.1021232E+00
         21   -1    0    0  502  501  0.00000000000E+00  0.00000000000E+00  0.11497127545E+03  0.11497127545E+03  0.00000000000E+00 0. -1.
         21   -1    0    0  501  502 -0.00000000000E+00 -0.00000000000E+00 -0.48535239772E+03  0.48535239772E+03  0.00000000000E+00 0. -1.
      99926    2    1    2    0    0  0.00000000000E+00 -0.71054273576E-14 -0.37038112226E+03  0.60032367317E+03  0.47244717889E+03 0.  0.
      99925    2    3    3    0    0 -0.93073829389E+02  0.51528251846E+02 -0.13706721057E+03  0.31501543995E+03  0.26292472067E+03 0.  0.
         25    1    4    4    0    0 -0.32445396132E+02  0.32922243288E+02 -0.25428998677E+02  0.13575978752E+03  0.12509000000E+03 0.  0.
         25    1    4    4    0    0 -0.60628433257E+02  0.18606008558E+02 -0.11163821189E+03  0.17925565243E+03  0.12509000000E+03 0.  0.
         25    1    3    3    0    0  0.93073829389E+02 -0.51528251846E+02 -0.23331391169E+03  0.28530823322E+03  0.12509000000E+03 0.  0.
<mgrwt>
<rscale>  2 0.47244718E+03</rscale>
<asrwt>0</asrwt>
<pdfrwt beam="1">  1       21 0.16907540E-01 0.47244718E+03</pdfrwt>
<pdfrwt beam="2">  1       21 0.71375353E-01 0.47244718E+03</pdfrwt>
<totfact> 0.51222715E+04</totfact>
</mgrwt>
</event>
<event>
 7    0  0.4725730E-002  0.4784694E+03  0.7546771E-02  0.1019557E+00
         21   -1    0    0  502  501  0.00000000000E+00  0.00000000000E+00  0.25680540244E+03  0.25680540244E+03  0.00000000000E+00 0. -1.
         21   -1    0    0  501  502 -0.00000000000E+00 -0.00000000000E+00 -0.22286622705E+03  0.22286622705E+03  0.00000000000E+00 0. -1.
      99926    2    1    2    0    0  0.00000000000E+00  0.00000000000E+00  0.33939175390E+02  0.47967162949E+03  0.47846943948E+03 0.  0.
      99925    2    3    3    0    0 -0.67067722618E+02  0.10465133777E+03  0.70876291769E+02  0.29949993199E+03  0.26310982235E+03 0.  0.
         25    1    3    3    0    0  0.67067722618E+02 -0.10465133777E+03 -0.36937116379E+02  0.18017169750E+03  0.12509000000E+03 0.  0.
         25    1    4    4    0    0 -0.61734092307E+02  0.74908166461E+02  0.63523216630E+02  0.17060198916E+03  0.12509000000E+03 0.  0.
         25    1    4    4    0    0 -0.53336303109E+01  0.29743171309E+02  0.73530751392E+01  0.12889794283E+03  0.12509000000E+03 0.  0.
<mgrwt>
<rscale>  2 0.47846944E+03</rscale>
<asrwt>0</asrwt>
<pdfrwt beam="1">  1       21 0.37765500E-01 0.47846944E+03</pdfrwt>
<pdfrwt beam="2">  1       21 0.32774445E-01 0.47846944E+03</pdfrwt>
<totfact> 0.55609106E+04</totfact>
</mgrwt>
</event>
<event>
 7    0  0.4725730E-002  0.4583188E+03  0.7546771E-02  0.1025270E+00
         21   -1    0    0  502  501  0.00000000000E+00  0.00000000000E+00  0.15096720303E+03  0.15096720303E+03  0.00000000000E+00 0. -1.
         21   -1    0    0  501  502 -0.00000000000E+00 -0.00000000000E+00 -0.34785064739E+03  0.34785064739E+03  0.00000000000E+00 0. -1.
      99926    2    1    2    0    0  0.00000000000E+00 -0.71054273576E-14 -0.19688344436E+03  0.49881785041E+03  0.45831883796E+03 0.  0.
      99925    2    3    3    0    0  0.38257873024E+01 -0.55005803685E+02 -0.23484308443E+03  0.35694213910E+03  0.26308960692E+03 0.  0.
         25    1    4    4    0    0  0.16814785882E+02  0.91904497256E+01 -0.12683129117E+03  0.17916720099E+03  0.12509000000E+03 0.  0.
         25    1    4    4    0    0 -0.12988998580E+02 -0.64196253410E+02 -0.10801179326E+03  0.17777493811E+03  0.12509000000E+03 0.  0.
         25    1    3    3    0    0 -0.38257873024E+01  0.55005803685E+02  0.37959640068E+02  0.14187571132E+03  0.12509000000E+03 0.  0.
<mgrwt>
<rscale>  2 0.45831884E+03</rscale>
<asrwt>0</asrwt>
<pdfrwt beam="1">  1       21 0.22201059E-01 0.45831884E+03</pdfrwt>
<pdfrwt beam="2">  1       21 0.51154507E-01 0.45831884E+03</pdfrwt>
<totfact> 0.63659986E+04</totfact>
</mgrwt>
</event>
<event>
 7    0  0.4725730E-002  0.4505077E+03  0.7546771E-02  0.1027571E+00
         21   -1    0    0  502  501  0.00000000000E+00  0.00000000000E+00  0.17630399006E+04  0.17630399006E+04  0.00000000000E+00 0.  1.
         21   -1    0    0  501  502 -0.00000000000E+00 -0.00000000000E+00 -0.28779443305E+02  0.28779443305E+02  0.00000000000E+00 0.  1.
      99926    2    1    2    0    0  0.00000000000E+00  0.00000000000E+00  0.17342604573E+04  0.17918193439E+04  0.45050774406E+03 0.  0.
      99925    2    3    3    0    0  0.11409975943E+02  0.92101226926E+02  0.13226630622E+04  0.13517366843E+04  0.26294802523E+03 0.  0.
         25    1    4    4    0    0 -0.17397077045E+02  0.80619805393E+02  0.68995981694E+03  0.70604126537E+03  0.12509000000E+03 0.  0.
         25    1    4    4    0    0  0.28807052988E+02  0.11481421532E+02  0.63270324529E+03  0.64569541895E+03  0.12509000000E+03 0.  0.
         25    1    3    3    0    0 -0.11409975943E+02 -0.92101226926E+02  0.41159739507E+03  0.44008265960E+03  0.12509000000E+03 0.  0.
<mgrwt>
<rscale>  2 0.45050774E+03</rscale>
<asrwt>0</asrwt>
<pdfrwt beam="1">  1       21 0.25927050E+00 0.45050774E+03</pdfrwt>
<pdfrwt beam="2">  1       21 0.42322723E-02 0.45050774E+03</pdfrwt>
<totfact> 0.18038114E+04</totfact>
</mgrwt>
</event>
<event>
 6    0  0.4725730E-002  0.4571402E+03  0.7546771E-02  0.1025614E+00
         21   -1    0    0  502  501  0.00000000000E+00  0.00000000000E+00  0.11037867438E+03  0.11037867438E+03  0.00000000000E+00 0.  1.
         21   -1    0    0  501  502 -0.00000000000E+00 -0.00000000000E+00 -0.47331880226E+03  0.47331880226E+03  0.00000000000E+00 0.  1.
      99926    2    1    2    0    0 -0.14210854715E-13 -0.71054273576E-14 -0.36294012788E+03  0.58369747664E+03  0.45714024960E+03 0.  0.
         25    1    3    3    0    0  0.10058506056E+03  0.13970788589E+02 -0.12689311948E+03  0.20509000271E+03  0.12509000000E+03 0.  0.
         25    1    3    3    0    0 -0.10203074298E+03 -0.44025689197E+02 -0.13643143271E+03  0.21589251435E+03  0.12509000000E+03 0.  0.
         25    1    3    3    0    0  0.14456824145E+01  0.30054900608E+02 -0.99615575688E+02  0.16271495957E+03  0.12509000000E+03 0.  0.
<mgrwt>
<rscale>  2 0.45714025E+03</rscale>
<asrwt>0</asrwt>
<pdfrwt beam="1">  1       21 0.16232158E-01 0.45714025E+03</pdfrwt>
<pdfrwt beam="2">  1       21 0.69605706E-01 0.45714025E+03</pdfrwt>
<totfact> 0.58693781E+04</totfact>
</mgrwt>
</event>
<event>
 7    0  0.4725730E-002  0.4293431E+03  0.7546771E-02  0.1034068E+00
         21   -1    0    0  502  501  0.00000000000E+00  0.00000000000E+00  0.63857594749E+02  0.63857594749E+02  0.00000000000E+00 0.  1.
         21   -1    0    0  501  502 -0.00000000000E+00 -0.00000000000E+00 -0.72166643465E+03  0.72166643465E+03  0.00000000000E+00 0.  1.
      99926    2    1    2    0    0  0.00000000000E+00  0.00000000000E+00 -0.65780883990E+03  0.78552402940E+03  0.42934313889E+03 0.  0.
      99925    2    3    3    0    0 -0.83724176142E+02  0.14519586723E+02 -0.45761419786E+03  0.53463369704E+03  0.26306250181E+03 0.  0.
         25    1    3    3    0    0  0.83724176142E+02 -0.14519586723E+02 -0.20019464204E+03  0.25089033236E+03  0.12509000000E+03 0.  0.
         25    1    4    4    0    0 -0.25363576835E+02 -0.29694643234E+02 -0.20194075392E+03  0.24073358523E+03  0.12509000000E+03 0.  0.
         25    1    4    4    0    0 -0.58360599307E+02  0.44214229957E+02 -0.25567344395E+03  0.29390011181E+03  0.12509000000E+03 0.  0.
<mgrwt>
<rscale>  2 0.42934314E+03</rscale>
<asrwt>0</asrwt>
<pdfrwt beam="1">  1       21 0.93908221E-02 0.42934314E+03</pdfrwt>
<pdfrwt beam="2">  1       21 0.10612742E+00 0.42934314E+03</pdfrwt>
<totfact> 0.59599145E+04</totfact>
</mgrwt>
</event>
<event>
 7    0  0.4725730E-002  0.4533960E+03  0.7546771E-02  0.1026714E+00
         21   -1    0    0  502  501  0.00000000000E+00  0.00000000000E+00  0.26547197881E+03  0.26547197881E+03  0.00000000000E+00 0.  1.
         21   -1    0    0  501  502 -0.00000000000E+00 -0.00000000000E+00 -0.19358722735E+03  0.19358722735E+03  0.00000000000E+00 0.  1.
      99926    2    1    2    0    0  0.35527136788E-14  0.00000000000E+00  0.71884751460E+02  0.45905920615E+03  0.45339600490E+03 0.  0.
      99925    2    3    3    0    0 -0.17074886438E+02 -0.42803489664E+02  0.14866497782E+03  0.30522032377E+03  0.26255376580E+03 0.  0.
         25    1    4    4    0    0 -0.21325835189E+02 -0.59419346655E+02  0.83938227946E+02  0.16333580200E+03  0.12509000000E+03 0.  0.
         25    1    3    3    0    0  0.17074886438E+02  0.42803489664E+02 -0.76780226357E+02  0.15383888239E+03  0.12509000000E+03 0.  0.
         25    1    4    4    0    0  0.42509487515E+01  0.16615856991E+02  0.64726749871E+02  0.14188452177E+03  0.12509000000E+03 0.  0.
<mgrwt>
<rscale>  2 0.45339600E+03</rscale>
<asrwt>0</asrwt>
<pdfrwt beam="1">  1       21 0.39039997E-01 0.45339600E+03</pdfrwt>
<pdfrwt beam="2">  1       21 0.28468710E-01 0.45339600E+03</pdfrwt>
<totfact> 0.69129174E+04</totfact>
</mgrwt>
</event>
<event>
 7    0  0.4725730E-002  0.4568920E+03  0.7546771E-02  0.1025687E+00
         21   -1    0    0  502  501  0.00000000000E+00  0.00000000000E+00  0.47383862788E+03  0.47383862788E+03  0.00000000000E+00 0.  1.
         21   -1    0    0  501  502 -0.00000000000E+00 -0.00000000000E+00 -0.11013785070E+03  0.11013785070E+03  0.00000000000E+00 0.  1.
      99926    2    1    2    0    0  0.00000000000E+00 -0.13322676296E-14  0.36370077718E+03  0.58397647858E+03  0.45689196996E+03 0.  0.
      99925    2    3    3    0    0  0.11205883180E+03  0.39212759515E+01  0.19439320931E+03  0.34547046434E+03  0.26265674123E+03 0.  0.
         25    1    4    4    0    0  0.34425914377E+02 -0.32788049456E+02  0.93970113953E+02  0.16351785891E+03  0.12509000000E+03 0.  0.
         25    1    4    4    0    0  0.77632917426E+02  0.36709325408E+02  0.10042309535E+03  0.18195260542E+03  0.12509000000E+03 0.  0.
         25    1    3    3    0    0 -0.11205883180E+03 -0.39212759515E+01  0.16930756788E+03  0.23850601424E+03  0.12509000000E+03 0.  0.
<mgrwt>
<rscale>  2 0.45689197E+03</rscale>
<asrwt>0</asrwt>
<pdfrwt beam="1">  1       21 0.69682150E-01 0.45689197E+03</pdfrwt>
<pdfrwt beam="2">  1       21 0.16196743E-01 0.45689197E+03</pdfrwt>
<totfact> 0.58791337E+04</totfact>
</mgrwt>
</event>
<event>
 7    0  0.4725730E-002  0.4384739E+03  0.7546771E-02  0.1031216E+00
         21   -1    0    0  502  501  0.00000000000E+00  0.00000000000E+00  0.13085205653E+04  0.13085205653E+04  0.00000000000E+00 0.  1.
         21   -1    0    0  501  502 -0.00000000000E+00 -0.00000000000E+00 -0.36732202605E+02  0.36732202605E+02  0.00000000000E+00 0.  1.
      99926    2    1    2    0    0  0.00000000000E+00  0.71054273576E-14  0.12717883627E+04  0.13452527679E+04  0.43847391036E+03 0.  0.
      99925    2    3    3    0    0 -0.82228048323E+02  0.48956492942E+02  0.76819602873E+03  0.81760616547E+03  0.26305230112E+03 0.  0.
         25    1    4    4    0    0 -0.78118575781E+02  0.41365464716E+02  0.38196488359E+03  0.41153164392E+03  0.12509000000E+03 0.  0.
         25    1    3    3    0    0  0.82228048323E+02 -0.48956492942E+02  0.50359233396E+03  0.52764660243E+03  0.12509000000E+03 0.  0.
         25    1    4    4    0    0 -0.41094725421E+01  0.75910282260E+01  0.38623114514E+03  0.40607452155E+03  0.12509000000E+03 0.  0.
<mgrwt>
<rscale>  2 0.43847391E+03</rscale>
<asrwt>0</asrwt>
<pdfrwt beam="1">  1       21 0.19242946E+00 0.43847391E+03</pdfrwt>
<pdfrwt beam="2">  1       21 0.54017954E-02 0.43847391E+03</pdfrwt>
<totfact> 0.31710425E+04</totfact>
</mgrwt>
</event>
<event>
 7    0  0.4725730E-002  0.4662089E+03  0.7546771E-02  0.1022996E+00
         21   -1    0    0  502  501  0.00000000000E+00  0.00000000000E+00  0.14949432272E+03  0.14949432272E+03  0.00000000000E+00 0. -1.
         21   -1    0    0  501  502 -0.00000000000E+00 -0.00000000000E+00 -0.36347660337E+03  0.36347660337E+03  0.00000000000E+00 0. -1.
      99926    2    1    2    0    0  0.00000000000E+00 -0.35527136788E-14 -0.21398228064E+03  0.51297092609E+03  0.46620891732E+03 0.  0.
      99925    2    3    3    0    0  0.12033239449E+03  0.17503570489E+02 -0.15657359519E+03  0.32931492861E+03  0.26295773682E+03 0.  0.
         25    1    3    3    0    0 -0.12033239449E+03 -0.17503570489E+02 -0.57408685452E+02  0.18365599748E+03  0.12509000000E+03 0.  0.
         25    1    4    4    0    0  0.25012222756E+02  0.18878409060E+02 -0.96055469149E+02  0.16079852882E+03  0.12509000000E+03 0.  0.
         25    1    4    4    0    0  0.95320171737E+02 -0.13748385713E+01 -0.60518126043E+02  0.16851639980E+03  0.12509000000E+03 0.  0.
<mgrwt>
<rscale>  2 0.46620892E+03</rscale>
<asrwt>0</asrwt>
<pdfrwt beam="1">  1       21 0.21984460E-01 0.46620892E+03</pdfrwt>
<pdfrwt beam="2">  1       21 0.53452441E-01 0.46620892E+03</pdfrwt>
<totfact> 0.58947294E+04</totfact>
</mgrwt>
</event>
<event>
 7    0  0.4725730E-002  0.3925965E+03  0.7546771E-02  0.1046374E+00
         21   -1    0    0  502  501  0.00000000000E+00  0.00000000000E+00  0.14402480667E+03  0.14402480667E+03  0.00000000000E+00 0.  1.
         21   -1    0    0  501  502 -0.00000000000E+00 -0.00000000000E+00 -0.26754417739E+03  0.26754417739E+03  0.00000000000E+00 0.  1.
      99926    2    1    2    0    0  0.00000000000E+00 -0.88817841970E-15 -0.12351937073E+03  0.41156898406E+03  0.39259647693E+03 0.  0.
      99925    2    3    3    0    0 -0.15841657143E+02  0.56651844650E+01 -0.60395914636E+02  0.27044800325E+03  0.26308060275E+03 0.  0.
         25    1    4    4    0    0 -0.39214386611E+02  0.28335383966E+02 -0.36517888259E+02  0.13900261280E+03  0.12509000000E+03 0.  0.
         25    1    3    3    0    0  0.15841657143E+02 -0.56651844650E+01 -0.63123456089E+02  0.14112098081E+03  0.12509000000E+03 0.  0.
         25    1    4    4    0    0  0.23372729468E+02 -0.22670199501E+02 -0.23878026376E+02  0.13144539045E+03  0.12509000000E+03 0.  0.
<mgrwt>
<rscale>  2 0.39259648E+03</rscale>
<asrwt>0</asrwt>
<pdfrwt beam="1">  1       21 0.21180119E-01 0.39259648E+03</pdfrwt>
<pdfrwt beam="2">  1       21 0.39344732E-01 0.39259648E+03</pdfrwt>
<totfact> 0.12224533E+05</totfact>
</mgrwt>
</event>
<event>
 7    0  0.4725730E-002  0.4437574E+03  0.7546771E-02  0.1029600E+00
         21   -1    0    0  502  501  0.00000000000E+00  0.00000000000E+00  0.23151343768E+03  0.23151343768E+03  0.00000000000E+00 0. -1.
         21   -1    0    0  501  502 -0.00000000000E+00 -0.00000000000E+00 -0.21264491487E+03  0.21264491487E+03  0.00000000000E+00 0. -1.
      99926    2    1    2    0    0  0.00000000000E+00  0.00000000000E+00  0.18868522810E+02  0.44415835254E+03  0.44375738978E+03 0.  0.
      99925    2    3    3    0    0 -0.78408815761E+02  0.35328594474E+02  0.67366663435E+02  0.28479828941E+03  0.26301282542E+03 0.  0.
         25    1    4    4    0    0 -0.18764745678E+02 -0.13863320158E+02  0.12567829327E+02  0.12786620257E+03  0.12509000000E+03 0.  0.
         25    1    4    4    0    0 -0.59644070083E+02  0.49191914632E+02  0.54798834108E+02  0.15693208684E+03  0.12509000000E+03 0.  0.
         25    1    3    3    0    0  0.78408815761E+02 -0.35328594474E+02 -0.48498140625E+02  0.15936006313E+03  0.12509000000E+03 0.  0.
<mgrwt>
<rscale>  2 0.44375739E+03</rscale>
<asrwt>0</asrwt>
<pdfrwt beam="1">  1       21 0.34046094E-01 0.44375739E+03</pdfrwt>
<pdfrwt beam="2">  1       21 0.31271311E-01 0.44375739E+03</pdfrwt>
<totfact> 0.75933803E+04</totfact>
</mgrwt>
</event>
<event>
 7    0  0.4725730E-002  0.4268360E+03  0.7546771E-02  0.1034864E+00
         21   -1    0    0  502  501  0.00000000000E+00  0.00000000000E+00  0.11456598240E+03  0.11456598240E+03  0.00000000000E+00 0. -1.
         21   -1    0    0  501  502 -0.00000000000E+00 -0.00000000000E+00 -0.39756332960E+03  0.39756332960E+03  0.00000000000E+00 0. -1.
      99926    2    1    2    0    0  0.00000000000E+00  0.00000000000E+00 -0.28299734720E+03  0.51212931200E+03  0.42683595642E+03 0.  0.
      99925    2    3    3    0    0 -0.63521182638E+02  0.36268582406E+02 -0.13327158005E+03  0.30376505364E+03  0.26298582291E+03 0.  0.
         25    1    3    3    0    0  0.63521182638E+02 -0.36268582406E+02 -0.14972576715E+03  0.20836425836E+03  0.12509000000E+03 0.  0.
         25    1    4    4    0    0 -0.46972407062E+02  0.44045899155E+02 -0.10129963251E+03  0.17336542880E+03  0.12509000000E+03 0.  0.
         25    1    4    4    0    0 -0.16548775576E+02 -0.77773167496E+01 -0.31971947542E+02  0.13039962484E+03  0.12509000000E+03 0.  0.
<mgrwt>
<rscale>  2 0.42683596E+03</rscale>
<asrwt>0</asrwt>
<pdfrwt beam="1">  1       21 0.16847938E-01 0.42683596E+03</pdfrwt>
<pdfrwt beam="2">  1       21 0.58465196E-01 0.42683596E+03</pdfrwt>
<totfact> 0.81064261E+04</totfact>
</mgrwt>
</event>
<event>
 7    0  0.4725730E-002  0.4622854E+03  0.7546771E-02  0.1024120E+00
         21   -1    0    0  502  501  0.00000000000E+00  0.00000000000E+00  0.23439914498E+03  0.23439914498E+03  0.00000000000E+00 0.  1.
         21   -1    0    0  501  502 -0.00000000000E+00 -0.00000000000E+00 -0.22793152667E+03  0.22793152667E+03  0.00000000000E+00 0.  1.
      99926    2    1    2    0    0 -0.71054273576E-14  0.00000000000E+00  0.64676183183E+01  0.46233067165E+03  0.46228543116E+03 0.  0.
      99925    2    3    3    0    0 -0.57700533890E+02 -0.10450162104E+03  0.16610553806E+02  0.28912464505E+03  0.26280641062E+03 0.  0.
         25    1    4    4    0    0 -0.47764990251E+02 -0.27622758098E+02 -0.18136250613E+02  0.13791643392E+03  0.12509000000E+03 0.  0.
         25    1    3    3    0    0  0.57700533890E+02  0.10450162104E+03 -0.10142935487E+02  0.17320602660E+03  0.12509000000E+03 0.  0.
         25    1    4    4    0    0 -0.99355436395E+01 -0.76878862945E+02  0.34746804418E+02  0.15120821113E+03  0.12509000000E+03 0.  0.
<mgrwt>
<rscale>  2 0.46228543E+03</rscale>
<asrwt>0</asrwt>
<pdfrwt beam="1">  1       21 0.34470462E-01 0.46228543E+03</pdfrwt>
<pdfrwt beam="2">  1       21 0.33519342E-01 0.46228543E+03</pdfrwt>
<totfact> 0.64198254E+04</totfact>
</mgrwt>
</event>
<event>
 7    0  0.4725730E-002  0.4499294E+03  0.7546771E-02  0.1027743E+00
         21   -1    0    0  502  501  0.00000000000E+00  0.00000000000E+00  0.77440570316E+02  0.77440570316E+02  0.00000000000E+00 0.  1.
         21   -1    0    0  501  502 -0.00000000000E+00 -0.00000000000E+00 -0.65352208965E+03  0.65352208965E+03  0.00000000000E+00 0.  1.
      99926    2    1    2    0    0  0.00000000000E+00  0.00000000000E+00 -0.57608151933E+03  0.73096265997E+03  0.44992943152E+03 0.  0.
      99925    2    3    3    0    0  0.74291707125E+02 -0.78056711699E+02 -0.38075179479E+03  0.47520238671E+03  0.26312216004E+03 0.  0.
         25    1    4    4    0    0  0.50284126290E+02 -0.35705848878E+02 -0.12937948981E+03  0.19023659345E+03  0.12509000000E+03 0.  0.
         25    1    3    3    0    0 -0.74291707125E+02  0.78056711699E+02 -0.19532972454E+03  0.25576027326E+03  0.12509000000E+03 0.  0.
         25    1    4    4    0    0  0.24007580835E+02 -0.42350862821E+02 -0.25137230498E+03  0.28496579326E+03  0.12509000000E+03 0.  0.
<mgrwt>
<rscale>  2 0.44992943E+03</rscale>
<asrwt>0</asrwt>
<pdfrwt beam="1">  1       21 0.11388319E-01 0.44992943E+03</pdfrwt>
<pdfrwt beam="2">  1       21 0.96106188E-01 0.44992943E+03</pdfrwt>
<totfact> 0.53349451E+04</totfact>
</mgrwt>
</event>
<event>
 7    0  0.4725730E-002  0.4541638E+03  0.7546771E-02  0.1026488E+00
         21   -1    0    0  502  501  0.00000000000E+00  0.00000000000E+00  0.88232586436E+02  0.88232586436E+02  0.00000000000E+00 0.  1.
         21   -1    0    0  501  502 -0.00000000000E+00 -0.00000000000E+00 -0.58443475153E+03  0.58443475153E+03  0.00000000000E+00 0.  1.
      99926    2    1    2    0    0  0.00000000000E+00  0.00000000000E+00 -0.49620216510E+03  0.67266733797E+03  0.45416380187E+03 0.  0.
      99925    2    3    3    0    0 -0.52094108351E+02  0.52335434910E+02 -0.18811254864E+03  0.33205096470E+03  0.26347432196E+03 0.  0.
         25    1    4    4    0    0  0.80323621817E+01  0.47893603037E+02 -0.81653433684E+02  0.15707675635E+03  0.12509000000E+03 0.  0.
         25    1    3    3    0    0  0.52094108351E+02 -0.52335434910E+02 -0.30808961645E+03  0.34061637327E+03  0.12509000000E+03 0.  0.
         25    1    4    4    0    0 -0.60126470532E+02  0.44418318722E+01 -0.10645911496E+03  0.17497420835E+03  0.12509000000E+03 0.  0.
<mgrwt>
<rscale>  2 0.45416380E+03</rscale>
<asrwt>0</asrwt>
<pdfrwt beam="1">  1       21 0.12975381E-01 0.45416380E+03</pdfrwt>
<pdfrwt beam="2">  1       21 0.85946286E-01 0.45416380E+03</pdfrwt>
<totfact> 0.54772580E+04</totfact>
</mgrwt>
</event>
<event>
 7    0  0.4725730E-002  0.4546542E+03  0.7546771E-02  0.1026343E+00
         21   -1    0    0  502  501  0.00000000000E+00  0.00000000000E+00  0.44465158041E+02  0.44465158041E+02  0.00000000000E+00 0. -1.
         21   -1    0    0  501  502 -0.00000000000E+00 -0.00000000000E+00 -0.11622046370E+04  0.11622046370E+04  0.00000000000E+00 0. -1.
      99926    2    1    2    0    0  0.00000000000E+00  0.00000000000E+00 -0.11177394789E+04  0.12066697950E+04  0.45465421084E+03 0.  0.
      99925    2    3    3    0    0  0.63465655907E+02  0.81892852944E+02 -0.82248672085E+03  0.86968904171E+03  0.26294542104E+03 0.  0.
         25    1    3    3    0    0 -0.63465655907E+02 -0.81892852944E+02 -0.29525275806E+03  0.33698075329E+03  0.12509000000E+03 0.  0.
         25    1    4    4    0    0  0.29846325918E+02  0.82660588515E+02 -0.46203401995E+03  0.48666879883E+03  0.12509000000E+03 0.  0.
         25    1    4    4    0    0  0.33619329989E+02 -0.76773557065E+00 -0.36045270090E+03  0.38302024288E+03  0.12509000000E+03 0.  0.
<mgrwt>
<rscale>  2 0.45465421E+03</rscale>
<asrwt>0</asrwt>
<pdfrwt beam="1">  1       21 0.65389943E-02 0.45465421E+03</pdfrwt>
<pdfrwt beam="2">  1       21 0.17091243E+00 0.45465421E+03</pdfrwt>
<totfact> 0.32031459E+04</totfact>
</mgrwt>
</event>
<event>
 7    0  0.4725730E-002  0.4380963E+03  0.7546771E-02  0.1031332E+00
         21   -1    0    0  502  501  0.00000000000E+00  0.00000000000E+00  0.86855663926E+03  0.86855663926E+03  0.00000000000E+00 0.  1.
         21   -1    0    0  501  502 -0.00000000000E+00 -0.00000000000E+00 -0.55243490482E+02  0.55243490482E+02  0.00000000000E+00 0.  1.
      99926    2    1    2    0    0  0.00000000000E+00  0.00000000000E+00  0.81331314878E+03  0.92380012974E+03  0.43809633842E+03 0.  0.
      99925    2    3    3    0    0 -0.34270148625E+02  0.14112695018E+02  0.33236186850E+03  0.42546765704E+03  0.26302985440E+03 0.  0.
         25    1    3    3    0    0  0.34270148625E+02 -0.14112695018E+02  0.48095128028E+03  0.49833247271E+03  0.12509000000E+03 0.  0.
         25    1    4    4    0    0 -0.31478037969E+01  0.26240249586E+02  0.11242293614E+03  0.17024947588E+03  0.12509000000E+03 0.  0.
         25    1    4    4    0    0 -0.31122344828E+02 -0.12127554568E+02  0.21993893236E+03  0.25521818116E+03  0.12509000000E+03 0.  0.
<mgrwt>
<rscale>  2 0.43809634E+03</rscale>
<asrwt>0</asrwt>
<pdfrwt beam="1">  1       21 0.12772891E+00 0.43809634E+03</pdfrwt>
<pdfrwt beam="2">  1       21 0.81240432E-02 0.43809634E+03</pdfrwt>
<totfact> 0.48296873E+04</totfact>
</mgrwt>
</event>
<event>
 7    0  0.4725730E-002  0.4563240E+03  0.7546771E-02  0.1025853E+00
         21   -1    0    0  502  501  0.00000000000E+00  0.00000000000E+00  0.13357127651E+04  0.13357127651E+04  0.00000000000E+00 0.  1.
         21   -1    0    0  501  502 -0.00000000000E+00 -0.00000000000E+00 -0.38973869670E+02  0.38973869670E+02  0.00000000000E+00 0.  1.
      99926    2    1    2    0    0  0.71054273576E-14  0.00000000000E+00  0.12967388954E+04  0.13746866347E+04  0.45632398676E+03 0.  0.
      99925    2    3    3    0    0  0.62600862342E+02  0.79318114679E+02  0.65328164449E+03  0.71144084837E+03  0.26298468097E+03 0.  0.
         25    1    3    3    0    0 -0.62600862342E+02 -0.79318114679E+02  0.64345725092E+03  0.66324578638E+03  0.12509000000E+03 0.  0.
         25    1    4    4    0    0  0.69943335554E+01  0.69683555292E+02  0.36563954843E+03  0.39273974341E+03  0.12509000000E+03 0.  0.
         25    1    4    4    0    0  0.55606528786E+02  0.96345593877E+01  0.28764209606E+03  0.31870110496E+03  0.12509000000E+03 0.  0.
<mgrwt>
<rscale>  2 0.45632399E+03</rscale>
<asrwt>0</asrwt>
<pdfrwt beam="1">  1       21 0.19642832E+00 0.45632399E+03</pdfrwt>
<pdfrwt beam="2">  1       21 0.57314523E-02 0.45632399E+03</pdfrwt>
<totfact> 0.26738247E+04</totfact>
</mgrwt>
</event>
<event>
 7    0  0.4725730E-002  0.4497559E+03  0.7546771E-02  0.1027795E+00
         21   -1    0    0  502  501  0.00000000000E+00  0.00000000000E+00  0.13530030771E+03  0.13530030771E+03  0.00000000000E+00 0. -1.
         21   -1    0    0  501  502 -0.00000000000E+00 -0.00000000000E+00 -0.37376187779E+03  0.37376187779E+03  0.00000000000E+00 0. -1.
      99926    2    1    2    0    0  0.00000000000E+00  0.14210854715E-13 -0.23846157008E+03  0.50906218550E+03  0.44975592080E+03 0.  0.
      99925    2    3    3    0    0 -0.56198232280E+02 -0.90099594671E+02 -0.12722203545E+03  0.31082515456E+03  0.26296511580E+03 0.  0.
         25    1    3    3    0    0  0.56198232280E+02  0.90099594671E+02 -0.11123953463E+03  0.19823703094E+03  0.12509000000E+03 0.  0.
         25    1    4    4    0    0 -0.51776981888E+02 -0.81336214154E+02 -0.76466559267E+02  0.17547386806E+03  0.12509000000E+03 0.  0.
         25    1    4    4    0    0 -0.44212503926E+01 -0.87633805168E+01 -0.50755476185E+02  0.13535128650E+03  0.12509000000E+03 0.  0.
<mgrwt>
<rscale>  2 0.44975592E+03</rscale>
<asrwt>0</asrwt>
<pdfrwt beam="1">  1       21 0.19897105E-01 0.44975592E+03</pdfrwt>
<pdfrwt beam="2">  1       21 0.54964981E-01 0.44975592E+03</pdfrwt>
<totfact> 0.67400138E+04</totfact>
</mgrwt>
</event>
<event>
 7    0  0.4725730E-002  0.4020069E+03  0.7546771E-02  0.1043087E+00
         21   -1    0    0  502  501  0.00000000000E+00  0.00000000000E+00  0.17244290324E+03  0.17244290324E+03  0.00000000000E+00 0. -1.
         21   -1    0    0  501  502 -0.00000000000E+00 -0.00000000000E+00 -0.23429432348E+03  0.23429432348E+03  0.00000000000E+00 0. -1.
      99926    2    1    2    0    0  0.00000000000E+00  0.00000000000E+00 -0.61851420244E+02  0.40673722672E+03  0.40200693205E+03 0.  0.
      99925    2    3    3    0    0 -0.40616715673E+02 -0.80754970337E+01 -0.68299615901E+02  0.27481293566E+03  0.26294938835E+03 0.  0.
         25    1    4    4    0    0  0.44959316811E+01  0.15394132363E+02 -0.59637764769E+02  0.13950399206E+03  0.12509000000E+03 0.  0.
         25    1    3    3    0    0  0.40616715673E+02  0.80754970337E+01  0.64481956569E+01  0.13192429106E+03  0.12509000000E+03 0.  0.
         25    1    4    4    0    0 -0.45112647354E+02 -0.23469629397E+02 -0.86618511311E+01  0.13530894361E+03  0.12509000000E+03 0.  0.
<mgrwt>
<rscale>  2 0.40200693E+03</rscale>
<asrwt>0</asrwt>
<pdfrwt beam="1">  1       21 0.25359251E-01 0.40200693E+03</pdfrwt>
<pdfrwt beam="2">  1       21 0.34455047E-01 0.40200693E+03</pdfrwt>
<totfact> 0.11294357E+05</totfact>
</mgrwt>
</event>
<event>
 7    0  0.4725730E-002  0.4540632E+03  0.7546771E-02  0.1026517E+00
         21   -1    0    0  502  501  0.00000000000E+00  0.00000000000E+00  0.69347524937E+03  0.69347524937E+03  0.00000000000E+00 0. -1.
         21   -1    0    0  501  502 -0.00000000000E+00 -0.00000000000E+00 -0.74326150943E+02  0.74326150943E+02  0.00000000000E+00 0. -1.
      99926    2    1    2    0    0  0.00000000000E+00  0.00000000000E+00  0.61914909842E+03  0.76780140031E+03  0.45406319410E+03 0.  0.
      99925    2    3    3    0    0  0.93532565216E+02  0.41672879889E+02  0.46832554934E+03  0.54671268343E+03  0.26283258623E+03 0.  0.
         25    1    3    3    0    0 -0.93532565216E+02 -0.41672879889E+02  0.15082354909E+03  0.22108871688E+03  0.12509000000E+03 0.  0.
         25    1    4    4    0    0  0.37022164457E+02  0.25052334479E+02  0.15434720691E+03  0.20363896608E+03  0.12509000000E+03 0.  0.
         25    1    4    4    0    0  0.56510400758E+02  0.16620545410E+02  0.31397834242E+03  0.34307371735E+03  0.12509000000E+03 0.  0.
<mgrwt>
<rscale>  2 0.45406319E+03</rscale>
<asrwt>0</asrwt>
<pdfrwt beam="1">  1       21 0.10198165E+00 0.45406319E+03</pdfrwt>
<pdfrwt beam="2">  1       21 0.10930317E-01 0.45406319E+03</pdfrwt>
<totfact> 0.49726236E+04</totfact>
</mgrwt>
</event>
<event>
 7    0  0.4725730E-002  0.4548455E+03  0.7546771E-02  0.1026287E+00
         21   -1    0    0  502  501  0.00000000000E+00  0.00000000000E+00  0.21054323235E+03  0.21054323235E+03  0.00000000000E+00 0. -1.
         21   -1    0    0  501  502 -0.00000000000E+00 -0.00000000000E+00 -0.24565550023E+03  0.24565550023E+03  0.00000000000E+00 0. -1.
      99926    2    1    2    0    0  0.00000000000E+00  0.00000000000E+00 -0.35112267884E+02  0.45619873258E+03  0.45484548173E+03 0.  0.
      99925    2    3    3    0    0 -0.30045010190E+02 -0.24866075446E+02  0.83988571338E+02  0.27912941748E+03  0.26332133838E+03 0.  0.
         25    1    3    3    0    0  0.30045010190E+02  0.24866075446E+02 -0.11910083922E+03  0.17706931510E+03  0.12509000000E+03 0.  0.
         25    1    4    4    0    0  0.23903275665E+02 -0.17427856526E+02  0.54113228457E+02  0.13946629114E+03  0.12509000000E+03 0.  0.
         25    1    4    4    0    0 -0.53948285855E+02 -0.74382189207E+01  0.29875342881E+02  0.13966312634E+03  0.12509000000E+03 0.  0.
<mgrwt>
<rscale>  2 0.45484548E+03</rscale>
<asrwt>0</asrwt>
<pdfrwt beam="1">  1       21 0.30962240E-01 0.45484548E+03</pdfrwt>
<pdfrwt beam="2">  1       21 0.36125809E-01 0.45484548E+03</pdfrwt>
<totfact> 0.68542562E+04</totfact>
</mgrwt>
</event>
<event>
 7    0  0.4725730E-002  0.4557542E+03  0.7546771E-02  0.1026020E+00
         21   -1    0    0  502  501  0.00000000000E+00  0.00000000000E+00  0.14100291617E+03  0.14100291617E+03  0.00000000000E+00 0. -1.
         21   -1    0    0  501  502 -0.00000000000E+00 -0.00000000000E+00 -0.36827586693E+03  0.36827586693E+03  0.00000000000E+00 0. -1.
      99926    2    1    2    0    0 -0.35527136788E-14  0.00000000000E+00 -0.22727295076E+03  0.50927878310E+03  0.45575419337E+03 0.  0.
      99925    2    3    3    0    0 -0.26322650782E+02  0.38359324566E+02 -0.25924861761E+03  0.37204077417E+03  0.26275496606E+03 0.  0.
         25    1    3    3    0    0  0.26322650782E+02 -0.38359324566E+02  0.31975666846E+02  0.13723800893E+03  0.12509000000E+03 0.  0.
         25    1    4    4    0    0  0.36036639004E+01 -0.14919587173E+02 -0.10296973221E+03  0.16274475207E+03  0.12509000000E+03 0.  0.
         25    1    4    4    0    0 -0.29926314682E+02  0.53278911738E+02 -0.15627888539E+03  0.20929602210E+03  0.12509000000E+03 0.  0.
<mgrwt>
<rscale>  2 0.45575419E+03</rscale>
<asrwt>0</asrwt>
<pdfrwt beam="1">  1       21 0.20735724E-01 0.45575419E+03</pdfrwt>
<pdfrwt beam="2">  1       21 0.54158214E-01 0.45575419E+03</pdfrwt>
<totfact> 0.64238220E+04</totfact>
</mgrwt>
</event>
<event>
 7    0  0.4725730E-002  0.4568317E+03  0.7546771E-02  0.1025704E+00
         21   -1    0    0  502  501  0.00000000000E+00  0.00000000000E+00  0.24684358800E+03  0.24684358800E+03  0.00000000000E+00 0. -1.
         21   -1    0    0  501  502 -0.00000000000E+00 -0.00000000000E+00 -0.21136380597E+03  0.21136380597E+03  0.00000000000E+00 0. -1.
      99926    2    1    2    0    0  0.00000000000E+00 -0.71054273576E-14  0.35479782036E+02  0.45820739397E+03  0.45683169872E+03 0.  0.
      99925    2    3    3    0    0  0.97368246435E+02 -0.57764461151E+02  0.25609013713E+01  0.28631071224E+03  0.26296379474E+03 0.  0.
         25    1    4    4    0    0  0.10848236155E+02 -0.43635368091E+02  0.10605383963E+02  0.13334808527E+03  0.12509000000E+03 0.  0.
         25    1    3    3    0    0 -0.97368246435E+02  0.57764461151E+02  0.32918880665E+02  0.17189668173E+03  0.12509000000E+03 0.  0.
         25    1    4    4    0    0  0.86520010281E+02 -0.14129093060E+02 -0.80444825917E+01  0.15296262697E+03  0.12509000000E+03 0.  0.
<mgrwt>
<rscale>  2 0.45683170E+03</rscale>
<asrwt>0</asrwt>
<pdfrwt beam="1">  1       21 0.36300528E-01 0.45683170E+03</pdfrwt>
<pdfrwt beam="2">  1       21 0.31082913E-01 0.45683170E+03</pdfrwt>
<totfact> 0.67322211E+04</totfact>
</mgrwt>
</event>
<event>
 7    0  0.4725730E-002  0.4565754E+03  0.7546771E-02  0.1025779E+00
         21   -1    0    0  502  501  0.00000000000E+00  0.00000000000E+00  0.11855549567E+03  0.11855549567E+03  0.00000000000E+00 0. -1.
         21   -1    0    0  501  502 -0.00000000000E+00 -0.00000000000E+00 -0.43958541984E+03  0.43958541984E+03  0.00000000000E+00 0. -1.
      99926    2    1    2    0    0  0.00000000000E+00  0.00000000000E+00 -0.32102992417E+03  0.55814091551E+03  0.45657537094E+03 0.  0.
      99925    2    3    3    0    0 -0.30526250603E+02  0.10946070513E+03 -0.18194571250E+03  0.33926783818E+03  0.26284011448E+03 0.  0.
         25    1    4    4    0    0 -0.14559129663E+02  0.48975308356E+02 -0.42205849640E+02  0.14156055570E+03  0.12509000000E+03 0.  0.
         25    1    3    3    0    0  0.30526250603E+02 -0.10946070513E+03 -0.13908421167E+03  0.21887307733E+03  0.12509000000E+03 0.  0.
         25    1    4    4    0    0 -0.15967120939E+02  0.60485396777E+02 -0.13973986286E+03  0.19770728249E+03  0.12509000000E+03 0.  0.
<mgrwt>
<rscale>  2 0.45657537E+03</rscale>
<asrwt>0</asrwt>
<pdfrwt beam="1">  1       21 0.17434632E-01 0.45657537E+03</pdfrwt>
<pdfrwt beam="2">  1       21 0.64644914E-01 0.45657537E+03</pdfrwt>
<totfact> 0.60573359E+04</totfact>
</mgrwt>
</event>
<event>
 7    0  0.4725730E-002  0.4585786E+03  0.7546771E-02  0.1025194E+00
         21   -1    0    0  502  501  0.00000000000E+00  0.00000000000E+00  0.51815124142E+03  0.51815124142E+03  0.00000000000E+00 0.  1.
         21   -1    0    0  501  502 -0.00000000000E+00 -0.00000000000E+00 -0.10146376698E+03  0.10146376698E+03  0.00000000000E+00 0.  1.
      99926    2    1    2    0    0  0.00000000000E+00  0.00000000000E+00  0.41668747444E+03  0.61961500840E+03  0.45857857263E+03 0.  0.
      99925    2    3    3    0    0  0.12171873935E+02 -0.99488310817E+02  0.18161138510E+03  0.33509022146E+03  0.26316664457E+03 0.  0.
         25    1    4    4    0    0  0.10863078678E+02 -0.90543620543E+02  0.11676549495E+03  0.19390163127E+03  0.12509000000E+03 0.  0.
         25    1    4    4    0    0  0.13087952573E+01 -0.89446902738E+01  0.64845890149E+02  0.14118859018E+03  0.12509000000E+03 0.  0.
         25    1    3    3    0    0 -0.12171873935E+02  0.99488310817E+02  0.23507608934E+03  0.28452478694E+03  0.12509000000E+03 0.  0.
<mgrwt>
<rscale>  2 0.45857857E+03</rscale>
<asrwt>0</asrwt>
<pdfrwt beam="1">  1       21 0.76198711E-01 0.45857857E+03</pdfrwt>
<pdfrwt beam="2">  1       21 0.14921142E-01 0.45857857E+03</pdfrwt>
<totfact> 0.55890618E+04</totfact>
</mgrwt>
</event>
<event>
 7    0  0.4725730E-002  0.4540123E+03  0.7546771E-02  0.1026532E+00
         21   -1    0    0  502  501  0.00000000000E+00  0.00000000000E+00  0.29774442251E+04  0.29774442251E+04  0.00000000000E+00 0. -1.
         21   -1    0    0  501  502 -0.00000000000E+00 -0.00000000000E+00 -0.17307391417E+02  0.17307391417E+02  0.00000000000E+00 0. -1.
      99926    2    1    2    0    0  0.00000000000E+00  0.17763568394E-14  0.29601368337E+04  0.29947516165E+04  0.45401230215E+03 0.  0.
      99925    2    3    3    0    0  0.10305207607E+03  0.10974395404E+02  0.15842158742E+04  0.16092747446E+04  0.26322062959E+03 0.  0.
         25    1    4    4    0    0  0.38227837421E+02 -0.14314645655E+02  0.56891340638E+03  0.58393171578E+03  0.12509000000E+03 0.  0.
         25    1    4    4    0    0  0.64824238651E+02  0.25289041059E+02  0.10153024678E+04  0.10253430288E+04  0.12509000000E+03 0.  0.
         25    1    3    3    0    0 -0.10305207607E+03 -0.10974395404E+02  0.13759209595E+04  0.13854768719E+04  0.12509000000E+03 0.  0.
<mgrwt>
<rscale>  2 0.45401230E+03</rscale>
<asrwt>0</asrwt>
<pdfrwt beam="1">  1       21 0.43785909E+00 0.45401230E+03</pdfrwt>
<pdfrwt beam="2">  1       21 0.25452067E-02 0.45401230E+03</pdfrwt>
<totfact> 0.33019503E+03</totfact>
</mgrwt>
</event>
<event>
 7    0  0.4725730E-002  0.4392505E+03  0.7546771E-02  0.1030977E+00
         21   -1    0    0  502  501  0.00000000000E+00  0.00000000000E+00  0.67552479361E+02  0.67552479361E+02  0.00000000000E+00 0. -1.
         21   -1    0    0  501  502 -0.00000000000E+00 -0.00000000000E+00 -0.71404102083E+03  0.71404102083E+03  0.00000000000E+00 0. -1.
      99926    2    1    2    0    0 -0.71054273576E-14  0.00000000000E+00 -0.64648854147E+03  0.78159350020E+03  0.43925045850E+03 0.  0.
      99925    2    3    3    0    0 -0.63229493638E+02  0.24178308647E+01 -0.28043449533E+03  0.38961532788E+03  0.26296916697E+03 0.  0.
         25    1    3    3    0    0  0.63229493638E+02 -0.24178308647E+01 -0.36605404615E+03  0.39197817232E+03  0.12509000000E+03 0.  0.
         25    1    4    4    0    0 -0.83005699488E+00 -0.26032195710E+02 -0.13610947699E+03  0.18668599849E+03  0.12509000000E+03 0.  0.
         25    1    4    4    0    0 -0.62399436644E+02  0.28450026575E+02 -0.14432501834E+03  0.20292932938E+03  0.12509000000E+03 0.  0.
<mgrwt>
<rscale>  2 0.43925046E+03</rscale>
<asrwt>0</asrwt>
<pdfrwt beam="1">  1       21 0.99341881E-02 0.43925046E+03</pdfrwt>
<pdfrwt beam="2">  1       21 0.10500603E+00 0.43925046E+03</pdfrwt>
<totfact> 0.55179787E+04</totfact>
</mgrwt>
</event>
<event>
 7    0  0.4725730E-002  0.4519904E+03  0.7546771E-02  0.1027130E+00
         21   -1    0    0  502  501  0.00000000000E+00  0.00000000000E+00  0.16333470847E+03  0.16333470847E+03  0.00000000000E+00 0.  1.
         21   -1    0    0  501  502 -0.00000000000E+00 -0.00000000000E+00 -0.31269431815E+03  0.31269431815E+03  0.00000000000E+00 0.  1.
      99926    2    1    2    0    0  0.00000000000E+00 -0.71054273576E-14 -0.14935960968E+03  0.47602902663E+03  0.45199042157E+03 0.  0.
      99925    2    3    3    0    0 -0.68697768294E+02 -0.43455931701E+02 -0.17307848711E+03  0.32497309455E+03  0.26276139008E+03 0.  0.
         25    1    4    4    0    0 -0.33506353552E+01 -0.27220654542E+02 -0.11278642629E+03  0.17064722924E+03  0.12509000000E+03 0.  0.
         25    1    4    4    0    0 -0.65347132939E+02 -0.16235277159E+02 -0.60292060817E+02  0.15432586532E+03  0.12509000000E+03 0.  0.
         25    1    3    3    0    0  0.68697768294E+02  0.43455931701E+02  0.23718877425E+02  0.15105593207E+03  0.12509000000E+03 0.  0.
<mgrwt>
<rscale>  2 0.45199042E+03</rscale>
<asrwt>0</asrwt>
<pdfrwt beam="1">  1       21 0.24019811E-01 0.45199042E+03</pdfrwt>
<pdfrwt beam="2">  1       21 0.45984458E-01 0.45199042E+03</pdfrwt>
<totfact> 0.68614680E+04</totfact>
</mgrwt>
</event>
<event>
 7    0  0.4725730E-002  0.5379986E+03  0.7546771E-02  0.1004311E+00
         21   -1    0    0  502  501  0.00000000000E+00  0.00000000000E+00  0.21245378901E+03  0.21245378901E+03  0.00000000000E+00 0.  1.
         21   -1    0    0  501  502 -0.00000000000E+00 -0.00000000000E+00 -0.34059465621E+03  0.34059465621E+03  0.00000000000E+00 0.  1.
      99926    2    1    2    0    0 -0.71054273576E-14  0.00000000000E+00 -0.12814086720E+03  0.55304844522E+03  0.53799860680E+03 0.  0.
      99925    2    3    3    0    0  0.41276233527E+02  0.14396754324E+03  0.26888013013E+02  0.30382596879E+03  0.26297694405E+03 0.  0.
         25    1    4    4    0    0 -0.19082678763E+02  0.70557265233E+02  0.22896318941E+02  0.14667728463E+03  0.12509000000E+03 0.  0.
         25    1    3    3    0    0 -0.41276233527E+02 -0.14396754324E+03 -0.15502888022E+03  0.24922247644E+03  0.12509000000E+03 0.  0.
         25    1    4    4    0    0  0.60358912290E+02  0.73410278008E+02  0.39916940720E+01  0.15714868415E+03  0.12509000000E+03 0.  0.
<mgrwt>
<rscale>  2 0.53799861E+03</rscale>
<asrwt>0</asrwt>
<pdfrwt beam="1">  1       21 0.31243204E-01 0.53799861E+03</pdfrwt>
<pdfrwt beam="2">  1       21 0.50087449E-01 0.53799861E+03</pdfrwt>
<totfact> 0.33528391E+04</totfact>
</mgrwt>
</event>
<event>
 7    0  0.4725730E-002  0.4524992E+03  0.7546771E-02  0.1026979E+00
         21   -1    0    0  502  501  0.00000000000E+00  0.00000000000E+00  0.40266767496E+02  0.40266767496E+02  0.00000000000E+00 0. -1.
         21   -1    0    0  501  502 -0.00000000000E+00 -0.00000000000E+00 -0.12712439505E+04  0.12712439505E+04  0.00000000000E+00 0. -1.
      99926    2    1    2    0    0  0.00000000000E+00  0.00000000000E+00 -0.12309771830E+04  0.13115107180E+04  0.45249921363E+03 0.  0.
      99925    2    3    3    0    0 -0.45820596549E+02 -0.94595929169E+02 -0.67553401217E+03  0.73253529450E+03  0.26308523183E+03 0.  0.
         25    1    3    3    0    0  0.45820596549E+02  0.94595929169E+02 -0.55544317082E+03  0.57897542348E+03  0.12509000000E+03 0.  0.
         25    1    4    4    0    0 -0.25598386120E+02 -0.60580859821E+01 -0.27696497489E+03  0.30503947809E+03  0.12509000000E+03 0.  0.
         25    1    4    4    0    0 -0.20222210429E+02 -0.88537843187E+02 -0.39856903728E+03  0.42749581641E+03  0.12509000000E+03 0.  0.
<mgrwt>
<rscale>  2 0.45249921E+03</rscale>
<asrwt>0</asrwt>
<pdfrwt beam="1">  1       21 0.59215842E-02 0.45249921E+03</pdfrwt>
<pdfrwt beam="2">  1       21 0.18694762E+00 0.45249921E+03</pdfrwt>
<totfact> 0.29348836E+04</totfact>
</mgrwt>
</event>
<event>
 7    0  0.4725730E-002  0.4480202E+03  0.7546771E-02  0.1028314E+00
         21   -1    0    0  502  501  0.00000000000E+00  0.00000000000E+00  0.49615825053E+03  0.49615825053E+03  0.00000000000E+00 0. -1.
         21   -1    0    0  501  502 -0.00000000000E+00 -0.00000000000E+00 -0.10113815494E+03  0.10113815494E+03  0.00000000000E+00 0. -1.
      99926    2    1    2    0    0  0.00000000000E+00  0.00000000000E+00  0.39502009559E+03  0.59729640548E+03  0.44802022284E+03 0.  0.
      99925    2    3    3    0    0  0.30494621693E+02  0.89476930039E+02  0.18484687785E+03  0.33508211808E+03  0.26301257507E+03 0.  0.
         25    1    4    4    0    0  0.18529981017E+02  0.77046775542E+02  0.67637851572E+02  0.16279420408E+03  0.12509000000E+03 0.  0.
         25    1    3    3    0    0 -0.30494621693E+02 -0.89476930039E+02  0.21017321774E+03  0.26221428740E+03  0.12509000000E+03 0.  0.
         25    1    4    4    0    0  0.11964640677E+02  0.12430154498E+02  0.11720902628E+03  0.17228791399E+03  0.12509000000E+03 0.  0.
<mgrwt>
<rscale>  2 0.44802022E+03</rscale>
<asrwt>0</asrwt>
<pdfrwt beam="1">  1       21 0.72964448E-01 0.44802022E+03</pdfrwt>
<pdfrwt beam="2">  1       21 0.14873258E-01 0.44802022E+03</pdfrwt>
<totfact> 0.62205380E+04</totfact>
</mgrwt>
</event>
<event>
 7    0  0.4725730E-002  0.4458258E+03  0.7546771E-02  0.1028974E+00
         21   -1    0    0  502  501  0.00000000000E+00  0.00000000000E+00  0.51017663336E+03  0.51017663336E+03  0.00000000000E+00 0.  1.
         21   -1    0    0  501  502 -0.00000000000E+00 -0.00000000000E+00 -0.97397965699E+02  0.97397965699E+02  0.00000000000E+00 0.  1.
      99926    2    1    2    0    0  0.00000000000E+00  0.71054273576E-14  0.41277866766E+03  0.60757459906E+03  0.44582582355E+03 0.  0.
      99925    2    3    3    0    0  0.89169134999E+02 -0.52818005421E+02  0.24425098639E+03  0.37350203812E+03  0.26287706593E+03 0.  0.
         25    1    3    3    0    0 -0.89169134999E+02  0.52818005421E+02  0.16852768127E+03  0.23407256094E+03  0.12509000000E+03 0.  0.
         25    1    4    4    0    0  0.14198903461E+02 -0.10764309746E+02  0.14414529473E+03  0.19168425422E+03  0.12509000000E+03 0.  0.
         25    1    4    4    0    0  0.74970231538E+02 -0.42053695675E+02  0.10010569166E+03  0.18181778389E+03  0.12509000000E+03 0.  0.
<mgrwt>
<rscale>  2 0.44582582E+03</rscale>
<asrwt>0</asrwt>
<pdfrwt beam="1">  1       21 0.75025975E-01 0.44582582E+03</pdfrwt>
<pdfrwt beam="2">  1       21 0.14323230E-01 0.44582582E+03</pdfrwt>
<totfact> 0.62631278E+04</totfact>
</mgrwt>
</event>
<event>
 7    0  0.4725730E-002  0.4489336E+03  0.7546771E-02  0.1028041E+00
         21   -1    0    0  502  501  0.00000000000E+00  0.00000000000E+00  0.13002728789E+04  0.13002728789E+04  0.00000000000E+00 0. -1.
         21   -1    0    0  501  502 -0.00000000000E+00 -0.00000000000E+00 -0.38749819625E+02  0.38749819625E+02  0.00000000000E+00 0. -1.
      99926    2    1    2    0    0  0.00000000000E+00  0.00000000000E+00  0.12615230592E+04  0.13390226985E+04  0.44893357869E+03 0.  0.
      99925    2    3    3    0    0 -0.61621561187E+02 -0.70810138344E+02  0.64287589019E+03  0.70091367931E+03  0.26301954899E+03 0.  0.
         25    1    4    4    0    0  0.91088698662E+01 -0.43173714727E+02  0.28979224531E+03  0.31870675346E+03  0.12509000000E+03 0.  0.
         25    1    4    4    0    0 -0.70730431053E+02 -0.27636423617E+02  0.35308364488E+03  0.38220692585E+03  0.12509000000E+03 0.  0.
         25    1    3    3    0    0  0.61621561187E+02  0.70810138344E+02  0.61864716904E+03  0.63810901918E+03  0.12509000000E+03 0.  0.
<mgrwt>
<rscale>  2 0.44893358E+03</rscale>
<asrwt>0</asrwt>
<pdfrwt beam="1">  1       21 0.19121657E+00 0.44893358E+03</pdfrwt>
<pdfrwt beam="2">  1       21 0.56985038E-02 0.44893358E+03</pdfrwt>
<totfact> 0.29362900E+04</totfact>
</mgrwt>
</event>
<event>
 7    0  0.4725730E-002  0.4553290E+03  0.7546771E-02  0.1026145E+00
         21   -1    0    0  502  501  0.00000000000E+00  0.00000000000E+00  0.25304977538E+03  0.25304977538E+03  0.00000000000E+00 0.  1.
         21   -1    0    0  501  502 -0.00000000000E+00 -0.00000000000E+00 -0.20482580451E+03  0.20482580451E+03  0.00000000000E+00 0.  1.
      99926    2    1    2    0    0  0.00000000000E+00  0.88817841970E-15  0.48223970876E+02  0.45787557989E+03  0.45532899676E+03 0.  0.
      99925    2    3    3    0    0  0.49591252753E+02  0.21145561281E+01  0.13287091578E+03  0.29889011804E+03  0.26309097040E+03 0.  0.
         25    1    4    4    0    0 -0.83457821262E+01 -0.16937356247E+02  0.44839245317E+02  0.13421844931E+03  0.12509000000E+03 0.  0.
         25    1    4    4    0    0  0.57937034879E+02  0.19051912375E+02  0.88031670467E+02  0.16467166873E+03  0.12509000000E+03 0.  0.
         25    1    3    3    0    0 -0.49591252753E+02 -0.21145561281E+01 -0.84646944908E+02  0.15898546185E+03  0.12509000000E+03 0.  0.
<mgrwt>
<rscale>  2 0.45532900E+03</rscale>
<asrwt>0</asrwt>
<pdfrwt beam="1">  1       21 0.37213203E-01 0.45532900E+03</pdfrwt>
<pdfrwt beam="2">  1       21 0.30121442E-01 0.45532900E+03</pdfrwt>
<totfact> 0.68156528E+04</totfact>
</mgrwt>
</event>
<event>
 7    0  0.4725730E-002  0.4533935E+03  0.7546771E-02  0.1026715E+00
         21   -1    0    0  502  501  0.00000000000E+00  0.00000000000E+00  0.34969054874E+03  0.34969054874E+03  0.00000000000E+00 0.  1.
         21   -1    0    0  501  502 -0.00000000000E+00 -0.00000000000E+00 -0.14696252629E+03  0.14696252629E+03  0.00000000000E+00 0.  1.
      99926    2    1    2    0    0  0.00000000000E+00  0.71054273576E-14  0.20272802245E+03  0.49665307503E+03  0.45339345589E+03 0.  0.
      99925    2    3    3    0    0  0.78600556351E+02 -0.52700271439E+02  0.19257791686E+03  0.33947197307E+03  0.26305816918E+03 0.  0.
         25    1    3    3    0    0 -0.78600556351E+02  0.52700271439E+02  0.10150105592E+02  0.15718110196E+03  0.12509000000E+03 0.  0.
         25    1    4    4    0    0  0.31082794156E+02  0.69800698644E+01  0.61948209490E+02  0.14317803682E+03  0.12509000000E+03 0.  0.
         25    1    4    4    0    0  0.47517762195E+02 -0.59680341304E+02  0.13062970737E+03  0.19629393625E+03  0.12509000000E+03 0.  0.
<mgrwt>
<rscale>  2 0.45339346E+03</rscale>
<asrwt>0</asrwt>
<pdfrwt beam="1">  1       21 0.51425080E-01 0.45339346E+03</pdfrwt>
<pdfrwt beam="2">  1       21 0.21612136E-01 0.45339346E+03</pdfrwt>
<totfact> 0.66348567E+04</totfact>
</mgrwt>
</event>
<event>
 7    0  0.4725730E-002  0.4559866E+03  0.7546771E-02  0.1025952E+00
         21   -1    0    0  502  501  0.00000000000E+00  0.00000000000E+00  0.30539017354E+03  0.30539017354E+03  0.00000000000E+00 0.  1.
         21   -1    0    0  501  502 -0.00000000000E+00 -0.00000000000E+00 -0.17021156880E+03  0.17021156880E+03  0.00000000000E+00 0.  1.
      99926    2    1    2    0    0 -0.35527136788E-14  0.17763568394E-14  0.13517860475E+03  0.47560174234E+03  0.45598658109E+03 0.  0.
      99925    2    3    3    0    0 -0.25636844612E+02  0.83820697669E+01 -0.30340991854E+02  0.26638474529E+03  0.26327314683E+03 0.  0.
         25    1    4    4    0    0  0.53340844638E+01 -0.12032457121E+02 -0.48189037277E+02  0.13469567140E+03  0.12509000000E+03 0.  0.
         25    1    3    3    0    0  0.25636844612E+02 -0.83820697669E+01  0.16551959660E+03  0.20921699705E+03  0.12509000000E+03 0.  0.
         25    1    4    4    0    0 -0.30970929076E+02  0.20414526888E+02  0.17848045423E+02  0.13168907389E+03  0.12509000000E+03 0.  0.
<mgrwt>
<rscale>  2 0.45598658E+03</rscale>
<asrwt>0</asrwt>
<pdfrwt beam="1">  1       21 0.44910320E-01 0.45598658E+03</pdfrwt>
<pdfrwt beam="2">  1       21 0.25031113E-01 0.45598658E+03</pdfrwt>
<totfact> 0.66499512E+04</totfact>
</mgrwt>
</event>
<event>
 7    0  0.4725730E-002  0.4684958E+03  0.7546771E-02  0.1022346E+00
         21   -1    0    0  502  501  0.00000000000E+00  0.00000000000E+00  0.21341025335E+03  0.21341025335E+03  0.00000000000E+00 0.  1.
         21   -1    0    0  501  502 -0.00000000000E+00 -0.00000000000E+00 -0.25712021003E+03  0.25712021003E+03  0.00000000000E+00 0.  1.
      99926    2    1    2    0    0  0.00000000000E+00  0.00000000000E+00 -0.43709956679E+02  0.47053046338E+03  0.46849584486E+03 0.  0.
      99925    2    3    3    0    0 -0.74959757572E+02  0.31939041016E+02 -0.12285752174E+03  0.30156030995E+03  0.26306953889E+03 0.  0.
         25    1    4    4    0    0 -0.24949155424E+02  0.24506766627E+02 -0.18943620800E+02  0.13126085035E+03  0.12509000000E+03 0.  0.
         25    1    3    3    0    0  0.74959757572E+02 -0.31939041016E+02  0.79147565057E+02  0.16897015343E+03  0.12509000000E+03 0.  0.
         25    1    4    4    0    0 -0.50010602148E+02  0.74322743882E+01 -0.10391390094E+03  0.17029945959E+03  0.12509000000E+03 0.  0.
<mgrwt>
<rscale>  2 0.46849584E+03</rscale>
<asrwt>0</asrwt>
<pdfrwt beam="1">  1       21 0.31383861E-01 0.46849584E+03</pdfrwt>
<pdfrwt beam="2">  1       21 0.37811795E-01 0.46849584E+03</pdfrwt>
<totfact> 0.60626763E+04</totfact>
</mgrwt>
</event>
<event>
 7    0  0.4725730E-002  0.4597509E+03  0.7546771E-02  0.1024853E+00
         21   -1    0    0  502  501  0.00000000000E+00  0.00000000000E+00  0.86389556964E+02  0.86389556964E+02  0.00000000000E+00 0. -1.
         21   -1    0    0  501  502 -0.00000000000E+00 -0.00000000000E+00 -0.61167961468E+03  0.61167961468E+03  0.00000000000E+00 0. -1.
      99926    2    1    2    0    0  0.00000000000E+00  0.00000000000E+00 -0.52529005772E+03  0.69806917165E+03  0.45975093656E+03 0.  0.
      99925    2    3    3    0    0  0.52892643270E+02  0.69815633672E+02 -0.44750726045E+03  0.52669377648E+03  0.26357490702E+03 0.  0.
         25    1    4    4    0    0  0.62266393334E+02  0.33430029687E+02 -0.27555146490E+03  0.31075840862E+03  0.12509000000E+03 0.  0.
         25    1    3    3    0    0 -0.52892643270E+02 -0.69815633672E+02 -0.77782797271E+02  0.17137539517E+03  0.12509000000E+03 0.  0.
         25    1    4    4    0    0 -0.93737500638E+01  0.36385603985E+02 -0.17195579555E+03  0.21593536786E+03  0.12509000000E+03 0.  0.
<mgrwt>
<rscale>  2 0.45975094E+03</rscale>
<asrwt>0</asrwt>
<pdfrwt beam="1">  1       21 0.12704347E-01 0.45975094E+03</pdfrwt>
<pdfrwt beam="2">  1       21 0.89952881E-01 0.45975094E+03</pdfrwt>
<totfact> 0.51071331E+04</totfact>
</mgrwt>
</event>
<event>
 7    0  0.4725730E-002  0.4641431E+03  0.7546771E-02  0.1023586E+00
         21   -1    0    0  502  501  0.00000000000E+00  0.00000000000E+00  0.23467840926E+03  0.23467840926E+03  0.00000000000E+00 0.  1.
         21   -1    0    0  501  502 -0.00000000000E+00 -0.00000000000E+00 -0.22949360397E+03  0.22949360397E+03  0.00000000000E+00 0.  1.
      99926    2    1    2    0    0  0.00000000000E+00  0.00000000000E+00  0.51848052936E+01  0.46417201323E+03  0.46414305517E+03 0.  0.
      99925    2    3    3    0    0  0.92286291428E+02 -0.37674436928E+02  0.72894885333E+02  0.29048181253E+03  0.26292564789E+03 0.  0.
         25    1    4    4    0    0  0.22137166013E+02 -0.51200822346E+02  0.40571626808E+02  0.14284657269E+03  0.12509000000E+03 0.  0.
         25    1    3    3    0    0 -0.92286291428E+02  0.37674436928E+02 -0.67710080040E+02  0.17369020071E+03  0.12509000000E+03 0.  0.
         25    1    4    4    0    0  0.70149125415E+02  0.13526385418E+02  0.32323258525E+02  0.14763523983E+03  0.12509000000E+03 0.  0.
<mgrwt>
<rscale>  2 0.46414306E+03</rscale>
<asrwt>0</asrwt>
<pdfrwt beam="1">  1       21 0.34511531E-01 0.46414306E+03</pdfrwt>
<pdfrwt beam="2">  1       21 0.33749059E-01 0.46414306E+03</pdfrwt>
<totfact> 0.63145179E+04</totfact>
</mgrwt>
</event>
<event>
 6    0  0.4749505E-002  0.4450064E+03  0.7546771E-02  0.1029222E+00
         21   -1    0    0  502  501  0.00000000000E+00  0.00000000000E+00  0.28959549842E+03  0.28959549842E+03  0.00000000000E+00 0.  1.
         21   -1    0    0  501  502 -0.00000000000E+00 -0.00000000000E+00 -0.17095455465E+03  0.17095455465E+03  0.00000000000E+00 0.  1.
      99926    2    1    2    0    0  0.00000000000E+00  0.35527136788E-14  0.11864094377E+03  0.46055005307E+03  0.44500637955E+03 0.  0.
         25    1    3    3    0    0  0.65359187875E+00  0.48396904937E+02  0.86018273145E+02  0.15934032448E+03  0.12509000000E+03 0.  0.
         25    1    3    3    0    0  0.63815033326E+02 -0.68793345194E+02  0.28535497825E+02  0.15895491675E+03  0.12509000000E+03 0.  0.
         25    1    3    3    0    0 -0.64468625205E+02  0.20396440257E+02  0.40871727980E+01  0.14225481184E+03  0.12509000000E+03 0.  0.
<mgrwt>
<rscale>  2 0.44500638E+03</rscale>
<asrwt>0</asrwt>
<pdfrwt beam="1">  1       21 0.42587573E-01 0.44500638E+03</pdfrwt>
<pdfrwt beam="2">  1       21 0.25140376E-01 0.44500638E+03</pdfrwt>
<totfact> 0.73826365E+04</totfact>
</mgrwt>
</event>
<event>
 7    0  0.4725730E-002  0.4549212E+03  0.7546771E-02  0.1026265E+00
         21   -1    0    0  502  501  0.00000000000E+00  0.00000000000E+00  0.28194024900E+02  0.28194024900E+02  0.00000000000E+00 0. -1.
         21   -1    0    0  501  502 -0.00000000000E+00 -0.00000000000E+00 -0.18350811301E+04  0.18350811301E+04  0.00000000000E+00 0. -1.
      99926    2    1    2    0    0  0.00000000000E+00  0.00000000000E+00 -0.18068871052E+04  0.18632751550E+04  0.45492119352E+03 0.  0.
      99925    2    3    3    0    0 -0.24229293371E+02 -0.11034895265E+03 -0.11438415039E+04  0.11791399874E+04  0.26312311548E+03 0.  0.
         25    1    4    4    0    0 -0.12474428565E+02 -0.99032406597E+02 -0.61939572896E+03  0.63973557513E+03  0.12509000000E+03 0.  0.
         25    1    4    4    0    0 -0.11754864806E+02 -0.11316546053E+02 -0.52444577496E+03  0.53940441232E+03  0.12509000000E+03 0.  0.
         25    1    3    3    0    0  0.24229293371E+02  0.11034895265E+03 -0.66304560132E+03  0.68413516759E+03  0.12509000000E+03 0.  0.
<mgrwt>
<rscale>  2 0.45492119E+03</rscale>
<asrwt>0</asrwt>
<pdfrwt beam="1">  1       21 0.41461793E-02 0.45492119E+03</pdfrwt>
<pdfrwt beam="2">  1       21 0.26986493E+00 0.45492119E+03</pdfrwt>
<totfact> 0.16083110E+04</totfact>
</mgrwt>
</event>
<event>
 7    0  0.4725730E-002  0.4487828E+03  0.7546771E-02  0.1028086E+00
         21   -1    0    0  502  501  0.00000000000E+00  0.00000000000E+00  0.16167389773E+03  0.16167389773E+03  0.00000000000E+00 0.  1.
         21   -1    0    0  501  502 -0.00000000000E+00 -0.00000000000E+00 -0.31143858586E+03  0.31143858586E+03  0.00000000000E+00 0.  1.
      99926    2    1    2    0    0  0.14210854715E-13 -0.44408920985E-14 -0.14976468812E+03  0.47311248359E+03  0.44878275404E+03 0.  0.
      99925    2    3    3    0    0  0.10671103953E+03 -0.11562485701E+01 -0.10654450285E+03  0.30310049759E+03  0.26292507998E+03 0.  0.
         25    1    4    4    0    0  0.44160628745E+02 -0.38795536456E+02 -0.62750248490E+02  0.15179050222E+03  0.12509000000E+03 0.  0.
         25    1    3    3    0    0 -0.10671103953E+03  0.11562485701E+01 -0.43220185272E+02  0.17001198600E+03  0.12509000000E+03 0.  0.
         25    1    4    4    0    0  0.62550410789E+02  0.37639287886E+02 -0.43794254362E+02  0.15130999537E+03  0.12509000000E+03 0.  0.
<mgrwt>
<rscale>  2 0.44878275E+03</rscale>
<asrwt>0</asrwt>
<pdfrwt beam="1">  1       21 0.23775574E-01 0.44878275E+03</pdfrwt>
<pdfrwt beam="2">  1       21 0.45799791E-01 0.44878275E+03</pdfrwt>
<totfact> 0.70626062E+04</totfact>
</mgrwt>
</event>
<event>
 7    0  0.4725730E-002  0.4571353E+03  0.7546771E-02  0.1025615E+00
         21   -1    0    0  502  501  0.00000000000E+00  0.00000000000E+00  0.28710532183E+03  0.28710532183E+03  0.00000000000E+00 0. -1.
         21   -1    0    0  501  502 -0.00000000000E+00 -0.00000000000E+00 -0.18196516122E+03  0.18196516122E+03  0.00000000000E+00 0. -1.
      99926    2    1    2    0    0  0.71054273576E-14 -0.71054273576E-14  0.10514016061E+03  0.46907048304E+03  0.45713528051E+03 0.  0.
      99925    2    3    3    0    0  0.53837661095E+02 -0.59888900997E+02  0.15084370306E+03  0.31343791541E+03  0.26268675233E+03 0.  0.
         25    1    4    4    0    0  0.42700759489E+02  0.25838484800E+01  0.53063654028E+02  0.14245452121E+03  0.12509000000E+03 0.  0.
         25    1    3    3    0    0 -0.53837661095E+02  0.59888900997E+02 -0.45703542453E+02  0.15563256763E+03  0.12509000000E+03 0.  0.
         25    1    4    4    0    0  0.11136901606E+02 -0.62472749477E+02  0.97780049033E+02  0.17098339420E+03  0.12509000000E+03 0.  0.
<mgrwt>
<rscale>  2 0.45713528E+03</rscale>
<asrwt>0</asrwt>
<pdfrwt beam="1">  1       21 0.42221371E-01 0.45713528E+03</pdfrwt>
<pdfrwt beam="2">  1       21 0.26759582E-01 0.45713528E+03</pdfrwt>
<totfact> 0.66373773E+04</totfact>
</mgrwt>
</event>
<event>
 7    0  0.4725730E-002  0.4503595E+03  0.7546771E-02  0.1027615E+00
         21   -1    0    0  502  501  0.00000000000E+00  0.00000000000E+00  0.51287693783E+02  0.51287693783E+02  0.00000000000E+00 0. -1.
         21   -1    0    0  501  502 -0.00000000000E+00 -0.00000000000E+00 -0.98865687193E+03  0.98865687193E+03  0.00000000000E+00 0. -1.
      99926    2    1    2    0    0  0.00000000000E+00  0.00000000000E+00 -0.93736917815E+03  0.10399445657E+04  0.45035954927E+03 0.  0.
      99925    2    3    3    0    0 -0.78321498564E+02  0.73034460539E+02 -0.54940214505E+03  0.61847782155E+03  0.26306616887E+03 0.  0.
         25    1    4    4    0    0 -0.70938559560E+01  0.61262752797E+02 -0.27938791185E+03  0.31226360829E+03  0.12509000000E+03 0.  0.
         25    1    4    4    0    0 -0.71227642608E+02  0.11771707742E+02 -0.27001423320E+03  0.30621421326E+03  0.12509000000E+03 0.  0.
         25    1    3    3    0    0  0.78321498564E+02 -0.73034460539E+02 -0.38796703310E+03  0.42146674416E+03  0.12509000000E+03 0.  0.
<mgrwt>
<rscale>  2 0.45035955E+03</rscale>
<asrwt>0</asrwt>
<pdfrwt beam="1">  1       21 0.75423085E-02 0.45035955E+03</pdfrwt>
<pdfrwt beam="2">  1       21 0.14539070E+00 0.45035955E+03</pdfrwt>
<totfact> 0.39043782E+04</totfact>
</mgrwt>
</event>
<event>
 7    0  0.4725730E-002  0.4500821E+03  0.7546771E-02  0.1027698E+00
         21   -1    0    0  502  501  0.00000000000E+00  0.00000000000E+00  0.44434456329E+03  0.44434456329E+03  0.00000000000E+00 0.  1.
         21   -1    0    0  501  502 -0.00000000000E+00 -0.00000000000E+00 -0.11397341788E+03  0.11397341788E+03  0.00000000000E+00 0.  1.
      99926    2    1    2    0    0  0.00000000000E+00  0.00000000000E+00  0.33037114541E+03  0.55831798117E+03  0.45008207516E+03 0.  0.
      99925    2    3    3    0    0 -0.55180551890E+02  0.86323633970E+02  0.25305403095E+03  0.37909156744E+03  0.26301598970E+03 0.  0.
         25    1    4    4    0    0  0.10668815525E+02  0.56964051185E+02  0.12120301679E+03  0.18356580872E+03  0.12509000000E+03 0.  0.
         25    1    4    4    0    0 -0.65849367415E+02  0.29359582786E+02  0.13185101415E+03  0.19552575872E+03  0.12509000000E+03 0.  0.
         25    1    3    3    0    0  0.55180551890E+02 -0.86323633970E+02  0.77317114461E+02  0.17922641373E+03  0.12509000000E+03 0.  0.
<mgrwt>
<rscale>  2 0.45008208E+03</rscale>
<asrwt>0</asrwt>
<pdfrwt beam="1">  1       21 0.65344788E-01 0.45008208E+03</pdfrwt>
<pdfrwt beam="2">  1       21 0.16760797E-01 0.45008208E+03</pdfrwt>
<totfact> 0.63764755E+04</totfact>
</mgrwt>
</event>
<event>
 7    0  0.4725730E-002  0.4591635E+03  0.7546771E-02  0.1025024E+00
         21   -1    0    0  502  501  0.00000000000E+00  0.00000000000E+00  0.10138189145E+03  0.10138189145E+03  0.00000000000E+00 0.  1.
         21   -1    0    0  501  502 -0.00000000000E+00 -0.00000000000E+00 -0.51989334819E+03  0.51989334819E+03  0.00000000000E+00 0.  1.
      99926    2    1    2    0    0  0.00000000000E+00  0.00000000000E+00 -0.41851145674E+03  0.62127523964E+03  0.45916346106E+03 0.  0.
      99925    2    3    3    0    0 -0.10352763081E+03 -0.45562095593E+02 -0.22167188457E+03  0.36207030110E+03  0.26298783933E+03 0.  0.
         25    1    3    3    0    0  0.10352763081E+03  0.45562095593E+02 -0.19683957217E+03  0.25920493854E+03  0.12509000000E+03 0.  0.
         25    1    4    4    0    0 -0.39812447936E+02 -0.28967921283E+02 -0.59708709784E+02  0.14709456006E+03  0.12509000000E+03 0.  0.
         25    1    4    4    0    0 -0.63715182870E+02 -0.16594174310E+02 -0.16196317479E+03  0.21497574104E+03  0.12509000000E+03 0.  0.
<mgrwt>
<rscale>  2 0.45916346E+03</rscale>
<asrwt>0</asrwt>
<pdfrwt beam="1">  1       21 0.14909102E-01 0.45916346E+03</pdfrwt>
<pdfrwt beam="2">  1       21 0.76454903E-01 0.45916346E+03</pdfrwt>
<totfact> 0.55538897E+04</totfact>
</mgrwt>
</event>
<event>
 7    0  0.4725730E-002  0.4121269E+03  0.7546771E-02  0.1039660E+00
         21   -1    0    0  502  501  0.00000000000E+00  0.00000000000E+00  0.44907119443E+02  0.44907119443E+02  0.00000000000E+00 0.  1.
         21   -1    0    0  501  502 -0.00000000000E+00 -0.00000000000E+00 -0.94555492157E+03  0.94555492157E+03  0.00000000000E+00 0.  1.
      99926    2    1    2    0    0  0.00000000000E+00  0.00000000000E+00 -0.90064780213E+03  0.99046204102E+03  0.41212691154E+03 0.  0.
      99925    2    3    3    0    0 -0.63441307956E+02  0.12740165333E+02 -0.57109025712E+03  0.63207287414E+03  0.26303027405E+03 0.  0.
         25    1    3    3    0    0  0.63441307956E+02 -0.12740165333E+02 -0.32955754501E+03  0.35838916688E+03  0.12509000000E+03 0.  0.
         25    1    4    4    0    0 -0.14492739987E+02 -0.30081172712E+02 -0.29092972751E+03  0.31843764054E+03  0.12509000000E+03 0.  0.
         25    1    4    4    0    0 -0.48948567969E+02  0.42821338045E+02 -0.28016052962E+03  0.31363523360E+03  0.12509000000E+03 0.  0.
<mgrwt>
<rscale>  2 0.41212691E+03</rscale>
<asrwt>0</asrwt>
<pdfrwt beam="1">  1       21 0.66039883E-02 0.41212691E+03</pdfrwt>
<pdfrwt beam="2">  1       21 0.13905219E+00 0.41212691E+03</pdfrwt>
<totfact> 0.56101032E+04</totfact>
</mgrwt>
</event>
<event>
 7    0  0.4725730E-002  0.4413224E+03  0.7546771E-02  0.1030342E+00
         21   -1    0    0  502  501  0.00000000000E+00  0.00000000000E+00  0.81430777167E+02  0.81430777167E+02  0.00000000000E+00 0. -1.
         21   -1    0    0  501  502 -0.00000000000E+00 -0.00000000000E+00 -0.59794801452E+03  0.59794801452E+03  0.00000000000E+00 0. -1.
      99926    2    1    2    0    0  0.00000000000E+00 -0.26645352591E-14 -0.51651723735E+03  0.67937879168E+03  0.44132242874E+03 0.  0.
      99925    2    3    3    0    0 -0.94870924326E+02 -0.67590202824E+01 -0.37544634920E+03  0.46820426618E+03  0.26307621919E+03 0.  0.
         25    1    3    3    0    0  0.94870924326E+02  0.67590202824E+01 -0.14107088815E+03  0.21117452550E+03  0.12509000000E+03 0.  0.
         25    1    4    4    0    0 -0.83223240282E+02 -0.26479391828E+02 -0.20266925174E+03  0.25367222871E+03  0.12509000000E+03 0.  0.
         25    1    4    4    0    0 -0.11647684043E+02  0.19720371546E+02 -0.17277709746E+03  0.21453203748E+03  0.12509000000E+03 0.  0.
<mgrwt>
<rscale>  2 0.44132243E+03</rscale>
<asrwt>0</asrwt>
<pdfrwt beam="1">  1       21 0.11975114E-01 0.44132243E+03</pdfrwt>
<pdfrwt beam="2">  1       21 0.87933531E-01 0.44132243E+03</pdfrwt>
<totfact> 0.60270809E+04</totfact>
</mgrwt>
</event>
<event>
 7    0  0.4725730E-002  0.4532052E+03  0.7546771E-02  0.1026771E+00
         21   -1    0    0  502  501  0.00000000000E+00  0.00000000000E+00  0.14121564405E+03  0.14121564405E+03  0.00000000000E+00 0. -1.
         21   -1    0    0  501  502 -0.00000000000E+00 -0.00000000000E+00 -0.36361935066E+03  0.36361935066E+03  0.00000000000E+00 0. -1.
      99926    2    1    2    0    0  0.00000000000E+00  0.00000000000E+00 -0.22240370661E+03  0.50483499471E+03  0.45320521088E+03 0.  0.
      99925    2    3    3    0    0 -0.64309658119E+02 -0.20926771744E+02 -0.41464703485E+02  0.27470439514E+03  0.26300099082E+03 0.  0.
         25    1    4    4    0    0 -0.73510128701E+02 -0.14021067037E+02 -0.27154265758E+02  0.14827404220E+03  0.12509000000E+03 0.  0.
         25    1    3    3    0    0  0.64309658119E+02  0.20926771744E+02 -0.18093900313E+03  0.23013059957E+03  0.12509000000E+03 0.  0.
         25    1    4    4    0    0  0.92004705814E+01 -0.69057047068E+01 -0.14310437726E+02  0.12643035294E+03  0.12509000000E+03 0.  0.
<mgrwt>
<rscale>  2 0.45320521E+03</rscale>
<asrwt>0</asrwt>
<pdfrwt beam="1">  1       21 0.20767007E-01 0.45320521E+03</pdfrwt>
<pdfrwt beam="2">  1       21 0.53473433E-01 0.45320521E+03</pdfrwt>
<totfact> 0.65865605E+04</totfact>
</mgrwt>
</event>
<event>
 7    0  0.4725730E-002  0.4495511E+03  0.7546771E-02  0.1027856E+00
         21   -1    0    0  502  501  0.00000000000E+00  0.00000000000E+00  0.52948974717E+03  0.52948974717E+03  0.00000000000E+00 0.  1.
         21   -1    0    0  501  502 -0.00000000000E+00 -0.00000000000E+00 -0.95420272443E+02  0.95420272443E+02  0.00000000000E+00 0.  1.
      99926    2    1    2    0    0  0.00000000000E+00  0.00000000000E+00  0.43406947472E+03  0.62491001961E+03  0.44955113583E+03 0.  0.
      99925    2    3    3    0    0  0.24526752158E+02  0.67046311551E+02  0.16220242065E+03  0.31724791168E+03  0.26313464754E+03 0.  0.
         25    1    4    4    0    0 -0.16571784119E+02  0.19237759471E+02  0.10745626167E+03  0.16685044708E+03  0.12509000000E+03 0.  0.
         25    1    3    3    0    0 -0.24526752158E+02 -0.67046311551E+02  0.27186705407E+03  0.30766210793E+03  0.12509000000E+03 0.  0.
         25    1    4    4    0    0  0.41098536277E+02  0.47808552079E+02  0.54746158980E+02  0.15039746460E+03  0.12509000000E+03 0.  0.
<mgrwt>
<rscale>  2 0.44955114E+03</rscale>
<asrwt>0</asrwt>
<pdfrwt beam="1">  1       21 0.77866138E-01 0.44955114E+03</pdfrwt>
<pdfrwt beam="2">  1       21 0.14032393E-01 0.44955114E+03</pdfrwt>
<totfact> 0.59697578E+04</totfact>
</mgrwt>
</event>
<event>
 7    0  0.4725730E-002  0.4553426E+03  0.7546771E-02  0.1026141E+00
         21   -1    0    0  502  501  0.00000000000E+00  0.00000000000E+00  0.10709027425E+03  0.10709027425E+03  0.00000000000E+00 0.  1.
         21   -1    0    0  501  502 -0.00000000000E+00 -0.00000000000E+00 -0.48402357486E+03  0.48402357486E+03  0.00000000000E+00 0.  1.
      99926    2    1    2    0    0  0.00000000000E+00 -0.14210854715E-13 -0.37693330061E+03  0.59111384911E+03  0.45534258476E+03 0.  0.
      99925    2    3    3    0    0 -0.86632788067E+02 -0.68847832541E+02 -0.26821286435E+03  0.39183287818E+03  0.26334312181E+03 0.  0.
         25    1    4    4    0    0 -0.10156838474E+02 -0.14459766945E+02 -0.92273714880E+02  0.15644229858E+03  0.12509000000E+03 0.  0.
         25    1    3    3    0    0  0.86632788067E+02  0.68847832541E+02 -0.10872043626E+03  0.19928097093E+03  0.12509000000E+03 0.  0.
         25    1    4    4    0    0 -0.76475949593E+02 -0.54388065596E+02 -0.17593914947E+03  0.23539057960E+03  0.12509000000E+03 0.  0.
<mgrwt>
<rscale>  2 0.45534258E+03</rscale>
<asrwt>0</asrwt>
<pdfrwt beam="1">  1       21 0.15748570E-01 0.45534258E+03</pdfrwt>
<pdfrwt beam="2">  1       21 0.71179937E-01 0.45534258E+03</pdfrwt>
<totfact> 0.59068499E+04</totfact>
</mgrwt>
</event>
<event>
 7    0  0.4725730E-002  0.4573371E+03  0.7546771E-02  0.1025556E+00
         21   -1    0    0  502  501  0.00000000000E+00  0.00000000000E+00  0.52326840103E+03  0.52326840103E+03  0.00000000000E+00 0.  1.
         21   -1    0    0  501  502 -0.00000000000E+00 -0.00000000000E+00 -0.99928268935E+02  0.99928268935E+02  0.00000000000E+00 0.  1.
      99926    2    1    2    0    0  0.00000000000E+00 -0.26645352591E-14  0.42334013210E+03  0.62319666997E+03  0.45733709888E+03 0.  0.
      99925    2    3    3    0    0  0.82793875247E+01 -0.63417092890E+01  0.10931662030E+03  0.28501470771E+03  0.26301044580E+03 0.  0.
         25    1    4    4    0    0 -0.12857525313E+02 -0.39973879395E+02  0.52969673021E+02  0.14218481407E+03  0.12509000000E+03 0.  0.
         25    1    4    4    0    0  0.21136912838E+02  0.33632170106E+02  0.56346947275E+02  0.14282989364E+03  0.12509000000E+03 0.  0.
         25    1    3    3    0    0 -0.82793875247E+01  0.63417092890E+01  0.31402351180E+03  0.33818196226E+03  0.12509000000E+03 0.  0.
<mgrwt>
<rscale>  2 0.45733710E+03</rscale>
<asrwt>0</asrwt>
<pdfrwt beam="1">  1       21 0.76951234E-01 0.45733710E+03</pdfrwt>
<pdfrwt beam="2">  1       21 0.14695334E-01 0.45733710E+03</pdfrwt>
<totfact> 0.56227894E+04</totfact>
</mgrwt>
</event>
<event>
 7    0  0.4725730E-002  0.4545909E+03  0.7546771E-02  0.1026362E+00
         21   -1    0    0  502  501  0.00000000000E+00  0.00000000000E+00  0.22011099198E+03  0.22011099198E+03  0.00000000000E+00 0. -1.
         21   -1    0    0  501  502 -0.00000000000E+00 -0.00000000000E+00 -0.23471441067E+03  0.23471441067E+03  0.00000000000E+00 0. -1.
      99926    2    1    2    0    0 -0.14210854715E-13 -0.35527136788E-14 -0.14603418686E+02  0.45482540265E+03  0.45459090076E+03 0.  0.
      99925    2    3    3    0    0 -0.10223109878E+03 -0.24105203695E+02  0.31372076136E+02  0.28513888984E+03  0.26322560844E+03 0.  0.
         25    1    3    3    0    0  0.10223109878E+03  0.24105203695E+02 -0.45975494822E+02  0.16968651280E+03  0.12509000000E+03 0.  0.
         25    1    4    4    0    0 -0.38422880889E+02  0.23820558251E+02 -0.21330742644E+01  0.13302554220E+03  0.12509000000E+03 0.  0.
         25    1    4    4    0    0 -0.63808217895E+02 -0.47925761946E+02  0.33505150400E+02  0.15211334765E+03  0.12509000000E+03 0.  0.
<mgrwt>
<rscale>  2 0.45459090E+03</rscale>
<asrwt>0</asrwt>
<pdfrwt beam="1">  1       21 0.32369264E-01 0.45459090E+03</pdfrwt>
<pdfrwt beam="2">  1       21 0.34516825E-01 0.45459090E+03</pdfrwt>
<totfact> 0.68782842E+04</totfact>
</mgrwt>
</event>
<event>
 7    0  0.4725730E-002  0.4471451E+03  0.7546771E-02  0.1028577E+00
         21   -1    0    0  502  501  0.00000000000E+00  0.00000000000E+00  0.15908803131E+03  0.15908803131E+03  0.00000000000E+00 0.  1.
         21   -1    0    0  501  502 -0.00000000000E+00 -0.00000000000E+00 -0.31419512670E+03  0.31419512670E+03  0.00000000000E+00 0.  1.
      99926    2    1    2    0    0  0.00000000000E+00  0.00000000000E+00 -0.15510709538E+03  0.47328315801E+03  0.44714509571E+03 0.  0.
      99925    2    3    3    0    0 -0.20002374788E+02 -0.10342838979E+03 -0.91166272372E+02  0.29768855741E+03  0.26307729128E+03 0.  0.
         25    1    4    4    0    0 -0.14185675291E+02 -0.78774145789E+02 -0.82217056234E+02  0.16974613947E+03  0.12509000000E+03 0.  0.
         25    1    4    4    0    0 -0.58166994969E+01 -0.24654244001E+02 -0.89492161379E+01  0.12794241795E+03  0.12509000000E+03 0.  0.
         25    1    3    3    0    0  0.20002374788E+02  0.10342838979E+03 -0.63940823010E+02  0.17559460060E+03  0.12509000000E+03 0.  0.
<mgrwt>
<rscale>  2 0.44714510E+03</rscale>
<asrwt>0</asrwt>
<pdfrwt beam="1">  1       21 0.23395299E-01 0.44714510E+03</pdfrwt>
<pdfrwt beam="2">  1       21 0.46205165E-01 0.44714510E+03</pdfrwt>
<totfact> 0.71550038E+04</totfact>
</mgrwt>
</event>
<event>
 7    0  0.4725730E-002  0.4502255E+03  0.7546771E-02  0.1027655E+00
         21   -1    0    0  502  501  0.00000000000E+00  0.00000000000E+00  0.43358151630E+02  0.43358151630E+02  0.00000000000E+00 0.  1.
         21   -1    0    0  501  502 -0.00000000000E+00 -0.00000000000E+00 -0.11687707472E+04  0.11687707472E+04  0.00000000000E+00 0.  1.
      99926    2    1    2    0    0  0.00000000000E+00  0.17763568394E-14 -0.11254125955E+04  0.12121288988E+04  0.45022545142E+03 0.  0.
      99925    2    3    3    0    0  0.17385785295E+02  0.89717956480E+01 -0.42359226062E+03  0.49897951105E+03  0.26299694017E+03 0.  0.
         25    1    3    3    0    0 -0.17385785295E+02 -0.89717956480E+01 -0.70182033490E+03  0.71314938774E+03  0.12509000000E+03 0.  0.
         25    1    4    4    0    0 -0.79906409672E+00 -0.32502363450E+02 -0.18271305851E+03  0.22380485246E+03  0.12509000000E+03 0.  0.
         25    1    4    4    0    0  0.18184849391E+02  0.41474159098E+02 -0.24087920211E+03  0.27517465859E+03  0.12509000000E+03 0.  0.
<mgrwt>
<rscale>  2 0.45022545E+03</rscale>
<asrwt>0</asrwt>
<pdfrwt beam="1">  1       21 0.63761992E-02 0.45022545E+03</pdfrwt>
<pdfrwt beam="2">  1       21 0.17187804E+00 0.45022545E+03</pdfrwt>
<totfact> 0.32983535E+04</totfact>
</mgrwt>
</event>
<event>
 7    0  0.4725730E-002  0.4529889E+03  0.7546771E-02  0.1026834E+00
         21   -1    0    0  502  501  0.00000000000E+00  0.00000000000E+00  0.89493109018E+02  0.89493109018E+02  0.00000000000E+00 0. -1.
         21   -1    0    0  501  502 -0.00000000000E+00 -0.00000000000E+00 -0.57322543841E+03  0.57322543841E+03  0.00000000000E+00 0. -1.
      99926    2    1    2    0    0  0.00000000000E+00  0.35527136788E-14 -0.48373232939E+03  0.66271854743E+03  0.45298885925E+03 0.  0.
      99925    2    3    3    0    0  0.10207775907E+03 -0.17157214105E+02 -0.36504584245E+03  0.46160109623E+03  0.26287424002E+03 0.  0.
         25    1    4    4    0    0  0.27989103651E+02  0.42600429048E+01 -0.11869985229E+03  0.17475325726E+03  0.12509000000E+03 0.  0.
         25    1    4    4    0    0  0.74088655414E+02 -0.21417257009E+02 -0.24634599016E+03  0.28684783898E+03  0.12509000000E+03 0.  0.
         25    1    3    3    0    0 -0.10207775907E+03  0.17157214105E+02 -0.11868648695E+03  0.20111745120E+03  0.12509000000E+03 0.  0.
<mgrwt>
<rscale>  2 0.45298886E+03</rscale>
<asrwt>0</asrwt>
<pdfrwt beam="1">  1       21 0.13160751E-01 0.45298886E+03</pdfrwt>
<pdfrwt beam="2">  1       21 0.84297859E-01 0.45298886E+03</pdfrwt>
<totfact> 0.55854385E+04</totfact>
</mgrwt>
</event>
<event>
 7    0  0.4725730E-002  0.4346198E+03  0.7546771E-02  0.1032410E+00
         21   -1    0    0  502  501  0.00000000000E+00  0.00000000000E+00  0.42679838186E+03  0.42679838186E+03  0.00000000000E+00 0. -1.
         21   -1    0    0  501  502 -0.00000000000E+00 -0.00000000000E+00 -0.11064616229E+03  0.11064616229E+03  0.00000000000E+00 0. -1.
      99926    2    1    2    0    0  0.00000000000E+00  0.00000000000E+00  0.31615221958E+03  0.53744454415E+03  0.43461984779E+03 0.  0.
      99925    2    3    3    0    0  0.84928286529E+02  0.31311370298E+02  0.22785233956E+03  0.35957494958E+03  0.26302897171E+03 0.  0.
         25    1    4    4    0    0  0.25172782748E+02  0.19150784766E+02  0.15761611017E+03  0.20369282716E+03  0.12509000000E+03 0.  0.
         25    1    4    4    0    0  0.59755503781E+02  0.12160585532E+02  0.70236229388E+02  0.15588212242E+03  0.12509000000E+03 0.  0.
         25    1    3    3    0    0 -0.84928286529E+02 -0.31311370298E+02  0.88299880014E+02  0.17786959457E+03  0.12509000000E+03 0.  0.
<mgrwt>
<rscale>  2 0.43461985E+03</rscale>
<asrwt>0</asrwt>
<pdfrwt beam="1">  1       21 0.62764468E-01 0.43461985E+03</pdfrwt>
<pdfrwt beam="2">  1       21 0.16271495E-01 0.43461985E+03</pdfrwt>
<totfact> 0.73925435E+04</totfact>
</mgrwt>
</event>
<event>
 7    0  0.4725730E-002  0.4577682E+03  0.7546771E-02  0.1025431E+00
         21   -1    0    0  502  501  0.00000000000E+00  0.00000000000E+00  0.10174748217E+04  0.10174748217E+04  0.00000000000E+00 0.  1.
         21   -1    0    0  501  502 -0.00000000000E+00 -0.00000000000E+00 -0.51488175607E+02  0.51488175607E+02  0.00000000000E+00 0.  1.
      99926    2    1    2    0    0  0.00000000000E+00  0.00000000000E+00  0.96598664613E+03  0.10689629973E+04  0.45776816096E+03 0.  0.
      99925    2    3    3    0    0 -0.95146745404E+02 -0.13658084656E+02  0.45479387719E+03  0.53398168781E+03  0.26279179163E+03 0.  0.
         25    1    3    3    0    0  0.95146745404E+02  0.13658084656E+02  0.51119276894E+03  0.53498130954E+03  0.12509000000E+03 0.  0.
         25    1    4    4    0    0 -0.63906924421E+01 -0.21203753613E+01  0.22351495399E+03  0.25622603244E+03  0.12509000000E+03 0.  0.
         25    1    4    4    0    0 -0.88756052962E+02 -0.11537709294E+02  0.23127892320E+03  0.27775565537E+03  0.12509000000E+03 0.  0.
<mgrwt>
<rscale>  2 0.45776816E+03</rscale>
<asrwt>0</asrwt>
<pdfrwt beam="1">  1       21 0.14962864E+00 0.45776816E+03</pdfrwt>
<pdfrwt beam="2">  1       21 0.75717912E-02 0.45776816E+03</pdfrwt>
<totfact> 0.35809363E+04</totfact>
</mgrwt>
</event>
<event>
 7    0  0.4725730E-002  0.4365050E+03  0.7546771E-02  0.1031825E+00
         21   -1    0    0  502  501  0.00000000000E+00  0.00000000000E+00  0.29115693443E+03  0.29115693443E+03  0.00000000000E+00 0. -1.
         21   -1    0    0  501  502 -0.00000000000E+00 -0.00000000000E+00 -0.16360298791E+03  0.16360298791E+03  0.00000000000E+00 0. -1.
      99926    2    1    2    0    0  0.11102230246E-15  0.00000000000E+00  0.12755394652E+03  0.45475992234E+03  0.43650495724E+03 0.  0.
      99925    2    3    3    0    0 -0.65164185078E+00  0.75157972584E+02  0.14191076693E+03  0.30812168765E+03  0.26296608746E+03 0.  0.
         25    1    3    3    0    0  0.65164185078E+00 -0.75157972584E+02 -0.14356820408E+02  0.14663823469E+03  0.12509000000E+03 0.  0.
         25    1    4    4    0    0  0.10276538025E+02  0.56503689682E+02  0.34670848992E+02  0.14194312259E+03  0.12509000000E+03 0.  0.
         25    1    4    4    0    0 -0.10928179876E+02  0.18654282901E+02  0.10723991794E+03  0.16617856506E+03  0.12509000000E+03 0.  0.
<mgrwt>
<rscale>  2 0.43650496E+03</rscale>
<asrwt>0</asrwt>
<pdfrwt beam="1">  1       21 0.42817196E-01 0.43650496E+03</pdfrwt>
<pdfrwt beam="2">  1       21 0.24059263E-01 0.43650496E+03</pdfrwt>
<totfact> 0.79645811E+04</totfact>
</mgrwt>
</event>
<event>
 7    0  0.4725730E-002  0.4575267E+03  0.7546771E-02  0.1025501E+00
         21   -1    0    0  502  501  0.00000000000E+00  0.00000000000E+00  0.57635781878E+02  0.57635781878E+02  0.00000000000E+00 0. -1.
         21   -1    0    0  501  502 -0.00000000000E+00 -0.00000000000E+00 -0.90798922327E+03  0.90798922327E+03  0.00000000000E+00 0. -1.
      99926    2    1    2    0    0  0.00000000000E+00 -0.17763568394E-14 -0.85035344139E+03  0.96562500515E+03  0.45752669351E+03 0.  0.
      99925    2    3    3    0    0  0.11290579794E+03 -0.74839923080E+01 -0.48792865810E+03  0.56587137978E+03  0.26331029928E+03 0.  0.
         25    1    4    4    0    0  0.55614139487E+02  0.37215717517E+02 -0.23556194704E+03  0.27498160145E+03  0.12509000000E+03 0.  0.
         25    1    3    3    0    0 -0.11290579794E+03  0.74839923080E+01 -0.36242478329E+03  0.39975362537E+03  0.12509000000E+03 0.  0.
         25    1    4    4    0    0  0.57291658456E+02 -0.44699709825E+02 -0.25236671106E+03  0.29088977833E+03  0.12509000000E+03 0.  0.
<mgrwt>
<rscale>  2 0.45752669E+03</rscale>
<asrwt>0</asrwt>
<pdfrwt beam="1">  1       21 0.84758504E-02 0.45752669E+03</pdfrwt>
<pdfrwt beam="2">  1       21 0.13352782E+00 0.45752669E+03</pdfrwt>
<totfact> 0.39723966E+04</totfact>
</mgrwt>
</event>
<event>
 7    0  0.4725730E-002  0.4562498E+03  0.7546771E-02  0.1025875E+00
         21   -1    0    0  502  501  0.00000000000E+00  0.00000000000E+00  0.14225879229E+03  0.14225879229E+03  0.00000000000E+00 0. -1.
         21   -1    0    0  501  502 -0.00000000000E+00 -0.00000000000E+00 -0.36581907366E+03  0.36581907366E+03  0.00000000000E+00 0. -1.
      99926    2    1    2    0    0  0.00000000000E+00  0.00000000000E+00 -0.22356028137E+03  0.50807786596E+03  0.45624984216E+03 0.  0.
      99925    2    3    3    0    0 -0.98374903693E+02 -0.57717067755E+02 -0.14939194083E+03  0.32326084178E+03  0.26300330465E+03 0.  0.
         25    1    3    3    0    0  0.98374903693E+02  0.57717067755E+02 -0.74168340537E+02  0.18481702417E+03  0.12509000000E+03 0.  0.
         25    1    4    4    0    0 -0.27773233467E+02  0.48715193656E+01 -0.49539856817E+02  0.13746559465E+03  0.12509000000E+03 0.  0.
         25    1    4    4    0    0 -0.70601670226E+02 -0.62588587120E+02 -0.99852084014E+02  0.18579524714E+03  0.12509000000E+03 0.  0.
<mgrwt>
<rscale>  2 0.45624984E+03</rscale>
<asrwt>0</asrwt>
<pdfrwt beam="1">  1       21 0.20920411E-01 0.45624984E+03</pdfrwt>
<pdfrwt beam="2">  1       21 0.53796922E-01 0.45624984E+03</pdfrwt>
<totfact> 0.64068898E+04</totfact>
</mgrwt>
</event>
<event>
 7    0  0.4725730E-002  0.4572779E+03  0.7546771E-02  0.1025574E+00
         21   -1    0    0  502  501  0.00000000000E+00  0.00000000000E+00  0.68198644904E+03  0.68198644904E+03  0.00000000000E+00 0. -1.
         21   -1    0    0  501  502 -0.00000000000E+00 -0.00000000000E+00 -0.76652200352E+02  0.76652200352E+02  0.00000000000E+00 0. -1.
      99926    2    1    2    0    0  0.00000000000E+00  0.00000000000E+00  0.60533424869E+03  0.75863864939E+03  0.45727786707E+03 0.  0.
      99925    2    3    3    0    0  0.46327670826E+02  0.74085841172E+02  0.50500767794E+03  0.57602459231E+03  0.26293841716E+03 0.  0.
         25    1    4    4    0    0 -0.17549653375E+00  0.54237842152E+02  0.19508990149E+03  0.23801124360E+03  0.12509000000E+03 0.  0.
         25    1    4    4    0    0  0.46503167360E+02  0.19847999020E+02  0.30991777645E+03  0.33801334870E+03  0.12509000000E+03 0.  0.
         25    1    3    3    0    0 -0.46327670826E+02 -0.74085841172E+02  0.10032657075E+03  0.18261405708E+03  0.12509000000E+03 0.  0.
<mgrwt>
<rscale>  2 0.45727787E+03</rscale>
<asrwt>0</asrwt>
<pdfrwt beam="1">  1       21 0.10029212E+00 0.45727787E+03</pdfrwt>
<pdfrwt beam="2">  1       21 0.11272383E-01 0.45727787E+03</pdfrwt>
<totfact> 0.48948608E+04</totfact>
</mgrwt>
</event>
<event>
 7    0  0.4725730E-002  0.4536076E+03  0.7546771E-02  0.1026652E+00
         21   -1    0    0  502  501  0.00000000000E+00  0.00000000000E+00  0.27979004362E+03  0.27979004362E+03  0.00000000000E+00 0. -1.
         21   -1    0    0  501  502 -0.00000000000E+00 -0.00000000000E+00 -0.18385205366E+03  0.18385205366E+03  0.00000000000E+00 0. -1.
      99926    2    1    2    0    0  0.00000000000E+00  0.00000000000E+00  0.95937989954E+02  0.46364209728E+03  0.45360764594E+03 0.  0.
      99925    2    3    3    0    0 -0.52949381629E+02 -0.87865631637E+02  0.10592874851E+03  0.30155776863E+03  0.26304406821E+03 0.  0.
         25    1    4    4    0    0 -0.99292055913E+01 -0.50378303919E+01  0.57681336810E+02  0.13819773361E+03  0.12509000000E+03 0.  0.
         25    1    3    3    0    0  0.52949381629E+02  0.87865631637E+02 -0.99907585592E+01  0.16208432865E+03  0.12509000000E+03 0.  0.
         25    1    4    4    0    0 -0.43020176038E+02 -0.82827801246E+02  0.48247411703E+02  0.16336003502E+03  0.12509000000E+03 0.  0.
<mgrwt>
<rscale>  2 0.45360765E+03</rscale>
<asrwt>0</asrwt>
<pdfrwt beam="1">  1       21 0.41145595E-01 0.45360765E+03</pdfrwt>
<pdfrwt beam="2">  1       21 0.27037067E-01 0.45360765E+03</pdfrwt>
<totfact> 0.68667451E+04</totfact>
</mgrwt>
</event>
<event>
 7    0  0.4725730E-002  0.4593403E+03  0.7546771E-02  0.1024973E+00
         21   -1    0    0  502  501  0.00000000000E+00  0.00000000000E+00  0.26585036715E+02  0.26585036715E+02  0.00000000000E+00 0. -1.
         21   -1    0    0  501  502 -0.00000000000E+00 -0.00000000000E+00 -0.19841376292E+04  0.19841376292E+04  0.00000000000E+00 0. -1.
      99926    2    1    2    0    0  0.00000000000E+00  0.14210854715E-13 -0.19575525925E+04  0.20107226659E+04  0.45934027352E+03 0.  0.
      99925    2    3    3    0    0  0.33078539769E+02  0.10766770151E+03 -0.10854267251E+04  0.11225010942E+04  0.26300381603E+03 0.  0.
         25    1    4    4    0    0  0.29470291403E+02  0.69242268789E+02 -0.42926202061E+03  0.45340531569E+03  0.12509000000E+03 0.  0.
         25    1    4    4    0    0  0.36082483663E+01  0.38425432726E+02 -0.65616470447E+03  0.66909577852E+03  0.12509000000E+03 0.  0.
         25    1    3    3    0    0 -0.33078539769E+02 -0.10766770151E+03 -0.87212586744E+03  0.88822157173E+03  0.12509000000E+03 0.  0.
<mgrwt>
<rscale>  2 0.45934027E+03</rscale>
<asrwt>0</asrwt>
<pdfrwt beam="1">  1       21 0.39095653E-02 0.45934027E+03</pdfrwt>
<pdfrwt beam="2">  1       21 0.29178487E+00 0.45934027E+03</pdfrwt>
<totfact> 0.13088830E+04</totfact>
</mgrwt>
</event>
<event>
 7    0  0.4725730E-002  0.4616903E+03  0.7546771E-02  0.1024292E+00
         21   -1    0    0  502  501  0.00000000000E+00  0.00000000000E+00  0.16716325222E+03  0.16716325222E+03  0.00000000000E+00 0. -1.
         21   -1    0    0  501  502 -0.00000000000E+00 -0.00000000000E+00 -0.31878713798E+03  0.31878713798E+03  0.00000000000E+00 0. -1.
      99926    2    1    2    0    0  0.14210854715E-13  0.00000000000E+00 -0.15162388576E+03  0.48595039021E+03  0.46169034970E+03 0.  0.
      99925    2    3    3    0    0 -0.11306944460E+03 -0.38215560457E+02 -0.95699545380E+02  0.30423586599E+03  0.26297515245E+03 0.  0.
         25    1    3    3    0    0  0.11306944460E+03  0.38215560457E+02 -0.55924340380E+02  0.18171452421E+03  0.12509000000E+03 0.  0.
         25    1    4    4    0    0 -0.66655622299E+02  0.20141887163E+02 -0.47596718648E+02  0.15086955733E+03  0.12509000000E+03 0.  0.
         25    1    4    4    0    0 -0.46413822301E+02 -0.58357447620E+02 -0.48102826731E+02  0.15336630866E+03  0.12509000000E+03 0.  0.
<mgrwt>
<rscale>  2 0.46169035E+03</rscale>
<asrwt>0</asrwt>
<pdfrwt beam="1">  1       21 0.24582831E-01 0.46169035E+03</pdfrwt>
<pdfrwt beam="2">  1       21 0.46880461E-01 0.46169035E+03</pdfrwt>
<totfact> 0.62863994E+04</totfact>
</mgrwt>
</event>
<event>
 7    0  0.4725730E-002  0.4551338E+03  0.7546771E-02  0.1026202E+00
         21   -1    0    0  502  501  0.00000000000E+00  0.00000000000E+00  0.49530236305E+03  0.49530236305E+03  0.00000000000E+00 0. -1.
         21   -1    0    0  501  502 -0.00000000000E+00 -0.00000000000E+00 -0.10455570233E+03  0.10455570233E+03  0.00000000000E+00 0. -1.
      99926    2    1    2    0    0  0.71054273576E-14  0.00000000000E+00  0.39074666072E+03  0.59985806538E+03  0.45513376686E+03 0.  0.
      99925    2    3    3    0    0 -0.58232323746E+02 -0.96591435144E+02  0.23098615738E+03  0.36771191443E+03  0.26293827839E+03 0.  0.
         25    1    4    4    0    0  0.71534552204E+01 -0.26513351119E+02  0.11386325258E+03  0.17136650226E+03  0.12509000000E+03 0.  0.
         25    1    3    3    0    0  0.58232323746E+02  0.96591435144E+02  0.15976050334E+03  0.23214615095E+03  0.12509000000E+03 0.  0.
         25    1    4    4    0    0 -0.65385778966E+02 -0.70078084025E+02  0.11712290480E+03  0.19634541217E+03  0.12509000000E+03 0.  0.
<mgrwt>
<rscale>  2 0.45513377E+03</rscale>
<asrwt>0</asrwt>
<pdfrwt beam="1">  1       21 0.72838582E-01 0.45513377E+03</pdfrwt>
<pdfrwt beam="2">  1       21 0.15375839E-01 0.45513377E+03</pdfrwt>
<totfact> 0.58625018E+04</totfact>
</mgrwt>
</event>
<event>
 7    0  0.4725730E-002  0.4596805E+03  0.7546771E-02  0.1024874E+00
         21   -1    0    0  502  501  0.00000000000E+00  0.00000000000E+00  0.11057874892E+03  0.11057874892E+03  0.00000000000E+00 0. -1.
         21   -1    0    0  501  502 -0.00000000000E+00 -0.00000000000E+00 -0.47772776946E+03  0.47772776946E+03  0.00000000000E+00 0. -1.
      99926    2    1    2    0    0  0.00000000000E+00  0.14210854715E-13 -0.36714902054E+03  0.58830651837E+03  0.45968049369E+03 0.  0.
      99925    2    3    3    0    0  0.20602445387E+02 -0.11565991085E+03 -0.23565233859E+03  0.37211086348E+03  0.26293115886E+03 0.  0.
         25    1    4    4    0    0  0.28070898523E+02 -0.19313169330E+02 -0.98246693300E+02  0.16266805064E+03  0.12509000000E+03 0.  0.
         25    1    4    4    0    0 -0.74684531357E+01 -0.96346741516E+02 -0.13740564529E+03  0.20944281284E+03  0.12509000000E+03 0.  0.
         25    1    3    3    0    0 -0.20602445387E+02  0.11565991085E+03 -0.13149668195E+03  0.21619565490E+03  0.12509000000E+03 0.  0.
<mgrwt>
<rscale>  2 0.45968049E+03</rscale>
<asrwt>0</asrwt>
<pdfrwt beam="1">  1       21 0.16261581E-01 0.45968049E+03</pdfrwt>
<pdfrwt beam="2">  1       21 0.70254084E-01 0.45968049E+03</pdfrwt>
<totfact> 0.57256103E+04</totfact>
</mgrwt>
</event>
<event>
 7    0  0.4725730E-002  0.4407035E+03  0.7546771E-02  0.1030531E+00
         21   -1    0    0  502  501  0.00000000000E+00  0.00000000000E+00  0.28047406666E+02  0.28047406666E+02  0.00000000000E+00 0. -1.
         21   -1    0    0  501  502 -0.00000000000E+00 -0.00000000000E+00 -0.17311720683E+04  0.17311720683E+04  0.00000000000E+00 0. -1.
      99926    2    1    2    0    0  0.00000000000E+00  0.71054273576E-14 -0.17031246616E+04  0.17592194749E+04  0.44070346950E+03 0.  0.
      99925    2    3    3    0    0 -0.70446632490E+02  0.35886069941E+02 -0.84686226750E+03  0.89026416325E+03  0.26295254745E+03 0.  0.
         25    1    3    3    0    0  0.70446632490E+02 -0.35886069941E+02 -0.85626239410E+03  0.86895531168E+03  0.12509000000E+03 0.  0.
         25    1    4    4    0    0 -0.55358270637E+02  0.51073729142E+02 -0.50141846991E+03  0.52224616227E+03  0.12509000000E+03 0.  0.
         25    1    4    4    0    0 -0.15088361853E+02 -0.15187659202E+02 -0.34544379758E+03  0.36801800098E+03  0.12509000000E+03 0.  0.
<mgrwt>
<rscale>  2 0.44070347E+03</rscale>
<asrwt>0</asrwt>
<pdfrwt beam="1">  1       21 0.41246187E-02 0.44070347E+03</pdfrwt>
<pdfrwt beam="2">  1       21 0.25458413E+00 0.44070347E+03</pdfrwt>
<totfact> 0.20207583E+04</totfact>
</mgrwt>
</event>
<event>
 7    0  0.4725730E-002  0.4520121E+03  0.7546771E-02  0.1027124E+00
         21   -1    0    0  502  501  0.00000000000E+00  0.00000000000E+00  0.60726409295E+02  0.60726409295E+02  0.00000000000E+00 0. -1.
         21   -1    0    0  501  502 -0.00000000000E+00 -0.00000000000E+00 -0.84112872825E+03  0.84112872825E+03  0.00000000000E+00 0. -1.
      99926    2    1    2    0    0 -0.13877787808E-15  0.17763568394E-14 -0.78040231896E+03  0.90185513755E+03  0.45201206808E+03 0.  0.
      99925    2    3    3    0    0 -0.24672945776E+00 -0.96336443227E+01 -0.27430032794E+03  0.38043438480E+03  0.26343269208E+03 0.  0.
         25    1    4    4    0    0  0.21716425735E+02  0.17984842349E+02 -0.97928553472E+02  0.16134611054E+03  0.12509000000E+03 0.  0.
         25    1    4    4    0    0 -0.21963155192E+02 -0.27618486672E+02 -0.17637177447E+03  0.21908827426E+03  0.12509000000E+03 0.  0.
         25    1    3    3    0    0  0.24672945776E+00  0.96336443227E+01 -0.50610199102E+03  0.52142075274E+03  0.12509000000E+03 0.  0.
<mgrwt>
<rscale>  2 0.45201207E+03</rscale>
<asrwt>0</asrwt>
<pdfrwt beam="1">  1       21 0.89303543E-02 0.45201207E+03</pdfrwt>
<pdfrwt beam="2">  1       21 0.12369540E+00 0.45201207E+03</pdfrwt>
<totfact> 0.44178014E+04</totfact>
</mgrwt>
</event>
<event>
 7    0  0.4725730E-002  0.4622150E+03  0.7546771E-02  0.1024141E+00
         21   -1    0    0  502  501  0.00000000000E+00  0.00000000000E+00  0.22443889985E+03  0.22443889985E+03  0.00000000000E+00 0.  1.
         21   -1    0    0  501  502 -0.00000000000E+00 -0.00000000000E+00 -0.23797427180E+03  0.23797427180E+03  0.00000000000E+00 0.  1.
      99926    2    1    2    0    0  0.00000000000E+00  0.00000000000E+00 -0.13535371949E+02  0.46241317164E+03  0.46221503115E+03 0.  0.
      99925    2    3    3    0    0 -0.67060172416E+02  0.68414037998E+02  0.63988602847E+02  0.28681413381E+03  0.26265996791E+03 0.  0.
         25    1    4    4    0    0 -0.41172933092E+01  0.60718418852E+02  0.37704765413E+02  0.14412784577E+03  0.12509000000E+03 0.  0.
         25    1    4    4    0    0 -0.62942879107E+02  0.76956191451E+01  0.26283837434E+02  0.14268628804E+03  0.12509000000E+03 0.  0.
         25    1    3    3    0    0  0.67060172416E+02 -0.68414037998E+02 -0.77523974796E+02  0.17559903783E+03  0.12509000000E+03 0.  0.
<mgrwt>
<rscale>  2 0.46221503E+03</rscale>
<asrwt>0</asrwt>
<pdfrwt beam="1">  1       21 0.33005721E-01 0.46221503E+03</pdfrwt>
<pdfrwt beam="2">  1       21 0.34996216E-01 0.46221503E+03</pdfrwt>
<totfact> 0.64228191E+04</totfact>
</mgrwt>
</event>
<event>
 7    0  0.4725730E-002  0.4515111E+03  0.7546771E-02  0.1027272E+00
         21   -1    0    0  502  501  0.00000000000E+00  0.00000000000E+00  0.15417003761E+03  0.15417003761E+03  0.00000000000E+00 0.  1.
         21   -1    0    0  501  502 -0.00000000000E+00 -0.00000000000E+00 -0.33058020315E+03  0.33058020315E+03  0.00000000000E+00 0.  1.
      99926    2    1    2    0    0  0.00000000000E+00  0.00000000000E+00 -0.17641016554E+03  0.48475024075E+03  0.45151107340E+03 0.  0.
      99925    2    3    3    0    0  0.25629582614E+02 -0.51319391907E+02 -0.10691824127E+02  0.26934218085E+03  0.26294550726E+03 0.  0.
         25    1    3    3    0    0 -0.25629582614E+02  0.51319391907E+02 -0.16571834141E+03  0.21540805990E+03  0.12509000000E+03 0.  0.
         25    1    4    4    0    0  0.11555603468E+02 -0.10468860534E+02 -0.42863310941E+02  0.13314616231E+03  0.12509000000E+03 0.  0.
         25    1    4    4    0    0  0.14073979146E+02 -0.40850531373E+02  0.32171486814E+02  0.13619601854E+03  0.12509000000E+03 0.  0.
<mgrwt>
<rscale>  2 0.45151107E+03</rscale>
<asrwt>0</asrwt>
<pdfrwt beam="1">  1       21 0.22672065E-01 0.45151107E+03</pdfrwt>
<pdfrwt beam="2">  1       21 0.48614734E-01 0.45151107E+03</pdfrwt>
<totfact> 0.68226076E+04</totfact>
</mgrwt>
</event>
<event>
 7    0  0.4725730E-002  0.4473691E+03  0.7546771E-02  0.1028510E+00
         21   -1    0    0  502  501  0.00000000000E+00  0.00000000000E+00  0.21240747551E+03  0.21240747551E+03  0.00000000000E+00 0.  1.
         21   -1    0    0  501  502 -0.00000000000E+00 -0.00000000000E+00 -0.23556030250E+03  0.23556030250E+03  0.00000000000E+00 0.  1.
      99926    2    1    2    0    0  0.71054273576E-14  0.71054273576E-14 -0.23152826990E+02  0.44796777801E+03  0.44736906100E+03 0.  0.
      99925    2    3    3    0    0 -0.48114444716E+02 -0.44044829400E+02 -0.97981681521E+02  0.28827490917E+03  0.26314837366E+03 0.  0.
         25    1    4    4    0    0 -0.32296134303E+01 -0.55175267312E+02 -0.37283119258E+02  0.14174723845E+03  0.12509000000E+03 0.  0.
         25    1    3    3    0    0  0.48114444716E+02  0.44044829400E+02  0.74828854530E+02  0.15969286884E+03  0.12509000000E+03 0.  0.
         25    1    4    4    0    0 -0.44884831286E+02  0.11130437912E+02 -0.60698562262E+02  0.14652767073E+03  0.12509000000E+03 0.  0.
<mgrwt>
<rscale>  2 0.44736906E+03</rscale>
<asrwt>0</asrwt>
<pdfrwt beam="1">  1       21 0.31236393E-01 0.44736906E+03</pdfrwt>
<pdfrwt beam="2">  1       21 0.34641221E-01 0.44736906E+03</pdfrwt>
<totfact> 0.73434413E+04</totfact>
</mgrwt>
</event>
<event>
 7    0  0.4725730E-002  0.4375239E+03  0.7546771E-02  0.1031509E+00
         21   -1    0    0  502  501  0.00000000000E+00  0.00000000000E+00  0.18442140834E+03  0.18442140834E+03  0.00000000000E+00 0. -1.
         21   -1    0    0  501  502 -0.00000000000E+00 -0.00000000000E+00 -0.25949689098E+03  0.25949689098E+03  0.00000000000E+00 0. -1.
      99926    2    1    2    0    0  0.00000000000E+00  0.00000000000E+00 -0.75075482633E+02  0.44391829932E+03  0.43752386035E+03 0.  0.
      99925    2    3    3    0    0 -0.68356628568E+02  0.55046745779E+02 -0.89702678529E+01  0.27742451442E+03  0.26302304577E+03 0.  0.
         25    1    4    4    0    0 -0.21984456308E+02  0.51191954956E+02 -0.35243825579E+02  0.14139861355E+03  0.12509000000E+03 0.  0.
         25    1    3    3    0    0  0.68356628568E+02 -0.55046745779E+02 -0.66105214780E+02  0.16649378490E+03  0.12509000000E+03 0.  0.
         25    1    4    4    0    0 -0.46372172260E+02  0.38547908229E+01  0.26273557727E+02  0.13602590087E+03  0.12509000000E+03 0.  0.
<mgrwt>
<rscale>  2 0.43752386E+03</rscale>
<asrwt>0</asrwt>
<pdfrwt beam="1">  1       21 0.27120795E-01 0.43752386E+03</pdfrwt>
<pdfrwt beam="2">  1       21 0.38161307E-01 0.43752386E+03</pdfrwt>
<totfact> 0.79941624E+04</totfact>
</mgrwt>
</event>
<event>
 7    0  0.4725730E-002  0.4414038E+03  0.7546771E-02  0.1030317E+00
         21   -1    0    0  502  501  0.00000000000E+00  0.00000000000E+00  0.48137461953E+03  0.48137461953E+03  0.00000000000E+00 0. -1.
         21   -1    0    0  501  502 -0.00000000000E+00 -0.00000000000E+00 -0.10118798177E+03  0.10118798177E+03  0.00000000000E+00 0. -1.
      99926    2    1    2    0    0 -0.35527136788E-14 -0.35527136788E-14  0.38018663776E+03  0.58256260130E+03  0.44140378896E+03 0.  0.
      99925    2    3    3    0    0  0.22163141061E+02  0.13600966169E+02  0.36968111764E+03  0.45436718346E+03  0.26288632061E+03 0.  0.
         25    1    3    3    0    0 -0.22163141061E+02 -0.13600966169E+02  0.10505520120E+02  0.12819541784E+03  0.12509000000E+03 0.  0.
         25    1    4    4    0    0  0.37524945703E+02 -0.23646378510E+02  0.18233026847E+03  0.22551963920E+03  0.12509000000E+03 0.  0.
         25    1    4    4    0    0 -0.15361804641E+02  0.37247344679E+02  0.18735084917E+03  0.22884754426E+03  0.12509000000E+03 0.  0.
<mgrwt>
<rscale>  2 0.44140379E+03</rscale>
<asrwt>0</asrwt>
<pdfrwt beam="1">  1       21 0.70790384E-01 0.44140379E+03</pdfrwt>
<pdfrwt beam="2">  1       21 0.14880586E-01 0.44140379E+03</pdfrwt>
<totfact> 0.66643512E+04</totfact>
</mgrwt>
</event>
<event>
 7    0  0.4725730E-002  0.4539183E+03  0.7546771E-02  0.1026560E+00
         21   -1    0    0  502  501  0.00000000000E+00  0.00000000000E+00  0.49320078686E+03  0.49320078686E+03  0.00000000000E+00 0.  1.
         21   -1    0    0  501  502 -0.00000000000E+00 -0.00000000000E+00 -0.10444116622E+03  0.10444116622E+03  0.00000000000E+00 0.  1.
      99926    2    1    2    0    0  0.00000000000E+00  0.00000000000E+00  0.38875962064E+03  0.59764195309E+03  0.45391834227E+03 0.  0.
      99925    2    3    3    0    0  0.31910690623E+02  0.71470576086E+02  0.35063991662E+03  0.44523803136E+03  0.26298710619E+03 0.  0.
         25    1    3    3    0    0 -0.31910690623E+02 -0.71470576086E+02  0.38119704021E+02  0.15240392172E+03  0.12509000000E+03 0.  0.
         25    1    4    4    0    0  0.38419059221E+02  0.65401026159E+02  0.21954570024E+03  0.26382028150E+03  0.12509000000E+03 0.  0.
         25    1    4    4    0    0 -0.65083685979E+01  0.60695499275E+01  0.13109421638E+03  0.18141774987E+03  0.12509000000E+03 0.  0.
<mgrwt>
<rscale>  2 0.45391834E+03</rscale>
<asrwt>0</asrwt>
<pdfrwt beam="1">  1       21 0.72529527E-01 0.45391834E+03</pdfrwt>
<pdfrwt beam="2">  1       21 0.15358995E-01 0.45391834E+03</pdfrwt>
<totfact> 0.59329108E+04</totfact>
</mgrwt>
</event>
<event>
 7    0  0.4725730E-002  0.4512556E+03  0.7546771E-02  0.1027348E+00
         21   -1    0    0  502  501  0.00000000000E+00  0.00000000000E+00  0.19232931459E+03  0.19232931459E+03  0.00000000000E+00 0.  1.
         21   -1    0    0  501  502 -0.00000000000E+00 -0.00000000000E+00 -0.26469129214E+03  0.26469129214E+03  0.00000000000E+00 0.  1.
      99926    2    1    2    0    0  0.00000000000E+00  0.00000000000E+00 -0.72361977556E+02  0.45702060673E+03  0.45125555862E+03 0.  0.
      99925    2    3    3    0    0  0.76537701753E+02 -0.76161781954E+02 -0.27957261894E+02  0.28591267678E+03  0.26325997309E+03 0.  0.
         25    1    4    4    0    0  0.61197025471E+02 -0.60495491993E+02 -0.43574347087E+02  0.15795889434E+03  0.12509000000E+03 0.  0.
         25    1    4    4    0    0  0.15340676282E+02 -0.15666289961E+02  0.15617085193E+02  0.12795378244E+03  0.12509000000E+03 0.  0.
         25    1    3    3    0    0 -0.76537701753E+02  0.76161781954E+02 -0.44404715661E+02  0.17110792995E+03  0.12509000000E+03 0.  0.
<mgrwt>
<rscale>  2 0.45125556E+03</rscale>
<asrwt>0</asrwt>
<pdfrwt beam="1">  1       21 0.28283723E-01 0.45125556E+03</pdfrwt>
<pdfrwt beam="2">  1       21 0.38925190E-01 0.45125556E+03</pdfrwt>
<totfact> 0.70479336E+04</totfact>
</mgrwt>
</event>
<event>
 7    0  0.4725730E-002  0.4647111E+03  0.7546771E-02  0.1023424E+00
         21   -1    0    0  502  501  0.00000000000E+00  0.00000000000E+00  0.72714761019E+03  0.72714761019E+03  0.00000000000E+00 0. -1.
         21   -1    0    0  501  502 -0.00000000000E+00 -0.00000000000E+00 -0.74247802117E+02  0.74247802117E+02  0.00000000000E+00 0. -1.
      99926    2    1    2    0    0  0.00000000000E+00  0.00000000000E+00  0.65289980808E+03  0.80139541231E+03  0.46471114414E+03 0.  0.
      99925    2    3    3    0    0  0.50685545618E+02 -0.10954726558E+03  0.37605826116E+03  0.47450341466E+03  0.26299058311E+03 0.  0.
         25    1    4    4    0    0  0.39149634959E+02 -0.30640212141E+02  0.22891649930E+03  0.26555938747E+03  0.12509000000E+03 0.  0.
         25    1    3    3    0    0 -0.50685545618E+02  0.10954726558E+03  0.27684154692E+03  0.32689199766E+03  0.12509000000E+03 0.  0.
         25    1    4    4    0    0  0.11535910659E+02 -0.78907053438E+02  0.14714176185E+03  0.20894402719E+03  0.12509000000E+03 0.  0.
<mgrwt>
<rscale>  2 0.46471114E+03</rscale>
<asrwt>0</asrwt>
<pdfrwt beam="1">  1       21 0.10693347E+00 0.46471114E+03</pdfrwt>
<pdfrwt beam="2">  1       21 0.10918795E-01 0.46471114E+03</pdfrwt>
<totfact> 0.44229121E+04</totfact>
</mgrwt>
</event>
<event>
 7    0  0.4725730E-002  0.4556632E+03  0.7546771E-02  0.1026047E+00
         21   -1    0    0  502  501  0.00000000000E+00  0.00000000000E+00  0.25358159290E+02  0.25358159290E+02  0.00000000000E+00 0.  1.
         21   -1    0    0  501  502 -0.00000000000E+00 -0.00000000000E+00 -0.20469636750E+04  0.20469636750E+04  0.00000000000E+00 0.  1.
      99926    2    1    2    0    0  0.00000000000E+00  0.35527136788E-14 -0.20216055157E+04  0.20723218343E+04  0.45566316915E+03 0.  0.
      99925    2    3    3    0    0  0.11236494168E+03  0.17840460509E+02 -0.12508134181E+04  0.12832007231E+04  0.26291771895E+03 0.  0.
         25    1    4    4    0    0  0.75816118830E+02 -0.17807637565E+02 -0.75874974223E+03  0.77292553021E+03  0.12509000000E+03 0.  0.
         25    1    3    3    0    0 -0.11236494168E+03 -0.17840460509E+02 -0.77079209762E+03  0.78912111112E+03  0.12509000000E+03 0.  0.
         25    1    4    4    0    0  0.36548822845E+02  0.35648098074E+02 -0.49206367583E+03  0.51027519293E+03  0.12509000000E+03 0.  0.
<mgrwt>
<rscale>  2 0.45566317E+03</rscale>
<asrwt>0</asrwt>
<pdfrwt beam="1">  1       21 0.37291388E-02 0.45566317E+03</pdfrwt>
<pdfrwt beam="2">  1       21 0.30102425E+00 0.45566317E+03</pdfrwt>
<totfact> 0.12500323E+04</totfact>
</mgrwt>
</event>
<event>
 7    0  0.4725730E-002  0.4582734E+03  0.7546771E-02  0.1025283E+00
         21   -1    0    0  502  501  0.00000000000E+00  0.00000000000E+00  0.13960756011E+04  0.13960756011E+04  0.00000000000E+00 0.  1.
         21   -1    0    0  501  502 -0.00000000000E+00 -0.00000000000E+00 -0.37608017958E+02  0.37608017958E+02  0.00000000000E+00 0.  1.
      99926    2    1    2    0    0  0.00000000000E+00  0.00000000000E+00  0.13584675831E+04  0.14336836190E+04  0.45827343923E+03 0.  0.
      99925    2    3    3    0    0  0.85593440122E+02 -0.77827486313E+02  0.88438281481E+03  0.92991062426E+03  0.26309209674E+03 0.  0.
         25    1    4    4    0    0  0.63831850434E+02 -0.70804593971E+02  0.42178246297E+03  0.45015080787E+03  0.12509000000E+03 0.  0.
         25    1    3    3    0    0 -0.85593440122E+02  0.77827486313E+02  0.47408476830E+03  0.50377299476E+03  0.12509000000E+03 0.  0.
         25    1    4    4    0    0  0.21761589688E+02 -0.70228923419E+01  0.46260035184E+03  0.47975981639E+03  0.12509000000E+03 0.  0.
<mgrwt>
<rscale>  2 0.45827344E+03</rscale>
<asrwt>0</asrwt>
<pdfrwt beam="1">  1       21 0.20530520E+00 0.45827344E+03</pdfrwt>
<pdfrwt beam="2">  1       21 0.55305918E-02 0.45827344E+03</pdfrwt>
<totfact> 0.24810998E+04</totfact>
</mgrwt>
</event>
<event>
 7    0  0.4725730E-002  0.4577256E+03  0.7546771E-02  0.1025443E+00
         21   -1    0    0  502  501  0.00000000000E+00  0.00000000000E+00  0.30183213768E+03  0.30183213768E+03  0.00000000000E+00 0.  1.
         21   -1    0    0  501  502 -0.00000000000E+00 -0.00000000000E+00 -0.17353415215E+03  0.17353415215E+03  0.00000000000E+00 0.  1.
      99926    2    1    2    0    0  0.17763568394E-14  0.00000000000E+00  0.12829798553E+03  0.47536628983E+03  0.45772561259E+03 0.  0.
      99925    2    3    3    0    0  0.91415628510E+01  0.10821807543E+03  0.38790180869E+02  0.28707429527E+03  0.26289209355E+03 0.  0.
         25    1    4    4    0    0 -0.34285069305E+02  0.43867507679E+02  0.25262317284E+02  0.13923188206E+03  0.12509000000E+03 0.  0.
         25    1    3    3    0    0 -0.91415628510E+01 -0.10821807543E+03  0.89507804660E+02  0.18829199456E+03  0.12509000000E+03 0.  0.
         25    1    4    4    0    0  0.43426632156E+02  0.64350567752E+02  0.13527863585E+02  0.14784241321E+03  0.12509000000E+03 0.  0.
<mgrwt>
<rscale>  2 0.45772561E+03</rscale>
<asrwt>0</asrwt>
<pdfrwt beam="1">  1       21 0.44387079E-01 0.45772561E+03</pdfrwt>
<pdfrwt beam="2">  1       21 0.25519728E-01 0.45772561E+03</pdfrwt>
<totfact> 0.65608464E+04</totfact>
</mgrwt>
</event>
<event>
 7    0  0.4725730E-002  0.4663562E+03  0.7546771E-02  0.1022954E+00
         21   -1    0    0  502  501  0.00000000000E+00  0.00000000000E+00  0.44643179119E+03  0.44643179119E+03  0.00000000000E+00 0.  1.
         21   -1    0    0  501  502 -0.00000000000E+00 -0.00000000000E+00 -0.12179246560E+03  0.12179246560E+03  0.00000000000E+00 0.  1.
      99926    2    1    2    0    0  0.00000000000E+00  0.00000000000E+00  0.32463932558E+03  0.56822425679E+03  0.46635620966E+03 0.  0.
      99925    2    3    3    0    0 -0.22193254444E+02  0.12019431908E+03  0.22422534662E+03  0.36655698093E+03  0.26295969143E+03 0.  0.
         25    1    3    3    0    0  0.22193254444E+02 -0.12019431908E+03  0.10041397896E+03  0.20166727586E+03  0.12509000000E+03 0.  0.
         25    1    4    4    0    0 -0.46393116247E+01  0.40780632489E+02  0.15106200782E+03  0.20037919430E+03  0.12509000000E+03 0.  0.
         25    1    4    4    0    0 -0.17553942819E+02  0.79413686595E+02  0.73163338798E+02  0.16617778664E+03  0.12509000000E+03 0.  0.
<mgrwt>
<rscale>  2 0.46635621E+03</rscale>
<asrwt>0</asrwt>
<pdfrwt beam="1">  1       21 0.65651734E-01 0.46635621E+03</pdfrwt>
<pdfrwt beam="2">  1       21 0.17910657E-01 0.46635621E+03</pdfrwt>
<totfact> 0.55521132E+04</totfact>
</mgrwt>
</event>
<event>
 7    0  0.4725730E-002  0.4559708E+03  0.7546771E-02  0.1025956E+00
         21   -1    0    0  502  501  0.00000000000E+00  0.00000000000E+00  0.58300238773E+02  0.58300238773E+02  0.00000000000E+00 0. -1.
         21   -1    0    0  501  502 -0.00000000000E+00 -0.00000000000E+00 -0.89154578887E+03  0.89154578887E+03  0.00000000000E+00 0. -1.
      99926    2    1    2    0    0  0.00000000000E+00  0.00000000000E+00 -0.83324555010E+03  0.94984602765E+03  0.45597075506E+03 0.  0.
      99925    2    3    3    0    0 -0.10510320805E+03  0.26272508522E+02 -0.45002199119E+03  0.53241970691E+03  0.26308558056E+03 0.  0.
         25    1    4    4    0    0 -0.53346032596E+02  0.21631855414E+02 -0.15223093225E+03  0.20526933818E+03  0.12509000000E+03 0.  0.
         25    1    3    3    0    0  0.10510320805E+03 -0.26272508522E+02 -0.38322355891E+03  0.41742632074E+03  0.12509000000E+03 0.  0.
         25    1    4    4    0    0 -0.51757175450E+02  0.46406531085E+01 -0.29779105894E+03  0.32715036873E+03  0.12509000000E+03 0.  0.
<mgrwt>
<rscale>  2 0.45597076E+03</rscale>
<asrwt>0</asrwt>
<pdfrwt beam="1">  1       21 0.85735652E-02 0.45597076E+03</pdfrwt>
<pdfrwt beam="2">  1       21 0.13110966E+00 0.45597076E+03</pdfrwt>
<totfact> 0.40836170E+04</totfact>
</mgrwt>
</event>
<event>
 7    0  0.4725730E-002  0.4539142E+03  0.7546771E-02  0.1026561E+00
         21   -1    0    0  502  501  0.00000000000E+00  0.00000000000E+00  0.90677462696E+02  0.90677462696E+02  0.00000000000E+00 0. -1.
         21   -1    0    0  501  502 -0.00000000000E+00 -0.00000000000E+00 -0.56805200379E+03  0.56805200379E+03  0.00000000000E+00 0. -1.
      99926    2    1    2    0    0  0.00000000000E+00 -0.14210854715E-13 -0.47737454110E+03  0.65872946649E+03  0.45391415216E+03 0.  0.
      99925    2    3    3    0    0  0.38327703906E+02 -0.94329601159E+02 -0.23245448542E+03  0.36547117025E+03  0.26299620140E+03 0.  0.
         25    1    4    4    0    0  0.53897751026E+02 -0.28553471535E+02 -0.10244403680E+03  0.17280786174E+03  0.12509000000E+03 0.  0.
         25    1    3    3    0    0 -0.38327703906E+02  0.94329601159E+02 -0.24492005568E+03  0.29325829624E+03  0.12509000000E+03 0.  0.
         25    1    4    4    0    0 -0.15570047120E+02 -0.65776129624E+02 -0.13001044862E+03  0.19266330851E+03  0.12509000000E+03 0.  0.
<mgrwt>
<rscale>  2 0.45391415E+03</rscale>
<asrwt>0</asrwt>
<pdfrwt beam="1">  1       21 0.13334921E-01 0.45391415E+03</pdfrwt>
<pdfrwt beam="2">  1       21 0.83537058E-01 0.45391415E+03</pdfrwt>
<totfact> 0.55676302E+04</totfact>
</mgrwt>
</event>
<event>
 6    0  0.4725730E-002  0.4528747E+03  0.7546771E-02  0.1026868E+00
         21   -1    0    0  502  501  0.00000000000E+00  0.00000000000E+00  0.91177121680E+02  0.91177121680E+02  0.00000000000E+00 0. -1.
         21   -1    0    0  501  502 -0.00000000000E+00 -0.00000000000E+00 -0.56235471598E+03  0.56235471598E+03  0.00000000000E+00 0. -1.
      99926    2    1    2    0    0  0.00000000000E+00  0.00000000000E+00 -0.47117759430E+03  0.65353183766E+03  0.45287474810E+03 0.  0.
         25    1    3    3    0    0  0.34968604438E+02 -0.91263777288E+02 -0.24093730192E+03  0.28853105881E+03  0.12509000000E+03 0.  0.
         25    1    3    3    0    0 -0.30376173343E+02  0.71086739036E+00 -0.10514239094E+03  0.16620964988E+03  0.12509000000E+03 0.  0.
         25    1    3    3    0    0 -0.45924310956E+01  0.90552909898E+02 -0.12509790144E+03  0.19879112897E+03  0.12509000000E+03 0.  0.
<mgrwt>
<rscale>  2 0.45287475E+03</rscale>
<asrwt>0</asrwt>
<pdfrwt beam="1">  1       21 0.13408400E-01 0.45287475E+03</pdfrwt>
<pdfrwt beam="2">  1       21 0.82699223E-01 0.45287475E+03</pdfrwt>
<totfact> 0.56438672E+04</totfact>
</mgrwt>
</event>
<event>
 7    0  0.4725730E-002  0.4653847E+03  0.7546771E-02  0.1023231E+00
         21   -1    0    0  502  501  0.00000000000E+00  0.00000000000E+00  0.36171670329E+03  0.36171670329E+03  0.00000000000E+00 0.  1.
         21   -1    0    0  501  502 -0.00000000000E+00 -0.00000000000E+00 -0.14969096442E+03  0.14969096442E+03  0.00000000000E+00 0.  1.
      99926    2    1    2    0    0  0.00000000000E+00  0.71054273576E-14  0.21202573887E+03  0.51140766771E+03  0.46538466739E+03 0.  0.
      99925    2    3    3    0    0  0.10941114379E+03 -0.52802312470E+02  0.15117830144E+03  0.32672198518E+03  0.26293248979E+03 0.  0.
         25    1    3    3    0    0 -0.10941114379E+03  0.52802312470E+02  0.60847437433E+02  0.18468568252E+03  0.12509000000E+03 0.  0.
         25    1    4    4    0    0  0.36170504441E+02 -0.35105724313E+02  0.11257851317E+03  0.17567625622E+03  0.12509000000E+03 0.  0.
         25    1    4    4    0    0  0.73240639349E+02 -0.17696588157E+02  0.38599788270E+02  0.15104572897E+03  0.12509000000E+03 0.  0.
<mgrwt>
<rscale>  2 0.46538467E+03</rscale>
<asrwt>0</asrwt>
<pdfrwt beam="1">  1       21 0.53193633E-01 0.46538467E+03</pdfrwt>
<pdfrwt beam="2">  1       21 0.22013377E-01 0.46538467E+03</pdfrwt>
<totfact> 0.59425189E+04</totfact>
</mgrwt>
</event>
<event>
 7    0  0.4725730E-002  0.4179208E+03  0.7546771E-02  0.1037745E+00
         21   -1    0    0  502  501  0.00000000000E+00  0.00000000000E+00  0.97438118523E+02  0.97438118523E+02  0.00000000000E+00 0. -1.
         21   -1    0    0  501  502 -0.00000000000E+00 -0.00000000000E+00 -0.44812485060E+03  0.44812485060E+03  0.00000000000E+00 0. -1.
      99926    2    1    2    0    0  0.17763568394E-14  0.00000000000E+00 -0.35068673208E+03  0.54556296912E+03  0.41792076907E+03 0.  0.
      99925    2    3    3    0    0  0.15152480554E+02  0.17356317441E+02 -0.13875399322E+03  0.29839130141E+03  0.26316127887E+03 0.  0.
         25    1    4    4    0    0 -0.24194381499E+01  0.48087585234E+02 -0.65778045424E+02  0.14930682802E+03  0.12509000000E+03 0.  0.
         25    1    4    4    0    0  0.17571918704E+02 -0.30731267794E+02 -0.72975947794E+02  0.14908447338E+03  0.12509000000E+03 0.  0.
         25    1    3    3    0    0 -0.15152480554E+02 -0.17356317441E+02 -0.21193273886E+03  0.24717166772E+03  0.12509000000E+03 0.  0.
<mgrwt>
<rscale>  2 0.41792077E+03</rscale>
<asrwt>0</asrwt>
<pdfrwt beam="1">  1       21 0.14329135E-01 0.41792077E+03</pdfrwt>
<pdfrwt beam="2">  1       21 0.65900714E-01 0.41792077E+03</pdfrwt>
<totfact> 0.84303804E+04</totfact>
</mgrwt>
</event>
<event>
 7    0  0.4725730E-002  0.4602238E+03  0.7546771E-02  0.1024716E+00
         21   -1    0    0  502  501  0.00000000000E+00  0.00000000000E+00  0.58869386978E+03  0.58869386978E+03  0.00000000000E+00 0. -1.
         21   -1    0    0  501  502 -0.00000000000E+00 -0.00000000000E+00 -0.89947423945E+02  0.89947423945E+02  0.00000000000E+00 0. -1.
      99926    2    1    2    0    0 -0.11102230246E-14  0.00000000000E+00  0.49874644584E+03  0.67864129373E+03  0.46022384588E+03 0.  0.
      99925    2    3    3    0    0 -0.13855353330E+01  0.34969751796E+02  0.47861171548E+03  0.54719655737E+03  0.26292602564E+03 0.  0.
         25    1    3    3    0    0  0.13855353330E+01 -0.34969751796E+02  0.20134730361E+02  0.13144473636E+03  0.12509000000E+03 0.  0.
         25    1    4    4    0    0  0.31944310667E+02  0.27809166494E+02  0.19698448305E+03  0.23715856170E+03  0.12509000000E+03 0.  0.
         25    1    4    4    0    0 -0.33329846000E+02  0.71605853027E+01  0.28162723243E+03  0.31003799567E+03  0.12509000000E+03 0.  0.
<mgrwt>
<rscale>  2 0.46022385E+03</rscale>
<asrwt>0</asrwt>
<pdfrwt beam="1">  1       21 0.86572626E-01 0.46022385E+03</pdfrwt>
<pdfrwt beam="2">  1       21 0.13227563E-01 0.46022385E+03</pdfrwt>
<totfact> 0.51908378E+04</totfact>
</mgrwt>
</event>
<event>
 7    0  0.4725730E-002  0.4531049E+03  0.7546771E-02  0.1026800E+00
         21   -1    0    0  502  501  0.00000000000E+00  0.00000000000E+00  0.10694559592E+03  0.10694559592E+03  0.00000000000E+00 0.  1.
         21   -1    0    0  501  502 -0.00000000000E+00 -0.00000000000E+00 -0.47992640496E+03  0.47992640496E+03  0.00000000000E+00 0.  1.
      99926    2    1    2    0    0  0.00000000000E+00  0.00000000000E+00 -0.37298080903E+03  0.58687200088E+03  0.45310491226E+03 0.  0.
      99925    2    3    3    0    0 -0.68026502266E+02 -0.29023135766E+02 -0.12692983597E+03  0.30111242210E+03  0.26284512562E+03 0.  0.
         25    1    4    4    0    0 -0.57022173217E+02 -0.32005049315E+02 -0.34907794140E+02  0.14540259149E+03  0.12509000000E+03 0.  0.
         25    1    4    4    0    0 -0.11004329049E+02  0.29819135483E+01 -0.92022041828E+02  0.15570983061E+03  0.12509000000E+03 0.  0.
         25    1    3    3    0    0  0.68026502266E+02  0.29023135766E+02 -0.24605097307E+03  0.28575957878E+03  0.12509000000E+03 0.  0.
<mgrwt>
<rscale>  2 0.45310491E+03</rscale>
<asrwt>0</asrwt>
<pdfrwt beam="1">  1       21 0.15727294E-01 0.45310491E+03</pdfrwt>
<pdfrwt beam="2">  1       21 0.70577412E-01 0.45310491E+03</pdfrwt>
<totfact> 0.60393256E+04</totfact>
</mgrwt>
</event>
<event>
 7    0  0.4725730E-002  0.4521879E+03  0.7546771E-02  0.1027072E+00
         21   -1    0    0  502  501  0.00000000000E+00  0.00000000000E+00  0.17537949944E+03  0.17537949944E+03  0.00000000000E+00 0. -1.
         21   -1    0    0  501  502 -0.00000000000E+00 -0.00000000000E+00 -0.29147344853E+03  0.29147344853E+03  0.00000000000E+00 0. -1.
      99926    2    1    2    0    0  0.35527136788E-14  0.00000000000E+00 -0.11609394910E+03  0.46685294797E+03  0.45218787027E+03 0.  0.
      99925    2    3    3    0    0 -0.23154692036E+02  0.90050348555E+02 -0.13700919206E+03  0.30959468738E+03  0.26159538739E+03 0.  0.
         25    1    3    3    0    0  0.23154692036E+02 -0.90050348555E+02  0.20915242965E+02  0.15725826060E+03  0.12509000000E+03 0.  0.
         25    1    4    4    0    0 -0.22513316632E+02  0.67031332172E+01 -0.60322889528E+02  0.14084793403E+03  0.12509000000E+03 0.  0.
         25    1    4    4    0    0 -0.64137540441E+00  0.83347215338E+02 -0.76686302533E+02  0.16874675334E+03  0.12509000000E+03 0.  0.
<mgrwt>
<rscale>  2 0.45218787E+03</rscale>
<asrwt>0</asrwt>
<pdfrwt beam="1">  1       21 0.25791103E-01 0.45218787E+03</pdfrwt>
<pdfrwt beam="2">  1       21 0.42863742E-01 0.45218787E+03</pdfrwt>
<totfact> 0.69201419E+04</totfact>
</mgrwt>
</event>
<event>
 7    0  0.4725730E-002  0.3961443E+03  0.7546771E-02  0.1045123E+00
         21   -1    0    0  502  501  0.00000000000E+00  0.00000000000E+00  0.45685892419E+03  0.45685892419E+03  0.00000000000E+00 0.  1.
         21   -1    0    0  501  502 -0.00000000000E+00 -0.00000000000E+00 -0.85874595925E+02  0.85874595925E+02  0.00000000000E+00 0.  1.
      99926    2    1    2    0    0  0.10096090630E-14  0.00000000000E+00  0.37098432826E+03  0.54273352011E+03  0.39614429447E+03 0.  0.
      99925    2    3    3    0    0  0.23103263536E-01  0.26659014782E+02  0.28392960936E+03  0.38801850537E+03  0.26311904879E+03 0.  0.
         25    1    4    4    0    0 -0.13814910606E+02 -0.20018253900E+02  0.11019147822E+03  0.16846736247E+03  0.12509000000E+03 0.  0.
         25    1    3    3    0    0 -0.23103263536E-01 -0.26659014782E+02  0.87054718904E+02  0.15471501474E+03  0.12509000000E+03 0.  0.
         25    1    4    4    0    0  0.13838013869E+02  0.46677268682E+02  0.17373813113E+03  0.21955114290E+03  0.12509000000E+03 0.  0.
<mgrwt>
<rscale>  2 0.39614429E+03</rscale>
<asrwt>0</asrwt>
<pdfrwt beam="1">  1       21 0.67185135E-01 0.39614429E+03</pdfrwt>
<pdfrwt beam="2">  1       21 0.12628617E-01 0.39614429E+03</pdfrwt>
<totfact> 0.10229967E+05</totfact>
</mgrwt>
</event>
<event>
 7    0  0.4725730E-002  0.4508052E+03  0.7546771E-02  0.1027482E+00
         21   -1    0    0  502  501  0.00000000000E+00  0.00000000000E+00  0.25004874254E+03  0.25004874254E+03  0.00000000000E+00 0. -1.
         21   -1    0    0  501  502 -0.00000000000E+00 -0.00000000000E+00 -0.20318573541E+03  0.20318573541E+03  0.00000000000E+00 0. -1.
      99926    2    1    2    0    0  0.00000000000E+00  0.00000000000E+00  0.46863007135E+02  0.45323447795E+03  0.45080522464E+03 0.  0.
      99925    2    3    3    0    0  0.72750580380E+02  0.53094896140E+02 -0.32444247183E+02  0.27988839744E+03  0.26300792936E+03 0.  0.
         25    1    4    4    0    0 -0.15196182475E+01  0.30858663125E+02  0.15002588595E+01  0.12885777123E+03  0.12509000000E+03 0.  0.
         25    1    3    3    0    0 -0.72750580380E+02 -0.53094896140E+02  0.79307254318E+02  0.17334608051E+03  0.12509000000E+03 0.  0.
         25    1    4    4    0    0  0.74270198627E+02  0.22236233015E+02 -0.33944506043E+02  0.15103062621E+03  0.12509000000E+03 0.  0.
<mgrwt>
<rscale>  2 0.45080522E+03</rscale>
<asrwt>0</asrwt>
<pdfrwt beam="1">  1       21 0.36771874E-01 0.45080522E+03</pdfrwt>
<pdfrwt beam="2">  1       21 0.29880255E-01 0.45080522E+03</pdfrwt>
<totfact> 0.71022700E+04</totfact>
</mgrwt>
</event>
<event>
 7    0  0.4725730E-002  0.4502337E+03  0.7546771E-02  0.1027652E+00
         21   -1    0    0  502  501  0.00000000000E+00  0.00000000000E+00  0.16310386897E+04  0.16310386897E+04  0.00000000000E+00 0. -1.
         21   -1    0    0  501  502 -0.00000000000E+00 -0.00000000000E+00 -0.31070748133E+02  0.31070748133E+02  0.00000000000E+00 0. -1.
      99926    2    1    2    0    0  0.00000000000E+00  0.00000000000E+00  0.15999679416E+04  0.16621094379E+04  0.45023368299E+03 0.  0.
      99925    2    3    3    0    0 -0.69247942987E+02  0.82062120054E+02  0.94992764541E+03  0.99149079518E+03  0.26298668454E+03 0.  0.
         25    1    3    3    0    0  0.69247942987E+02 -0.82062120054E+02  0.65004029619E+03  0.67061864269E+03  0.12509000000E+03 0.  0.
         25    1    4    4    0    0 -0.41495156701E+02  0.82039986701E+02  0.48582550055E+03  0.51002581555E+03  0.12509000000E+03 0.  0.
         25    1    4    4    0    0 -0.27752786286E+02  0.22133353134E-01  0.46410214487E+03  0.48146497963E+03  0.12509000000E+03 0.  0.
<mgrwt>
<rscale>  2 0.45023368E+03</rscale>
<asrwt>0</asrwt>
<pdfrwt beam="1">  1       21 0.23985857E+00 0.45023368E+03</pdfrwt>
<pdfrwt beam="2">  1       21 0.45692288E-02 0.45023368E+03</pdfrwt>
<totfact> 0.20821965E+04</totfact>
</mgrwt>
</event>
<event>
 7    0  0.4725730E-002  0.4247661E+03  0.7546771E-02  0.1035526E+00
         21   -1    0    0  502  501  0.00000000000E+00  0.00000000000E+00  0.35582688195E+03  0.35582688195E+03  0.00000000000E+00 0.  1.
         21   -1    0    0  501  502 -0.00000000000E+00 -0.00000000000E+00 -0.12676547149E+03  0.12676547149E+03  0.00000000000E+00 0.  1.
      99926    2    1    2    0    0  0.71054273576E-14  0.00000000000E+00  0.22906141046E+03  0.48259235344E+03  0.42476611192E+03 0.  0.
      99925    2    3    3    0    0  0.49610918350E+02 -0.53245386911E+02  0.10568658001E+03  0.29242092726E+03  0.26276230905E+03 0.  0.
         25    1    3    3    0    0 -0.49610918350E+02  0.53245386911E+02  0.12337483045E+03  0.19017142618E+03  0.12509000000E+03 0.  0.
         25    1    4    4    0    0  0.64106748031E+02 -0.36518974984E+02  0.64207875744E+02  0.15878749977E+03  0.12509000000E+03 0.  0.
         25    1    4    4    0    0 -0.14495829681E+02 -0.16726411926E+02  0.41478704269E+02  0.13363342749E+03  0.12509000000E+03 0.  0.
<mgrwt>
<rscale>  2 0.42476611E+03</rscale>
<asrwt>0</asrwt>
<pdfrwt beam="1">  1       21 0.52327483E-01 0.42476611E+03</pdfrwt>
<pdfrwt beam="2">  1       21 0.18641981E-01 0.42476611E+03</pdfrwt>
<totfact> 0.85193092E+04</totfact>
</mgrwt>
</event>
<event>
 7    0  0.4725730E-002  0.4541448E+03  0.7546771E-02  0.1026493E+00
         21   -1    0    0  502  501  0.00000000000E+00  0.00000000000E+00  0.21211275323E+04  0.21211275323E+04  0.00000000000E+00 0. -1.
         21   -1    0    0  501  502 -0.00000000000E+00 -0.00000000000E+00 -0.24308714443E+02  0.24308714443E+02  0.00000000000E+00 0. -1.
      99926    2    1    2    0    0  0.00000000000E+00 -0.71054273576E-14  0.20968188179E+04  0.21454362468E+04  0.45414483804E+03 0.  0.
      99925    2    3    3    0    0  0.94716292158E+02  0.35549669165E+02  0.15509240063E+04  0.15763285167E+04  0.26308052828E+03 0.  0.
         25    1    4    4    0    0  0.63178430572E+02 -0.48781901708E+01  0.62140877335E+03  0.63703350189E+03  0.12509000000E+03 0.  0.
         25    1    4    4    0    0  0.31537861586E+02  0.40427859335E+02  0.92951523294E+03  0.93929501483E+03  0.12509000000E+03 0.  0.
         25    1    3    3    0    0 -0.94716292158E+02 -0.35549669165E+02  0.54589481161E+03  0.56910773007E+03  0.12509000000E+03 0.  0.
<mgrwt>
<rscale>  2 0.45414484E+03</rscale>
<asrwt>0</asrwt>
<pdfrwt beam="1">  1       21 0.31193039E+00 0.45414484E+03</pdfrwt>
<pdfrwt beam="2">  1       21 0.35748124E-02 0.45414484E+03</pdfrwt>
<totfact> 0.11553865E+04</totfact>
</mgrwt>
</event>
<event>
 7    0  0.4725730E-002  0.4440952E+03  0.7546771E-02  0.1029498E+00
         21   -1    0    0  502  501  0.00000000000E+00  0.00000000000E+00  0.13565516067E+04  0.13565516067E+04  0.00000000000E+00 0.  1.
         21   -1    0    0  501  502 -0.00000000000E+00 -0.00000000000E+00 -0.36345943216E+02  0.36345943216E+02  0.00000000000E+00 0.  1.
      99926    2    1    2    0    0 -0.71054273576E-14 -0.35527136788E-14  0.13202056634E+04  0.13928975499E+04  0.44409524953E+03 0.  0.
      99925    2    3    3    0    0 -0.49854564013E+02 -0.28127982979E+02  0.57148783930E+03  0.63164690175E+03  0.26287410874E+03 0.  0.
         25    1    4    4    0    0 -0.32097107241E+01  0.12534432891E+02  0.21903208309E+03  0.25256677488E+03  0.12509000000E+03 0.  0.
         25    1    4    4    0    0 -0.46644853289E+02 -0.40662415870E+02  0.35245575621E+03  0.37908012687E+03  0.12509000000E+03 0.  0.
         25    1    3    3    0    0  0.49854564013E+02  0.28127982979E+02  0.74871782413E+03  0.76125064811E+03  0.12509000000E+03 0.  0.
<mgrwt>
<rscale>  2 0.44409525E+03</rscale>
<asrwt>0</asrwt>
<pdfrwt beam="1">  1       21 0.19949285E+00 0.44409525E+03</pdfrwt>
<pdfrwt beam="2">  1       21 0.53449925E-02 0.44409525E+03</pdfrwt>
<totfact> 0.28894098E+04</totfact>
</mgrwt>
</event>
<event>
 7    0  0.4725730E-002  0.4526846E+03  0.7546771E-02  0.1026924E+00
         21   -1    0    0  502  501  0.00000000000E+00  0.00000000000E+00  0.55852479369E+02  0.55852479369E+02  0.00000000000E+00 0. -1.
         21   -1    0    0  501  502 -0.00000000000E+00 -0.00000000000E+00 -0.91725263039E+03  0.91725263039E+03  0.00000000000E+00 0. -1.
      99926    2    1    2    0    0  0.00000000000E+00  0.88817841970E-15 -0.86140015102E+03  0.97310510976E+03  0.45268458606E+03 0.  0.
      99925    2    3    3    0    0 -0.56463195596E+02  0.46628878057E+01 -0.33778383978E+03  0.43178137624E+03  0.26292089964E+03 0.  0.
         25    1    4    4    0    0 -0.15493080626E+01 -0.19326909678E+02 -0.12588320351E+03  0.17852176008E+03  0.12509000000E+03 0.  0.
         25    1    4    4    0    0 -0.54913887533E+02  0.23989797484E+02 -0.21190063627E+03  0.25325961616E+03  0.12509000000E+03 0.  0.
         25    1    3    3    0    0  0.56463195596E+02 -0.46628878057E+01 -0.52361631124E+03  0.54132373352E+03  0.12509000000E+03 0.  0.
<mgrwt>
<rscale>  2 0.45268459E+03</rscale>
<asrwt>0</asrwt>
<pdfrwt beam="1">  1       21 0.82136003E-02 0.45268459E+03</pdfrwt>
<pdfrwt beam="2">  1       21 0.13489009E+00 0.45268459E+03</pdfrwt>
<totfact> 0.40955418E+04</totfact>
</mgrwt>
</event>
<event>
 7    0  0.4725730E-002  0.4528733E+03  0.7546771E-02  0.1026869E+00
         21   -1    0    0  502  501  0.00000000000E+00  0.00000000000E+00  0.99003580109E+03  0.99003580109E+03  0.00000000000E+00 0. -1.
         21   -1    0    0  501  502 -0.00000000000E+00 -0.00000000000E+00 -0.51789601044E+02  0.51789601044E+02  0.00000000000E+00 0. -1.
      99926    2    1    2    0    0  0.22204460493E-15  0.00000000000E+00  0.93824620004E+03  0.10418254021E+04  0.45287331190E+03 0.  0.
      99925    2    3    3    0    0 -0.10072485978E+01 -0.10510832414E+03  0.50791931584E+03  0.58152385996E+03  0.26294332840E+03 0.  0.
         25    1    4    4    0    0  0.18395196172E+02 -0.56986127820E+02  0.32977074495E+03  0.35774579568E+03  0.12509000000E+03 0.  0.
         25    1    3    3    0    0  0.10072485978E+01  0.10510832414E+03  0.43032688420E+03  0.46030154217E+03  0.12509000000E+03 0.  0.
         25    1    4    4    0    0 -0.19402444770E+02 -0.48122196320E+02  0.17814857089E+03  0.22377806428E+03  0.12509000000E+03 0.  0.
<mgrwt>
<rscale>  2 0.45287331E+03</rscale>
<asrwt>0</asrwt>
<pdfrwt beam="1">  1       21 0.14559349E+00 0.45287331E+03</pdfrwt>
<pdfrwt beam="2">  1       21 0.76161184E-02 0.45287331E+03</pdfrwt>
<totfact> 0.38209150E+04</totfact>
</mgrwt>
</event>
<event>
 7    0  0.4725730E-002  0.4070460E+03  0.7546771E-02  0.1041367E+00
         21   -1    0    0  502  501  0.00000000000E+00  0.00000000000E+00  0.18783328017E+03  0.18783328017E+03  0.00000000000E+00 0.  1.
         21   -1    0    0  501  502 -0.00000000000E+00 -0.00000000000E+00 -0.22052331502E+03  0.22052331502E+03  0.00000000000E+00 0.  1.
      99926    2    1    2    0    0 -0.26645352591E-14  0.00000000000E+00 -0.32690034857E+02  0.40835659519E+03  0.40704602990E+03 0.  0.
      99925    2    3    3    0    0 -0.69491637596E+01 -0.33343061234E+02  0.25187789101E+02  0.26637983225E+03  0.26298999924E+03 0.  0.
         25    1    3    3    0    0  0.69491637596E+01  0.33343061234E+02 -0.57877823958E+02  0.14197676294E+03  0.12509000000E+03 0.  0.
         25    1    4    4    0    0  0.26972895746E+02 -0.40893836336E+02  0.24466086171E+02  0.13655013888E+03  0.12509000000E+03 0.  0.
         25    1    4    4    0    0 -0.33922059506E+02  0.75507751022E+01  0.72170293022E+00  0.12982969337E+03  0.12509000000E+03 0.  0.
<mgrwt>
<rscale>  2 0.40704603E+03</rscale>
<asrwt>0</asrwt>
<pdfrwt beam="1">  1       21 0.27622541E-01 0.40704603E+03</pdfrwt>
<pdfrwt beam="2">  1       21 0.32429899E-01 0.40704603E+03</pdfrwt>
<totfact> 0.10782454E+05</totfact>
</mgrwt>
</event>
<event>
 7    0  0.4725730E-002  0.4551909E+03  0.7546771E-02  0.1026185E+00
         21   -1    0    0  502  501  0.00000000000E+00  0.00000000000E+00  0.39527667098E+03  0.39527667098E+03  0.00000000000E+00 0. -1.
         21   -1    0    0  501  502 -0.00000000000E+00 -0.00000000000E+00 -0.13104665300E+03  0.13104665300E+03  0.00000000000E+00 0. -1.
      99926    2    1    2    0    0  0.00000000000E+00  0.00000000000E+00  0.26423001798E+03  0.52632332398E+03  0.45519088190E+03 0.  0.
      99925    2    3    3    0    0 -0.60255680192E+02 -0.76418793537E+02  0.99072128370E+02  0.29742331174E+03  0.26301095176E+03 0.  0.
         25    1    4    4    0    0  0.11684005387E+01 -0.32389537526E+02  0.18501824889E+02  0.13053839636E+03  0.12509000000E+03 0.  0.
         25    1    4    4    0    0 -0.61424080731E+02 -0.44029256011E+02  0.80570303481E+02  0.16688491538E+03  0.12509000000E+03 0.  0.
         25    1    3    3    0    0  0.60255680192E+02  0.76418793537E+02  0.16515788961E+03  0.22890001223E+03  0.12509000000E+03 0.  0.
<mgrwt>
<rscale>  2 0.45519088E+03</rscale>
<asrwt>0</asrwt>
<pdfrwt beam="1">  1       21 0.58128922E-01 0.45519088E+03</pdfrwt>
<pdfrwt beam="2">  1       21 0.19271567E-01 0.45519088E+03</pdfrwt>
<totfact> 0.63360181E+04</totfact>
</mgrwt>
</event>
<event>
 7    0  0.4725730E-002  0.4534082E+03  0.7546771E-02  0.1026711E+00
         21   -1    0    0  502  501  0.00000000000E+00  0.00000000000E+00  0.68184475384E+02  0.68184475384E+02  0.00000000000E+00 0.  1.
         21   -1    0    0  501  502 -0.00000000000E+00 -0.00000000000E+00 -0.75376032492E+03  0.75376032492E+03  0.00000000000E+00 0.  1.
      99926    2    1    2    0    0  0.00000000000E+00  0.00000000000E+00 -0.68557584954E+03  0.82194480031E+03  0.45340821484E+03 0.  0.
      99925    2    3    3    0    0  0.30147948854E+02  0.49055864811E+02 -0.25744633765E+03  0.37221403224E+03  0.26258197261E+03 0.  0.
         25    1    3    3    0    0 -0.30147948854E+02 -0.49055864811E+02 -0.42812951189E+03  0.44973076806E+03  0.12509000000E+03 0.  0.
         25    1    4    4    0    0  0.27134784153E+02  0.81667996134E+01 -0.17470890806E+03  0.21673417770E+03  0.12509000000E+03 0.  0.
         25    1    4    4    0    0  0.30131647007E+01  0.40889065197E+02 -0.82737429588E+02  0.15547985454E+03  0.12509000000E+03 0.  0.
<mgrwt>
<rscale>  2 0.45340821E+03</rscale>
<asrwt>0</asrwt>
<pdfrwt beam="1">  1       21 0.10027128E-01 0.45340821E+03</pdfrwt>
<pdfrwt beam="2">  1       21 0.11084711E+00 0.45340821E+03</pdfrwt>
<totfact> 0.47309757E+04</totfact>
</mgrwt>
</event>
<event>
 7    0  0.4725730E-002  0.4525656E+03  0.7546771E-02  0.1026960E+00
         21   -1    0    0  502  501  0.00000000000E+00  0.00000000000E+00  0.21508995931E+03  0.21508995931E+03  0.00000000000E+00 0.  1.
         21   -1    0    0  501  502 -0.00000000000E+00 -0.00000000000E+00 -0.23805813224E+03  0.23805813224E+03  0.00000000000E+00 0.  1.
      99926    2    1    2    0    0  0.00000000000E+00  0.17763568394E-14 -0.22968172936E+02  0.45314809155E+03  0.45256563713E+03 0.  0.
      99925    2    3    3    0    0  0.80619548378E+01 -0.14111212761E+02 -0.12430208676E+03  0.29134515081E+03  0.26299594423E+03 0.  0.
         25    1    4    4    0    0 -0.23559212460E+01  0.17438506012E+02 -0.96504826820E+02  0.15896647935E+03  0.12509000000E+03 0.  0.
         25    1    4    4    0    0  0.10417876084E+02 -0.31549718772E+02 -0.27797259944E+02  0.13237867146E+03  0.12509000000E+03 0.  0.
         25    1    3    3    0    0 -0.80619548378E+01  0.14111212761E+02  0.10133391383E+03  0.16180294074E+03  0.12509000000E+03 0.  0.
<mgrwt>
<rscale>  2 0.45256564E+03</rscale>
<asrwt>0</asrwt>
<pdfrwt beam="1">  1       21 0.31630876E-01 0.45256564E+03</pdfrwt>
<pdfrwt beam="2">  1       21 0.35008549E-01 0.45256564E+03</pdfrwt>
<totfact> 0.70032114E+04</totfact>
</mgrwt>
</event>
<event>
 7    0  0.4725730E-002  0.4482012E+03  0.7546771E-02  0.1028260E+00
         21   -1    0    0  502  501  0.00000000000E+00  0.00000000000E+00  0.49718110621E+03  0.49718110621E+03  0.00000000000E+00 0. -1.
         21   -1    0    0  501  502 -0.00000000000E+00 -0.00000000000E+00 -0.10101165625E+03  0.10101165625E+03  0.00000000000E+00 0. -1.
      99926    2    1    2    0    0  0.00000000000E+00  0.00000000000E+00  0.39616944996E+03  0.59819276246E+03  0.44820123603E+03 0.  0.
      99925    2    3    3    0    0  0.77821772445E+02 -0.26595337258E+02  0.34149815737E+03  0.43881899246E+03  0.26301630449E+03 0.  0.
         25    1    4    4    0    0 -0.20532352390E+01 -0.44887742280E+01  0.16609472483E+03  0.20798877514E+03  0.12509000000E+03 0.  0.
         25    1    3    3    0    0 -0.77821772445E+02  0.26595337258E+02  0.54671292593E+02  0.15937377000E+03  0.12509000000E+03 0.  0.
         25    1    4    4    0    0  0.79875007684E+02 -0.22106563030E+02  0.17540343254E+03  0.23083021732E+03  0.12509000000E+03 0.  0.
<mgrwt>
<rscale>  2 0.44820124E+03</rscale>
<asrwt>0</asrwt>
<pdfrwt beam="1">  1       21 0.73114868E-01 0.44820124E+03</pdfrwt>
<pdfrwt beam="2">  1       21 0.14854656E-01 0.44820124E+03</pdfrwt>
<totfact> 0.62056741E+04</totfact>
</mgrwt>
</event>
<event>
 7    0  0.4725730E-002  0.4483509E+03  0.7546771E-02  0.1028215E+00
         21   -1    0    0  502  501  0.00000000000E+00  0.00000000000E+00  0.30327059468E+03  0.30327059468E+03  0.00000000000E+00 0.  1.
         21   -1    0    0  501  502 -0.00000000000E+00 -0.00000000000E+00 -0.16570889711E+03  0.16570889711E+03  0.00000000000E+00 0.  1.
      99926    2    1    2    0    0  0.00000000000E+00  0.00000000000E+00  0.13756169756E+03  0.46897949179E+03  0.44835091511E+03 0.  0.
      99925    2    3    3    0    0  0.41083702616E+02 -0.96657375684E+02  0.10694226074E+03  0.30280014017E+03  0.26309838247E+03 0.  0.
         25    1    3    3    0    0 -0.41083702616E+02  0.96657375684E+02  0.30619436827E+02  0.16617935162E+03  0.12509000000E+03 0.  0.
         25    1    4    4    0    0  0.19801588189E+01 -0.84600509178E+02  0.67339108555E+02  0.16535788709E+03  0.12509000000E+03 0.  0.
         25    1    4    4    0    0  0.39103543797E+02 -0.12056866506E+02  0.39603152181E+02  0.13744225307E+03  0.12509000000E+03 0.  0.
<mgrwt>
<rscale>  2 0.44835092E+03</rscale>
<asrwt>0</asrwt>
<pdfrwt beam="1">  1       21 0.44598617E-01 0.44835092E+03</pdfrwt>
<pdfrwt beam="2">  1       21 0.24368955E-01 0.44835092E+03</pdfrwt>
<totfact> 0.71194232E+04</totfact>
</mgrwt>
</event>
<event>
 7    0  0.4725730E-002  0.4516698E+03  0.7546771E-02  0.1027225E+00
         21   -1    0    0  502  501  0.00000000000E+00  0.00000000000E+00  0.63509474649E+03  0.63509474649E+03  0.00000000000E+00 0.  1.
         21   -1    0    0  501  502 -0.00000000000E+00 -0.00000000000E+00 -0.80305189247E+02  0.80305189247E+02  0.00000000000E+00 0.  1.
      99926    2    1    2    0    0  0.00000000000E+00  0.14210854715E-13  0.55478955725E+03  0.71539993574E+03  0.45166980774E+03 0.  0.
      99925    2    3    3    0    0 -0.69417361519E+01  0.96228774303E+02  0.26626541982E+03  0.38645943856E+03  0.26295524174E+03 0.  0.
         25    1    4    4    0    0  0.17968358368E+02  0.13659505512E+02  0.10475727521E+03  0.16471502301E+03  0.12509000000E+03 0.  0.
         25    1    3    3    0    0  0.69417361519E+01 -0.96228774303E+02  0.28852413743E+03  0.32894049718E+03  0.12509000000E+03 0.  0.
         25    1    4    4    0    0 -0.24910094520E+02  0.82569268791E+02  0.16150814461E+03  0.22174441556E+03  0.12509000000E+03 0.  0.
<mgrwt>
<rscale>  2 0.45166981E+03</rscale>
<asrwt>0</asrwt>
<pdfrwt beam="1">  1       21 0.93396284E-01 0.45166981E+03</pdfrwt>
<pdfrwt beam="2">  1       21 0.11809587E-01 0.45166981E+03</pdfrwt>
<totfact> 0.53461658E+04</totfact>
</mgrwt>
</event>
<event>
 7    0  0.4725730E-002  0.4505755E+03  0.7546771E-02  0.1027551E+00
         21   -1    0    0  502  501  0.00000000000E+00  0.00000000000E+00  0.16573454841E+03  0.16573454841E+03  0.00000000000E+00 0.  1.
         21   -1    0    0  501  502 -0.00000000000E+00 -0.00000000000E+00 -0.30624010959E+03  0.30624010959E+03  0.00000000000E+00 0.  1.
      99926    2    1    2    0    0  0.00000000000E+00  0.00000000000E+00 -0.14050556118E+03  0.47197465800E+03  0.45057548210E+03 0.  0.
      99925    2    3    3    0    0  0.86319898573E+02 -0.18605517239E+02 -0.21786034404E+02  0.27822449851E+03  0.26293906160E+03 0.  0.
         25    1    4    4    0    0  0.27283790423E+02 -0.10366654751E+02  0.27118406831E+02  0.13128133470E+03  0.12509000000E+03 0.  0.
         25    1    3    3    0    0 -0.86319898573E+02  0.18605517239E+02 -0.11871952677E+03  0.19375015948E+03  0.12509000000E+03 0.  0.
         25    1    4    4    0    0  0.59036108150E+02 -0.82388624877E+01 -0.48904441234E+02  0.14694316382E+03  0.12509000000E+03 0.  0.
<mgrwt>
<rscale>  2 0.45057548E+03</rscale>
<asrwt>0</asrwt>
<pdfrwt beam="1">  1       21 0.24372728E-01 0.45057548E+03</pdfrwt>
<pdfrwt beam="2">  1       21 0.45035309E-01 0.45057548E+03</pdfrwt>
<totfact> 0.69704564E+04</totfact>
</mgrwt>
</event>
<event>
 7    0  0.4725730E-002  0.4573838E+03  0.7546771E-02  0.1025543E+00
         21   -1    0    0  502  501  0.00000000000E+00  0.00000000000E+00  0.72431090002E+03  0.72431090002E+03  0.00000000000E+00 0.  1.
         21   -1    0    0  501  502 -0.00000000000E+00 -0.00000000000E+00 -0.72206553572E+02  0.72206553572E+02  0.00000000000E+00 0.  1.
      99926    2    1    2    0    0 -0.14210854715E-13  0.26645352591E-14  0.65210434645E+03  0.79651745359E+03  0.45738383795E+03 0.  0.
      99925    2    3    3    0    0  0.94869958734E+02 -0.50392861816E+01  0.52359160304E+03  0.59356736910E+03  0.26296074121E+03 0.  0.
         25    1    4    4    0    0  0.56460472746E+02  0.19410441767E+02  0.19688455658E+03  0.24078120141E+03  0.12509000000E+03 0.  0.
         25    1    4    4    0    0  0.38409485988E+02 -0.24449727949E+02  0.32670704646E+03  0.35278616769E+03  0.12509000000E+03 0.  0.
         25    1    3    3    0    0 -0.94869958734E+02  0.50392861816E+01  0.12851274341E+03  0.20295008449E+03  0.12509000000E+03 0.  0.
<mgrwt>
<rscale>  2 0.45738384E+03</rscale>
<asrwt>0</asrwt>
<pdfrwt beam="1">  1       21 0.10651630E+00 0.45738384E+03</pdfrwt>
<pdfrwt beam="2">  1       21 0.10618611E-01 0.45738384E+03</pdfrwt>
<totfact> 0.47047349E+04</totfact>
</mgrwt>
</event>
<event>
 7    0  0.4725730E-002  0.4707435E+03  0.7546771E-02  0.1021711E+00
         21   -1    0    0  502  501  0.00000000000E+00  0.00000000000E+00  0.31045496921E+03  0.31045496921E+03  0.00000000000E+00 0. -1.
         21   -1    0    0  501  502 -0.00000000000E+00 -0.00000000000E+00 -0.17844731867E+03  0.17844731867E+03  0.00000000000E+00 0. -1.
      99926    2    1    2    0    0  0.35527136788E-14  0.14210854715E-13  0.13200765054E+03  0.48890228788E+03  0.47074348354E+03 0.  0.
      99925    2    3    3    0    0  0.11474160753E+02  0.12195145269E+03  0.44970026933E+02  0.29338535972E+03  0.26277148398E+03 0.  0.
         25    1    3    3    0    0 -0.11474160753E+02 -0.12195145269E+03  0.87037623604E+02  0.19551692817E+03  0.12509000000E+03 0.  0.
         25    1    4    4    0    0 -0.75825741169E+01  0.24696389864E+02  0.56142620118E+00  0.12773108628E+03  0.12509000000E+03 0.  0.
         25    1    4    4    0    0  0.19056734870E+02  0.97255062825E+02  0.44408600732E+02  0.16565427344E+03  0.12509000000E+03 0.  0.
<mgrwt>
<rscale>  2 0.47074348E+03</rscale>
<asrwt>0</asrwt>
<pdfrwt beam="1">  1       21 0.45655143E-01 0.47074348E+03</pdfrwt>
<pdfrwt beam="2">  1       21 0.26242253E-01 0.47074348E+03</pdfrwt>
<totfact> 0.58410280E+04</totfact>
</mgrwt>
</event>
<event>
 7    0  0.4725730E-002  0.4495366E+03  0.7546771E-02  0.1027860E+00
         21   -1    0    0  502  501  0.00000000000E+00  0.00000000000E+00  0.41054563231E+03  0.41054563231E+03  0.00000000000E+00 0.  1.
         21   -1    0    0  501  502 -0.00000000000E+00 -0.00000000000E+00 -0.12305769515E+03  0.12305769515E+03  0.00000000000E+00 0.  1.
      99926    2    1    2    0    0  0.00000000000E+00  0.00000000000E+00  0.28748793716E+03  0.53360332747E+03  0.44953664708E+03 0.  0.
      99925    2    3    3    0    0 -0.10300826725E+03  0.10972761583E+02  0.14579142762E+03  0.31806559635E+03  0.26301992053E+03 0.  0.
         25    1    4    4    0    0 -0.57884143877E+02 -0.16067560336E+02  0.11172459555E+03  0.17815340007E+03  0.12509000000E+03 0.  0.
         25    1    3    3    0    0  0.10300826725E+03 -0.10972761583E+02  0.14169650955E+03  0.21553773112E+03  0.12509000000E+03 0.  0.
         25    1    4    4    0    0 -0.45124123369E+02  0.27040321919E+02  0.34066832069E+02  0.13991219628E+03  0.12509000000E+03 0.  0.
<mgrwt>
<rscale>  2 0.44953665E+03</rscale>
<asrwt>0</asrwt>
<pdfrwt beam="1">  1       21 0.60374357E-01 0.44953665E+03</pdfrwt>
<pdfrwt beam="2">  1       21 0.18096720E-01 0.44953665E+03</pdfrwt>
<totfact> 0.65761110E+04</totfact>
</mgrwt>
</event>
<event>
 7    0  0.4725730E-002  0.4688685E+03  0.7546771E-02  0.1022240E+00
         21   -1    0    0  502  501  0.00000000000E+00  0.00000000000E+00  0.16966907094E+03  0.16966907094E+03  0.00000000000E+00 0. -1.
         21   -1    0    0  501  502 -0.00000000000E+00 -0.00000000000E+00 -0.32392121817E+03  0.32392121817E+03  0.00000000000E+00 0. -1.
      99926    2    1    2    0    0  0.00000000000E+00  0.00000000000E+00 -0.15425214723E+03  0.49359028910E+03  0.46886847684E+03 0.  0.
      99925    2    3    3    0    0  0.47853924744E+02  0.25874172223E+02  0.23431462755E+02  0.26958483324E+03  0.26299710638E+03 0.  0.
         25    1    3    3    0    0 -0.47853924744E+02 -0.25874172223E+02 -0.17768360998E+03  0.22400545587E+03  0.12509000000E+03 0.  0.
         25    1    4    4    0    0  0.19096410837E+02 -0.11571436718E+02  0.43661733420E+02  0.13435931721E+03  0.12509000000E+03 0.  0.
         25    1    4    4    0    0  0.28757513907E+02  0.37445608941E+02 -0.20230270666E+02  0.13522551603E+03  0.12509000000E+03 0.  0.
<mgrwt>
<rscale>  2 0.46886848E+03</rscale>
<asrwt>0</asrwt>
<pdfrwt beam="1">  1       21 0.24951334E-01 0.46886848E+03</pdfrwt>
<pdfrwt beam="2">  1       21 0.47635473E-01 0.46886848E+03</pdfrwt>
<totfact> 0.58960039E+04</totfact>
</mgrwt>
</event>
<event>
 7    0  0.4725730E-002  0.4554929E+03  0.7546771E-02  0.1026097E+00
         21   -1    0    0  502  501  0.00000000000E+00  0.00000000000E+00  0.20737484600E+03  0.20737484600E+03  0.00000000000E+00 0.  1.
         21   -1    0    0  501  502 -0.00000000000E+00 -0.00000000000E+00 -0.25011930184E+03  0.25011930184E+03  0.00000000000E+00 0.  1.
      99926    2    1    2    0    0  0.00000000000E+00  0.00000000000E+00 -0.42744455840E+02  0.45749414784E+03  0.45549292728E+03 0.  0.
      99925    2    3    3    0    0  0.97914267085E+02 -0.50465652323E+02  0.14583150621E+01  0.28505465463E+03  0.26290691067E+03 0.  0.
         25    1    4    4    0    0  0.31579526204E+02 -0.60325198448E+02  0.10685750897E+02  0.14282188003E+03  0.12509000000E+03 0.  0.
         25    1    4    4    0    0  0.66334740882E+02  0.98595461249E+01 -0.92274358351E+01  0.14223277460E+03  0.12509000000E+03 0.  0.
         25    1    3    3    0    0 -0.97914267085E+02  0.50465652323E+02 -0.44202770902E+02  0.17243949321E+03  0.12509000000E+03 0.  0.
<mgrwt>
<rscale>  2 0.45549293E+03</rscale>
<asrwt>0</asrwt>
<pdfrwt beam="1">  1       21 0.30496301E-01 0.45549293E+03</pdfrwt>
<pdfrwt beam="2">  1       21 0.36782250E-01 0.45549293E+03</pdfrwt>
<totfact> 0.68095263E+04</totfact>
</mgrwt>
</event>
<event>
 7    0  0.4725730E-002  0.4577849E+03  0.7546771E-02  0.1025426E+00
         21   -1    0    0  502  501  0.00000000000E+00  0.00000000000E+00  0.73979233440E+02  0.73979233440E+02  0.00000000000E+00 0. -1.
         21   -1    0    0  501  502 -0.00000000000E+00 -0.00000000000E+00 -0.70819550546E+03  0.70819550546E+03  0.00000000000E+00 0. -1.
      99926    2    1    2    0    0  0.00000000000E+00  0.71054273576E-14 -0.63421627202E+03  0.78217473890E+03  0.45778493037E+03 0.  0.
      99925    2    3    3    0    0  0.50836751869E+02 -0.42374543514E+02 -0.23578942336E+03  0.35936102210E+03  0.26298995182E+03 0.  0.
         25    1    3    3    0    0 -0.50836751869E+02  0.42374543514E+02 -0.39842684866E+03  0.42281371680E+03  0.12509000000E+03 0.  0.
         25    1    4    4    0    0  0.34896765106E+02 -0.35073567519E+02 -0.17048695543E+03  0.21716640952E+03  0.12509000000E+03 0.  0.
         25    1    4    4    0    0  0.15939986763E+02 -0.73009759944E+01 -0.65302467927E+02  0.14219461258E+03  0.12509000000E+03 0.  0.
<mgrwt>
<rscale>  2 0.45778493E+03</rscale>
<asrwt>0</asrwt>
<pdfrwt beam="1">  1       21 0.10879299E-01 0.45778493E+03</pdfrwt>
<pdfrwt beam="2">  1       21 0.10414640E+00 0.45778493E+03</pdfrwt>
<totfact> 0.47590291E+04</totfact>
</mgrwt>
</event>
<event>
 7    0  0.4725730E-002  0.4539245E+03  0.7546771E-02  0.1026558E+00
         21   -1    0    0  502  501  0.00000000000E+00  0.00000000000E+00  0.22332726422E+03  0.22332726422E+03  0.00000000000E+00 0.  1.
         21   -1    0    0  501  502 -0.00000000000E+00 -0.00000000000E+00 -0.23065644187E+03  0.23065644187E+03  0.00000000000E+00 0.  1.
      99926    2    1    2    0    0  0.35527136788E-14  0.00000000000E+00 -0.73291776507E+01  0.45398370608E+03  0.45392454058E+03 0.  0.
      99925    2    3    3    0    0  0.23334691714E+02 -0.10375153783E+03  0.30989122702E+02  0.28538747338E+03  0.26301481859E+03 0.  0.
         25    1    4    4    0    0  0.45698111931E+02 -0.43140703822E+02 -0.49783584609E+01  0.14007758533E+03  0.12509000000E+03 0.  0.
         25    1    4    4    0    0 -0.22363420217E+02 -0.60610834007E+02  0.35967481162E+02  0.14530988805E+03  0.12509000000E+03 0.  0.
         25    1    3    3    0    0 -0.23334691714E+02  0.10375153783E+03 -0.38318300352E+02  0.16859623270E+03  0.12509000000E+03 0.  0.
<mgrwt>
<rscale>  2 0.45392454E+03</rscale>
<asrwt>0</asrwt>
<pdfrwt beam="1">  1       21 0.32842245E-01 0.45392454E+03</pdfrwt>
<pdfrwt beam="2">  1       21 0.33920065E-01 0.45392454E+03</pdfrwt>
<totfact> 0.69212320E+04</totfact>
</mgrwt>
</event>
<event>
 7    0  0.4725730E-002  0.4549806E+03  0.7546771E-02  0.1026247E+00
         21   -1    0    0  502  501  0.00000000000E+00  0.00000000000E+00  0.10463111403E+04  0.10463111403E+04  0.00000000000E+00 0.  1.
         21   -1    0    0  501  502 -0.00000000000E+00 -0.00000000000E+00 -0.49461223251E+02  0.49461223251E+02  0.00000000000E+00 0.  1.
      99926    2    1    2    0    0  0.00000000000E+00 -0.71054273576E-14  0.99684991707E+03  0.10957723636E+04  0.45498056619E+03 0.  0.
      99925    2    3    3    0    0  0.62980715247E+02 -0.48926498405E+02  0.82061931201E+03  0.86541371494E+03  0.26299138775E+03 0.  0.
         25    1    4    4    0    0  0.25609301146E+02  0.16571333158E+02  0.38527114344E+03  0.40621645395E+03  0.12509000000E+03 0.  0.
         25    1    3    3    0    0 -0.62980715247E+02  0.48926498405E+02  0.17623060507E+03  0.23035864864E+03  0.12509000000E+03 0.  0.
         25    1    4    4    0    0  0.37371414100E+02 -0.65497831563E+02  0.43534816856E+03  0.45919726099E+03  0.12509000000E+03 0.  0.
<mgrwt>
<rscale>  2 0.45498057E+03</rscale>
<asrwt>0</asrwt>
<pdfrwt beam="1">  1       21 0.15386927E+00 0.45498057E+03</pdfrwt>
<pdfrwt beam="2">  1       21 0.72737099E-02 0.45498057E+03</pdfrwt>
<totfact> 0.35646606E+04</totfact>
</mgrwt>
</event>
<event>
 7    0  0.4725730E-002  0.4587736E+03  0.7546771E-02  0.1025138E+00
         21   -1    0    0  502  501  0.00000000000E+00  0.00000000000E+00  0.40457544931E+03  0.40457544931E+03  0.00000000000E+00 0. -1.
         21   -1    0    0  501  502 -0.00000000000E+00 -0.00000000000E+00 -0.13005806043E+03  0.13005806043E+03  0.00000000000E+00 0. -1.
      99926    2    1    2    0    0  0.26645352591E-14 -0.14210854715E-13  0.27451738889E+03  0.53463350974E+03  0.45877357480E+03 0.  0.
      99925    2    3    3    0    0  0.78958966474E+01 -0.64625675270E+02  0.59411830874E+02  0.27742399927E+03  0.26305035000E+03 0.  0.
         25    1    3    3    0    0 -0.78958966474E+01  0.64625675270E+02  0.21510555801E+03  0.25720951047E+03  0.12509000000E+03 0.  0.
         25    1    4    4    0    0 -0.34102928355E+02 -0.41536233772E+02  0.41141642756E+02  0.14222661954E+03  0.12509000000E+03 0.  0.
         25    1    4    4    0    0  0.41998825003E+02 -0.23089441498E+02  0.18270188118E+02  0.13519737972E+03  0.12509000000E+03 0.  0.
<mgrwt>
<rscale>  2 0.45877357E+03</rscale>
<asrwt>0</asrwt>
<pdfrwt beam="1">  1       21 0.59496389E-01 0.45877357E+03</pdfrwt>
<pdfrwt beam="2">  1       21 0.19126185E-01 0.45877357E+03</pdfrwt>
<totfact> 0.61047617E+04</totfact>
</mgrwt>
</event>
<event>
 7    0  0.4725730E-002  0.4574266E+03  0.7546771E-02  0.1025530E+00
         21   -1    0    0  502  501  0.00000000000E+00  0.00000000000E+00  0.14328634570E+03  0.14328634570E+03  0.00000000000E+00 0. -1.
         21   -1    0    0  501  502 -0.00000000000E+00 -0.00000000000E+00 -0.36507165909E+03  0.36507165909E+03  0.00000000000E+00 0. -1.
      99926    2    1    2    0    0  0.00000000000E+00 -0.14210854715E-13 -0.22178531339E+03  0.50835800479E+03  0.45742664526E+03 0.  0.
      99925    2    3    3    0    0  0.39239059177E+02 -0.10154260308E+03 -0.18165853120E+03  0.33774654341E+03  0.26310131437E+03 0.  0.
         25    1    3    3    0    0 -0.39239059177E+02  0.10154260308E+03 -0.40126782191E+02  0.17061146138E+03  0.12509000000E+03 0.  0.
         25    1    4    4    0    0 -0.12813368494E+01 -0.53684134887E+02 -0.13102027356E+03  0.18893768377E+03  0.12509000000E+03 0.  0.
         25    1    4    4    0    0  0.40520396027E+02 -0.47858468192E+02 -0.50638257636E+02  0.14880885964E+03  0.12509000000E+03 0.  0.
<mgrwt>
<rscale>  2 0.45742665E+03</rscale>
<asrwt>0</asrwt>
<pdfrwt beam="1">  1       21 0.21071521E-01 0.45742665E+03</pdfrwt>
<pdfrwt beam="2">  1       21 0.53687009E-01 0.45742665E+03</pdfrwt>
<totfact> 0.63456374E+04</totfact>
</mgrwt>
</event>
<event>
 7    0  0.4725730E-002  0.4547717E+03  0.7546771E-02  0.1026309E+00
         21   -1    0    0  502  501  0.00000000000E+00  0.00000000000E+00  0.20702924118E+03  0.20702924118E+03  0.00000000000E+00 0.  1.
         21   -1    0    0  501  502 -0.00000000000E+00 -0.00000000000E+00 -0.24974409678E+03  0.24974409678E+03  0.00000000000E+00 0.  1.
      99926    2    1    2    0    0 -0.14210854715E-13  0.00000000000E+00 -0.42714855596E+02  0.45677333796E+03  0.45477172668E+03 0.  0.
      99925    2    3    3    0    0 -0.10295158127E+03  0.34390209337E+02  0.50043111847E+01  0.28441806081E+03  0.26284382359E+03 0.  0.
         25    1    3    3    0    0  0.10295158127E+03 -0.34390209337E+02 -0.47719166781E+02  0.17235527715E+03  0.12509000000E+03 0.  0.
         25    1    4    4    0    0 -0.17787856203E+02  0.39766037037E+02  0.10673537074E+02  0.13288784001E+03  0.12509000000E+03 0.  0.
         25    1    4    4    0    0 -0.85163725069E+02 -0.53758277005E+01 -0.56692258898E+01  0.15153022079E+03  0.12509000000E+03 0.  0.
<mgrwt>
<rscale>  2 0.45477173E+03</rscale>
<asrwt>0</asrwt>
<pdfrwt beam="1">  1       21 0.30445477E-01 0.45477173E+03</pdfrwt>
<pdfrwt beam="2">  1       21 0.36727073E-01 0.45477173E+03</pdfrwt>
<totfact> 0.68540832E+04</totfact>
</mgrwt>
</event>
<event>
 7    0  0.4725730E-002  0.4594462E+03  0.7546771E-02  0.1024942E+00
         21   -1    0    0  502  501  0.00000000000E+00  0.00000000000E+00  0.92342391249E+02  0.92342391249E+02  0.00000000000E+00 0.  1.
         21   -1    0    0  501  502 -0.00000000000E+00 -0.00000000000E+00 -0.57148942506E+03  0.57148942506E+03  0.00000000000E+00 0.  1.
      99926    2    1    2    0    0  0.00000000000E+00  0.35527136788E-14 -0.47914703381E+03  0.66383181631E+03  0.45944618873E+03 0.  0.
      99925    2    3    3    0    0 -0.37022806149E+02 -0.57191507719E+01 -0.13975772077E+03  0.30018911974E+03  0.26301690105E+03 0.  0.
         25    1    4    4    0    0 -0.29857566905E+02  0.35691815201E+02 -0.63824199391E+02  0.14794058436E+03  0.12509000000E+03 0.  0.
         25    1    3    3    0    0  0.37022806149E+02  0.57191507719E+01 -0.33938931304E+03  0.36364269657E+03  0.12509000000E+03 0.  0.
         25    1    4    4    0    0 -0.71652392441E+01 -0.41410965973E+02 -0.75933521380E+02  0.15224853538E+03  0.12509000000E+03 0.  0.
<mgrwt>
<rscale>  2 0.45944619E+03</rscale>
<asrwt>0</asrwt>
<pdfrwt beam="1">  1       21 0.13579764E-01 0.45944619E+03</pdfrwt>
<pdfrwt beam="2">  1       21 0.84042562E-01 0.45944619E+03</pdfrwt>
<totfact> 0.53027156E+04</totfact>
</mgrwt>
</event>
<event>
 7    0  0.4725730E-002  0.4575022E+03  0.7546771E-02  0.1025508E+00
         21   -1    0    0  502  501  0.00000000000E+00  0.00000000000E+00  0.90424740787E+03  0.90424740787E+03  0.00000000000E+00 0.  1.
         21   -1    0    0  501  502 -0.00000000000E+00 -0.00000000000E+00 -0.57868074336E+02  0.57868074336E+02  0.00000000000E+00 0.  1.
      99926    2    1    2    0    0  0.17763568394E-14  0.00000000000E+00  0.84637933354E+03  0.96211548221E+03  0.45750215832E+03 0.  0.
      99925    2    3    3    0    0  0.12482174166E+02 -0.19638687207E+02  0.76932900601E+03  0.81336823423E+03  0.26298152458E+03 0.  0.
         25    1    4    4    0    0 -0.28736793343E+02  0.10254056742E+02  0.35983891172E+03  0.38218123902E+03  0.12509000000E+03 0.  0.
         25    1    3    3    0    0 -0.12482174166E+02  0.19638687207E+02  0.77050327530E+02  0.14874724797E+03  0.12509000000E+03 0.  0.
         25    1    4    4    0    0  0.41218967509E+02 -0.29892743949E+02  0.40949009429E+03  0.43118699521E+03  0.12509000000E+03 0.  0.
<mgrwt>
<rscale>  2 0.45750216E+03</rscale>
<asrwt>0</asrwt>
<pdfrwt beam="1">  1       21 0.13297755E+00 0.45750216E+03</pdfrwt>
<pdfrwt beam="2">  1       21 0.85100115E-02 0.45750216E+03</pdfrwt>
<totfact> 0.39868395E+04</totfact>
</mgrwt>
</event>
<event>
 7    0  0.4725730E-002  0.4646499E+03  0.7546771E-02  0.1023441E+00
         21   -1    0    0  502  501  0.00000000000E+00  0.00000000000E+00  0.69129578918E+03  0.69129578918E+03  0.00000000000E+00 0.  1.
         21   -1    0    0  501  502 -0.00000000000E+00 -0.00000000000E+00 -0.78077834226E+02  0.78077834226E+02  0.00000000000E+00 0.  1.
      99926    2    1    2    0    0  0.14210854715E-13  0.00000000000E+00  0.61321795495E+03  0.76937362340E+03  0.46464988122E+03 0.  0.
      99925    2    3    3    0    0 -0.80946057128E+02  0.10184077223E+02  0.23205030198E+03  0.35999327780E+03  0.26285326290E+03 0.  0.
         25    1    3    3    0    0  0.80946057128E+02 -0.10184077223E+02  0.38116765297E+03  0.40938034560E+03  0.12509000000E+03 0.  0.
         25    1    4    4    0    0 -0.71903340658E+02  0.29701038148E+02  0.13979009850E+03  0.20307885612E+03  0.12509000000E+03 0.  0.
         25    1    4    4    0    0 -0.90427164703E+01 -0.19516960926E+02  0.92260203474E+02  0.15691442168E+03  0.12509000000E+03 0.  0.
<mgrwt>
<rscale>  2 0.46464988E+03</rscale>
<asrwt>0</asrwt>
<pdfrwt beam="1">  1       21 0.10166114E+00 0.46464988E+03</pdfrwt>
<pdfrwt beam="2">  1       21 0.11482035E-01 0.46464988E+03</pdfrwt>
<totfact> 0.45718817E+04</totfact>
</mgrwt>
</event>
<event>
 7    0  0.4725730E-002  0.4183170E+03  0.7546771E-02  0.1037615E+00
         21   -1    0    0  502  501  0.00000000000E+00  0.00000000000E+00  0.89905281773E+03  0.89905281773E+03  0.00000000000E+00 0.  1.
         21   -1    0    0  501  502 -0.00000000000E+00 -0.00000000000E+00 -0.48659307002E+02  0.48659307002E+02  0.00000000000E+00 0.  1.
      99926    2    1    2    0    0  0.00000000000E+00  0.35527136788E-14  0.85039351073E+03  0.94771212473E+03  0.41831704278E+03 0.  0.
      99925    2    3    3    0    0  0.28901269617E+02 -0.19875811546E+02  0.70191797273E+03  0.75042344094E+03  0.26308965961E+03 0.  0.
         25    1    4    4    0    0  0.10694207166E+02 -0.35265721855E+02  0.44444140637E+03  0.46317783734E+03  0.12509000000E+03 0.  0.
         25    1    3    3    0    0 -0.28901269617E+02  0.19875811546E+02  0.14847553799E+03  0.19728868379E+03  0.12509000000E+03 0.  0.
         25    1    4    4    0    0  0.18207062451E+02  0.15389910310E+02  0.25747656637E+03  0.28724560360E+03  0.12509000000E+03 0.  0.
<mgrwt>
<rscale>  2 0.41831704E+03</rscale>
<asrwt>0</asrwt>
<pdfrwt beam="1">  1       21 0.13221364E+00 0.41831704E+03</pdfrwt>
<pdfrwt beam="2">  1       21 0.71557810E-02 0.41831704E+03</pdfrwt>
<totfact> 0.55533152E+04</totfact>
</mgrwt>
</event>
<event>
 7    0  0.4725730E-002  0.4521589E+03  0.7546771E-02  0.1027080E+00
         21   -1    0    0  502  501  0.00000000000E+00  0.00000000000E+00  0.14496416090E+03  0.14496416090E+03  0.00000000000E+00 0.  1.
         21   -1    0    0  501  502 -0.00000000000E+00 -0.00000000000E+00 -0.35258310990E+03  0.35258310990E+03  0.00000000000E+00 0.  1.
      99926    2    1    2    0    0  0.00000000000E+00 -0.59952043330E-14 -0.20761894900E+03  0.49754727080E+03  0.45215888656E+03 0.  0.
      99925    2    3    3    0    0  0.10711814458E+03  0.12288009024E+01 -0.10107136494E+03  0.30139502733E+03  0.26295956883E+03 0.  0.
         25    1    3    3    0    0 -0.10711814458E+03 -0.12288009024E+01 -0.10654758406E+03  0.19615224347E+03  0.12509000000E+03 0.  0.
         25    1    4    4    0    0  0.58946237812E+02  0.33612378319E+02 -0.26959375210E+02  0.14484048792E+03  0.12509000000E+03 0.  0.
         25    1    4    4    0    0  0.48171906766E+02 -0.32383577417E+02 -0.74111989733E+02  0.15655453941E+03  0.12509000000E+03 0.  0.
<mgrwt>
<rscale>  2 0.45215889E+03</rscale>
<asrwt>0</asrwt>
<pdfrwt beam="1">  1       21 0.21318259E-01 0.45215889E+03</pdfrwt>
<pdfrwt beam="2">  1       21 0.51850456E-01 0.45215889E+03</pdfrwt>
<totfact> 0.66940344E+04</totfact>
</mgrwt>
</event>
<event>
 7    0  0.4725730E-002  0.4266828E+03  0.7546771E-02  0.1034913E+00
         21   -1    0    0  502  501  0.00000000000E+00  0.00000000000E+00  0.74912035464E+03  0.74912035464E+03  0.00000000000E+00 0. -1.
         21   -1    0    0  501  502 -0.00000000000E+00 -0.00000000000E+00 -0.60757316374E+02  0.60757316374E+02  0.00000000000E+00 0. -1.
      99926    2    1    2    0    0  0.00000000000E+00  0.14210854715E-13  0.68836303827E+03  0.80987767102E+03  0.42668275048E+03 0.  0.
      99925    2    3    3    0    0  0.25784398045E+02  0.64971160836E+02  0.35699110816E+03  0.44885003899E+03  0.26294033405E+03 0.  0.
         25    1    4    4    0    0 -0.20471355902E+02  0.30658216389E+02  0.13567350204E+03  0.18818557304E+03  0.12509000000E+03 0.  0.
         25    1    4    4    0    0  0.46255753947E+02  0.34312944447E+02  0.22131760612E+03  0.26066446595E+03  0.12509000000E+03 0.  0.
         25    1    3    3    0    0 -0.25784398045E+02 -0.64971160836E+02  0.33137193011E+03  0.36102763202E+03  0.12509000000E+03 0.  0.
<mgrwt>
<rscale>  2 0.42668275E+03</rscale>
<asrwt>0</asrwt>
<pdfrwt beam="1">  1       21 0.11016475E+00 0.42668275E+03</pdfrwt>
<pdfrwt beam="2">  1       21 0.89348999E-02 0.42668275E+03</pdfrwt>
<totfact> 0.59438725E+04</totfact>
</mgrwt>
</event>
<event>
 7    0  0.4725730E-002  0.4593836E+03  0.7546771E-02  0.1024960E+00
         21   -1    0    0  502  501  0.00000000000E+00  0.00000000000E+00  0.10745862068E+03  0.10745862068E+03  0.00000000000E+00 0. -1.
         21   -1    0    0  501  502 -0.00000000000E+00 -0.00000000000E+00 -0.49096406366E+03  0.49096406366E+03  0.00000000000E+00 0. -1.
      99926    2    1    2    0    0  0.00000000000E+00  0.00000000000E+00 -0.38350544297E+03  0.59842268434E+03  0.45938359172E+03 0.  0.
      99925    2    3    3    0    0 -0.11287593422E+03 -0.30897187981E+02 -0.23182769995E+03  0.36962308080E+03  0.26302381384E+03 0.  0.
         25    1    3    3    0    0  0.11287593422E+03  0.30897187981E+02 -0.15167774302E+03  0.22879960354E+03  0.12509000000E+03 0.  0.
         25    1    4    4    0    0 -0.35548660771E+02 -0.26838191576E+02 -0.15346906334E+03  0.20293904826E+03  0.12509000000E+03 0.  0.
         25    1    4    4    0    0 -0.77327273448E+02 -0.40589964043E+01 -0.78358636614E+02  0.16668403254E+03  0.12509000000E+03 0.  0.
<mgrwt>
<rscale>  2 0.45938359E+03</rscale>
<asrwt>0</asrwt>
<pdfrwt beam="1">  1       21 0.15802738E-01 0.45938359E+03</pdfrwt>
<pdfrwt beam="2">  1       21 0.72200597E-01 0.45938359E+03</pdfrwt>
<totfact> 0.56782894E+04</totfact>
</mgrwt>
</event>
<event>
 7    0  0.4725730E-002  0.4542866E+03  0.7546771E-02  0.1026451E+00
         21   -1    0    0  502  501  0.00000000000E+00  0.00000000000E+00  0.25861522692E+03  0.25861522692E+03  0.00000000000E+00 0. -1.
         21   -1    0    0  501  502 -0.00000000000E+00 -0.00000000000E+00 -0.19950130654E+03  0.19950130654E+03  0.00000000000E+00 0. -1.
      99926    2    1    2    0    0  0.71054273576E-14  0.00000000000E+00  0.59113920376E+02  0.45811653346E+03  0.45428658647E+03 0.  0.
      99925    2    3    3    0    0  0.40279588992E+02  0.45137566538E+02  0.13286083452E+03  0.30080804466E+03  0.26300880819E+03 0.  0.
         25    1    3    3    0    0 -0.40279588992E+02 -0.45137566538E+02 -0.73746914142E+02  0.15730848880E+03  0.12509000000E+03 0.  0.
         25    1    4    4    0    0  0.10013591917E+01 -0.53590718350E+01  0.36434952278E+02  0.13040220941E+03  0.12509000000E+03 0.  0.
         25    1    4    4    0    0  0.39278229800E+02  0.50496638373E+02  0.96425882241E+02  0.17040583526E+03  0.12509000000E+03 0.  0.
<mgrwt>
<rscale>  2 0.45428659E+03</rscale>
<asrwt>0</asrwt>
<pdfrwt beam="1">  1       21 0.38031651E-01 0.45428659E+03</pdfrwt>
<pdfrwt beam="2">  1       21 0.29338427E-01 0.45428659E+03</pdfrwt>
<totfact> 0.68708109E+04</totfact>
</mgrwt>
</event>
<event>
 7    0  0.4725730E-002  0.4554706E+03  0.7546771E-02  0.1026103E+00
         21   -1    0    0  502  501  0.00000000000E+00  0.00000000000E+00  0.41465137524E+03  0.41465137524E+03  0.00000000000E+00 0.  1.
         21   -1    0    0  501  502 -0.00000000000E+00 -0.00000000000E+00 -0.12507704410E+03  0.12507704410E+03  0.00000000000E+00 0.  1.
      99926    2    1    2    0    0  0.14210854715E-13  0.00000000000E+00  0.28957433115E+03  0.53972841934E+03  0.45547060650E+03 0.  0.
      99925    2    3    3    0    0  0.10888062897E+03 -0.20402311527E+02  0.21161029536E+03  0.35534527299E+03  0.26309713084E+03 0.  0.
         25    1    3    3    0    0 -0.10888062897E+03  0.20402311527E+02  0.77964035786E+02  0.18438314635E+03  0.12509000000E+03 0.  0.
         25    1    4    4    0    0  0.93655272781E+02 -0.18229970037E+02  0.95885440758E+02  0.18424214441E+03  0.12509000000E+03 0.  0.
         25    1    4    4    0    0  0.15225356189E+02 -0.21723414898E+01  0.11572485460E+03  0.17110312859E+03  0.12509000000E+03 0.  0.
<mgrwt>
<rscale>  2 0.45547061E+03</rscale>
<asrwt>0</asrwt>
<pdfrwt beam="1">  1       21 0.60978143E-01 0.45547061E+03</pdfrwt>
<pdfrwt beam="2">  1       21 0.18393683E-01 0.45547061E+03</pdfrwt>
<totfact> 0.62317993E+04</totfact>
</mgrwt>
</event>
<event>
 7    0  0.4725730E-002  0.4585096E+03  0.7546771E-02  0.1025214E+00
         21   -1    0    0  502  501  0.00000000000E+00  0.00000000000E+00  0.69601369045E+02  0.69601369045E+02  0.00000000000E+00 0. -1.
         21   -1    0    0  501  502 -0.00000000000E+00 -0.00000000000E+00 -0.75512547135E+03  0.75512547135E+03  0.00000000000E+00 0. -1.
      99926    2    1    2    0    0  0.14210854715E-13  0.35527136788E-14 -0.68552410230E+03  0.82472684039E+03  0.45850961432E+03 0.  0.
      99925    2    3    3    0    0 -0.11315941560E+03  0.25575314196E+02 -0.43629313808E+03  0.52269582929E+03  0.26343894471E+03 0.  0.
         25    1    3    3    0    0  0.11315941560E+03 -0.25575314196E+02 -0.24923096423E+03  0.30203101110E+03  0.12509000000E+03 0.  0.
         25    1    4    4    0    0 -0.58617929447E+02 -0.11575521521E+02 -0.27648666715E+03  0.30929345218E+03  0.12509000000E+03 0.  0.
         25    1    4    4    0    0 -0.54541486158E+02  0.37150835717E+02 -0.15980647093E+03  0.21340237711E+03  0.12509000000E+03 0.  0.
<mgrwt>
<rscale>  2 0.45850961E+03</rscale>
<asrwt>0</asrwt>
<pdfrwt beam="1">  1       21 0.10235496E-01 0.45850961E+03</pdfrwt>
<pdfrwt beam="2">  1       21 0.11104786E+00 0.45850961E+03</pdfrwt>
<totfact> 0.45330689E+04</totfact>
</mgrwt>
</event>
<event>
 7    0  0.4725730E-002  0.4563395E+03  0.7546771E-02  0.1025848E+00
         21   -1    0    0  502  501  0.00000000000E+00  0.00000000000E+00  0.13238840422E+03  0.13238840422E+03  0.00000000000E+00 0.  1.
         21   -1    0    0  501  502 -0.00000000000E+00 -0.00000000000E+00 -0.39324767872E+03  0.39324767872E+03  0.00000000000E+00 0.  1.
      99926    2    1    2    0    0  0.00000000000E+00  0.00000000000E+00 -0.26085927450E+03  0.52563608295E+03  0.45633949051E+03 0.  0.
      99925    2    3    3    0    0 -0.45306676998E+02 -0.90960423641E+02 -0.22447486589E+03  0.36041554264E+03  0.26302833366E+03 0.  0.
         25    1    3    3    0    0  0.45306676998E+02  0.90960423641E+02 -0.36384408611E+02  0.16522054031E+03  0.12509000000E+03 0.  0.
         25    1    4    4    0    0 -0.44109622370E+02 -0.53949776181E+02 -0.73726092629E+02  0.16105676630E+03  0.12509000000E+03 0.  0.
         25    1    4    4    0    0 -0.11970546280E+01 -0.37010647460E+02 -0.15074877326E+03  0.19935877634E+03  0.12509000000E+03 0.  0.
<mgrwt>
<rscale>  2 0.45633949E+03</rscale>
<asrwt>0</asrwt>
<pdfrwt beam="1">  1       21 0.19468882E-01 0.45633949E+03</pdfrwt>
<pdfrwt beam="2">  1       21 0.57830543E-01 0.45633949E+03</pdfrwt>
<totfact> 0.62833044E+04</totfact>
</mgrwt>
</event>
<event>
 7    0  0.4725730E-002  0.4537214E+03  0.7546771E-02  0.1026618E+00
         21   -1    0    0  502  501  0.00000000000E+00  0.00000000000E+00  0.20439313567E+03  0.20439313567E+03  0.00000000000E+00 0.  1.
         21   -1    0    0  501  502 -0.00000000000E+00 -0.00000000000E+00 -0.25179791743E+03  0.25179791743E+03  0.00000000000E+00 0.  1.
      99926    2    1    2    0    0  0.00000000000E+00  0.00000000000E+00 -0.47404781761E+02  0.45619105310E+03  0.45372135017E+03 0.  0.
      99925    2    3    3    0    0  0.67841650940E+02  0.75299601050E+02  0.17964990232E+02  0.28242904716E+03  0.26300362409E+03 0.  0.
         25    1    3    3    0    0 -0.67841650940E+02 -0.75299601050E+02 -0.65369771994E+02  0.17376200595E+03  0.12509000000E+03 0.  0.
         25    1    4    4    0    0  0.19656249170E+02 -0.25406994231E+01  0.28468590430E+01  0.12668242179E+03  0.12509000000E+03 0.  0.
         25    1    4    4    0    0  0.48185401770E+02  0.77840300473E+02  0.15118131189E+02  0.15574662536E+03  0.12509000000E+03 0.  0.
<mgrwt>
<rscale>  2 0.45372135E+03</rscale>
<asrwt>0</asrwt>
<pdfrwt beam="1">  1       21 0.30057814E-01 0.45372135E+03</pdfrwt>
<pdfrwt beam="2">  1       21 0.37029105E-01 0.45372135E+03</pdfrwt>
<totfact> 0.69161477E+04</totfact>
</mgrwt>
</event>
<event>
 7    0  0.4725730E-002  0.4530689E+03  0.7546771E-02  0.1026811E+00
         21   -1    0    0  502  501  0.00000000000E+00  0.00000000000E+00  0.15009324442E+03  0.15009324442E+03  0.00000000000E+00 0. -1.
         21   -1    0    0  501  502 -0.00000000000E+00 -0.00000000000E+00 -0.34190649432E+03  0.34190649432E+03  0.00000000000E+00 0. -1.
      99926    2    1    2    0    0  0.00000000000E+00  0.00000000000E+00 -0.19181324990E+03  0.49199973875E+03  0.45306889111E+03 0.  0.
      99925    2    3    3    0    0  0.10719533329E+03 -0.14382302503E+02 -0.91923208199E+02  0.29880755817E+03  0.26294180062E+03 0.  0.
         25    1    4    4    0    0  0.12264043043E+02 -0.71939675805E+01 -0.54685429750E+02  0.13725947781E+03  0.12509000000E+03 0.  0.
         25    1    3    3    0    0 -0.10719533329E+03  0.14382302503E+02 -0.99890041702E+02  0.19319218057E+03  0.12509000000E+03 0.  0.
         25    1    4    4    0    0  0.94931290243E+02 -0.71883349229E+01 -0.37237778449E+02  0.16154808037E+03  0.12509000000E+03 0.  0.
<mgrwt>
<rscale>  2 0.45306889E+03</rscale>
<asrwt>0</asrwt>
<pdfrwt beam="1">  1       21 0.22072536E-01 0.45306889E+03</pdfrwt>
<pdfrwt beam="2">  1       21 0.50280367E-01 0.45306889E+03</pdfrwt>
<totfact> 0.66855490E+04</totfact>
</mgrwt>
</event>
<event>
 7    0  0.4725730E-002  0.4580256E+03  0.7546771E-02  0.1025355E+00
         21   -1    0    0  502  501  0.00000000000E+00  0.00000000000E+00  0.12711745851E+03  0.12711745851E+03  0.00000000000E+00 0.  1.
         21   -1    0    0  501  502 -0.00000000000E+00 -0.00000000000E+00 -0.41258589411E+03  0.41258589411E+03  0.00000000000E+00 0.  1.
      99926    2    1    2    0    0  0.00000000000E+00 -0.71054273576E-14 -0.28546843561E+03  0.53970335262E+03  0.45802563367E+03 0.  0.
      99925    2    3    3    0    0  0.16983607000E+02 -0.61740609280E+02 -0.29306809897E+03  0.39897095150E+03  0.26303719085E+03 0.  0.
         25    1    4    4    0    0  0.33816835547E+02 -0.41801997034E+02 -0.10660725496E+03  0.17292657468E+03  0.12509000000E+03 0.  0.
         25    1    3    3    0    0 -0.16983607000E+02  0.61740609280E+02  0.75996633633E+01  0.14073240112E+03  0.12509000000E+03 0.  0.
         25    1    4    4    0    0 -0.16833228547E+02 -0.19938612246E+02 -0.18646084401E+03  0.22604437682E+03  0.12509000000E+03 0.  0.
<mgrwt>
<rscale>  2 0.45802563E+03</rscale>
<asrwt>0</asrwt>
<pdfrwt beam="1">  1       21 0.18693744E-01 0.45802563E+03</pdfrwt>
<pdfrwt beam="2">  1       21 0.60674396E-01 0.45802563E+03</pdfrwt>
<totfact> 0.61076426E+04</totfact>
</mgrwt>
</event>
<event>
 7    0  0.4725730E-002  0.4517686E+03  0.7546771E-02  0.1027196E+00
         21   -1    0    0  502  501  0.00000000000E+00  0.00000000000E+00  0.18984014618E+03  0.18984014618E+03  0.00000000000E+00 0. -1.
         21   -1    0    0  501  502 -0.00000000000E+00 -0.00000000000E+00 -0.26877195161E+03  0.26877195161E+03  0.00000000000E+00 0. -1.
      99926    2    1    2    0    0  0.00000000000E+00 -0.22204460493E-14 -0.78931805422E+02  0.45861209779E+03  0.45176855394E+03 0.  0.
      99925    2    3    3    0    0  0.93931939650E+02  0.84819566427E+00  0.85414278005E+01  0.27938318452E+03  0.26297923697E+03 0.  0.
         25    1    4    4    0    0  0.17782093566E+02  0.28992560835E+02  0.12273050163E+02  0.13021101065E+03  0.12509000000E+03 0.  0.
         25    1    3    3    0    0 -0.93931939650E+02 -0.84819566427E+00 -0.87473233222E+02  0.17922891327E+03  0.12509000000E+03 0.  0.
         25    1    4    4    0    0  0.76149846083E+02 -0.28144365171E+02 -0.37316223623E+01  0.14917217386E+03  0.12509000000E+03 0.  0.
<mgrwt>
<rscale>  2 0.45176855E+03</rscale>
<asrwt>0</asrwt>
<pdfrwt beam="1">  1       21 0.27917669E-01 0.45176855E+03</pdfrwt>
<pdfrwt beam="2">  1       21 0.39525287E-01 0.45176855E+03</pdfrwt>
<totfact> 0.70069648E+04</totfact>
</mgrwt>
</event>
<event>
 7    0  0.4725730E-002  0.4531129E+03  0.7546771E-02  0.1026798E+00
         21   -1    0    0  502  501  0.00000000000E+00  0.00000000000E+00  0.63324020590E+03  0.63324020590E+03  0.00000000000E+00 0. -1.
         21   -1    0    0  501  502 -0.00000000000E+00 -0.00000000000E+00 -0.81055847944E+02  0.81055847944E+02  0.00000000000E+00 0. -1.
      99926    2    1    2    0    0  0.71054273576E-14  0.00000000000E+00  0.55218435796E+03  0.71429605385E+03  0.45311288590E+03 0.  0.
      99925    2    3    3    0    0 -0.46475470581E+02 -0.10061303230E+03  0.33121510021E+03  0.43724394214E+03  0.26305108001E+03 0.  0.
         25    1    4    4    0    0 -0.36123840582E+02 -0.14359662795E+02  0.12658791605E+03  0.18216240107E+03  0.12509000000E+03 0.  0.
         25    1    3    3    0    0  0.46475470581E+02  0.10061303230E+03  0.22096925774E+03  0.27705211171E+03  0.12509000000E+03 0.  0.
         25    1    4    4    0    0 -0.10351630000E+02 -0.86253369504E+02  0.20462718416E+03  0.25508154107E+03  0.12509000000E+03 0.  0.
<mgrwt>
<rscale>  2 0.45311289E+03</rscale>
<asrwt>0</asrwt>
<pdfrwt beam="1">  1       21 0.93123557E-01 0.45311289E+03</pdfrwt>
<pdfrwt beam="2">  1       21 0.11919978E-01 0.45311289E+03</pdfrwt>
<totfact> 0.52914843E+04</totfact>
</mgrwt>
</event>
<event>
 7    0  0.4725730E-002  0.4569153E+03  0.7546771E-02  0.1025680E+00
         21   -1    0    0  502  501  0.00000000000E+00  0.00000000000E+00  0.15060712692E+04  0.15060712692E+04  0.00000000000E+00 0. -1.
         21   -1    0    0  501  502 -0.00000000000E+00 -0.00000000000E+00 -0.34654993886E+02  0.34654993886E+02  0.00000000000E+00 0. -1.
      99926    2    1    2    0    0  0.00000000000E+00  0.00000000000E+00  0.14714162753E+04  0.15407262631E+04  0.45691526841E+03 0.  0.
      99925    2    3    3    0    0 -0.10431653438E+03 -0.24712973405E+02  0.10643532705E+04  0.11015902154E+04  0.26298374061E+03 0.  0.
         25    1    4    4    0    0 -0.38834870537E+02 -0.30039579476E+02  0.65192108670E+03  0.66562687362E+03  0.12509000000E+03 0.  0.
         25    1    4    4    0    0 -0.65481663840E+02  0.53266060708E+01  0.41243218377E+03  0.43596334174E+03  0.12509000000E+03 0.  0.
         25    1    3    3    0    0  0.10431653438E+03  0.24712973405E+02  0.40706300488E+03  0.43913604776E+03  0.12509000000E+03 0.  0.
<mgrwt>
<rscale>  2 0.45691527E+03</rscale>
<asrwt>0</asrwt>
<pdfrwt beam="1">  1       21 0.22148103E+00 0.45691527E+03</pdfrwt>
<pdfrwt beam="2">  1       21 0.50963236E-02 0.45691527E+03</pdfrwt>
<totfact> 0.22462439E+04</totfact>
</mgrwt>
</event>
<event>
 7    0  0.4725730E-002  0.3994838E+03  0.7546771E-02  0.1043959E+00
         21   -1    0    0  502  501  0.00000000000E+00  0.00000000000E+00  0.15165735972E+03  0.15165735972E+03  0.00000000000E+00 0. -1.
         21   -1    0    0  501  502 -0.00000000000E+00 -0.00000000000E+00 -0.26307220673E+03  0.26307220673E+03  0.00000000000E+00 0. -1.
      99926    2    1    2    0    0  0.00000000000E+00  0.00000000000E+00 -0.11141484700E+03  0.41472956645E+03  0.39948384843E+03 0.  0.
      99925    2    3    3    0    0  0.82138576060E+01  0.41163512002E+02 -0.89096803634E+02  0.28091063902E+03  0.26307916018E+03 0.  0.
         25    1    4    4    0    0 -0.24326114886E+02 -0.32181837995E+01 -0.61319771877E+02  0.14145578495E+03  0.12509000000E+03 0.  0.
         25    1    4    4    0    0  0.32539972492E+02  0.44381695802E+02 -0.27777031757E+02  0.13945485408E+03  0.12509000000E+03 0.  0.
         25    1    3    3    0    0 -0.82138576060E+01 -0.41163512002E+02 -0.22318043371E+02  0.13381892742E+03  0.12509000000E+03 0.  0.
<mgrwt>
<rscale>  2 0.39948385E+03</rscale>
<asrwt>0</asrwt>
<pdfrwt beam="1">  1       21 0.22302553E-01 0.39948385E+03</pdfrwt>
<pdfrwt beam="2">  1       21 0.38687089E-01 0.39948385E+03</pdfrwt>
<totfact> 0.11447203E+05</totfact>
</mgrwt>
</event>
<event>
 7    0  0.4725730E-002  0.4533995E+03  0.7546771E-02  0.1026713E+00
         21   -1    0    0  502  501  0.00000000000E+00  0.00000000000E+00  0.68050518224E+03  0.68050518224E+03  0.00000000000E+00 0. -1.
         21   -1    0    0  501  502 -0.00000000000E+00 -0.00000000000E+00 -0.75521499082E+02  0.75521499082E+02  0.00000000000E+00 0. -1.
      99926    2    1    2    0    0  0.00000000000E+00  0.00000000000E+00  0.60498368316E+03  0.75602668133E+03  0.45339947727E+03 0.  0.
      99925    2    3    3    0    0 -0.46311101145E+02  0.17565469632E+02  0.54843289669E+03  0.61008572284E+03  0.26262650900E+03 0.  0.
         25    1    4    4    0    0 -0.11737602992E+02 -0.95129412098E+01  0.34478701304E+03  0.36708835426E+03  0.12509000000E+03 0.  0.
         25    1    3    3    0    0  0.46311101145E+02 -0.17565469632E+02  0.56550786470E+02  0.14594095848E+03  0.12509000000E+03 0.  0.
         25    1    4    4    0    0 -0.34573498154E+02  0.27078410842E+02  0.20364588365E+03  0.24299736858E+03  0.12509000000E+03 0.  0.
<mgrwt>
<rscale>  2 0.45339948E+03</rscale>
<asrwt>0</asrwt>
<pdfrwt beam="1">  1       21 0.10007429E+00 0.45339948E+03</pdfrwt>
<pdfrwt beam="2">  1       21 0.11106103E-01 0.45339948E+03</pdfrwt>
<totfact> 0.50597401E+04</totfact>
</mgrwt>
</event>
<event>
 7    0  0.4725730E-002  0.4601098E+03  0.7546771E-02  0.1024749E+00
         21   -1    0    0  502  501  0.00000000000E+00  0.00000000000E+00  0.15407427889E+03  0.15407427889E+03  0.00000000000E+00 0. -1.
         21   -1    0    0  501  502 -0.00000000000E+00 -0.00000000000E+00 -0.34350483904E+03  0.34350483904E+03  0.00000000000E+00 0. -1.
      99926    2    1    2    0    0  0.17763568394E-14  0.00000000000E+00 -0.18943056015E+03  0.49757911793E+03  0.46010981459E+03 0.  0.
      99925    2    3    3    0    0  0.13558243941E+02 -0.63617821804E+02 -0.22493287549E+03  0.35218662939E+03  0.26307711837E+03 0.  0.
         25    1    4    4    0    0  0.43360211952E+02 -0.36682248974E+02 -0.92357985018E+02  0.16553912186E+03  0.12509000000E+03 0.  0.
         25    1    3    3    0    0 -0.13558243941E+02  0.63617821804E+02  0.35502315340E+02  0.14539248854E+03  0.12509000000E+03 0.  0.
         25    1    4    4    0    0 -0.29801968011E+02 -0.26935572831E+02 -0.13257489047E+03  0.18664750753E+03  0.12509000000E+03 0.  0.
<mgrwt>
<rscale>  2 0.46010981E+03</rscale>
<asrwt>0</asrwt>
<pdfrwt beam="1">  1       21 0.22657982E-01 0.46010981E+03</pdfrwt>
<pdfrwt beam="2">  1       21 0.50515417E-01 0.46010981E+03</pdfrwt>
<totfact> 0.62852535E+04</totfact>
</mgrwt>
</event>
<event>
 7    0  0.4725730E-002  0.4520110E+03  0.7546771E-02  0.1027124E+00
         21   -1    0    0  502  501  0.00000000000E+00  0.00000000000E+00  0.10642338139E+04  0.10642338139E+04  0.00000000000E+00 0. -1.
         21   -1    0    0  501  502 -0.00000000000E+00 -0.00000000000E+00 -0.47995551302E+02  0.47995551302E+02  0.00000000000E+00 0. -1.
      99926    2    1    2    0    0  0.00000000000E+00  0.00000000000E+00  0.10162382626E+04  0.11122293652E+04  0.45201101142E+03 0.  0.
      99925    2    3    3    0    0 -0.43838635121E+02  0.10125781947E+03  0.64487640088E+03  0.70512727436E+03  0.26299035855E+03 0.  0.
         25    1    3    3    0    0  0.43838635121E+02 -0.10125781947E+03  0.37136186168E+03  0.40710209082E+03  0.12509000000E+03 0.  0.
         25    1    4    4    0    0 -0.53814357162E+02  0.25441213657E+02  0.30627422838E+03  0.33614677071E+03  0.12509000000E+03 0.  0.
         25    1    4    4    0    0  0.99757220405E+01  0.75816605809E+02  0.33860217250E+03  0.36898050364E+03  0.12509000000E+03 0.  0.
<mgrwt>
<rscale>  2 0.45201101E+03</rscale>
<asrwt>0</asrwt>
<pdfrwt beam="1">  1       21 0.15650496E+00 0.45201101E+03</pdfrwt>
<pdfrwt beam="2">  1       21 0.70581700E-02 0.45201101E+03</pdfrwt>
<totfact> 0.35898025E+04</totfact>
</mgrwt>
</event>
<event>
 7    0  0.4725730E-002  0.4485635E+03  0.7546771E-02  0.1028151E+00
         21   -1    0    0  502  501  0.00000000000E+00  0.00000000000E+00  0.29989005656E+03  0.29989005656E+03  0.00000000000E+00 0.  1.
         21   -1    0    0  501  502 -0.00000000000E+00 -0.00000000000E+00 -0.16773580055E+03  0.16773580055E+03  0.00000000000E+00 0.  1.
      99926    2    1    2    0    0  0.00000000000E+00  0.14210854715E-13  0.13215425600E+03  0.46762585711E+03  0.44856347919E+03 0.  0.
      99925    2    3    3    0    0 -0.69787120072E+02  0.64554704850E+02  0.32285310912E+02  0.28145693828E+03  0.26294127625E+03 0.  0.
         25    1    3    3    0    0  0.69787120072E+02 -0.64554704850E+02  0.99868945090E+02  0.18616891883E+03  0.12509000000E+03 0.  0.
         25    1    4    4    0    0 -0.20916898838E+02  0.67742340652E+02  0.31133247819E+02  0.14711671759E+03  0.12509000000E+03 0.  0.
         25    1    4    4    0    0 -0.48870221234E+02 -0.31876358025E+01  0.11520630939E+01  0.13434022069E+03  0.12509000000E+03 0.  0.
<mgrwt>
<rscale>  2 0.44856348E+03</rscale>
<asrwt>0</asrwt>
<pdfrwt beam="1">  1       21 0.44101479E-01 0.44856348E+03</pdfrwt>
<pdfrwt beam="2">  1       21 0.24667030E-01 0.44856348E+03</pdfrwt>
<totfact> 0.71178702E+04</totfact>
</mgrwt>
</event>
<event>
 7    0  0.4725730E-002  0.4516718E+03  0.7546771E-02  0.1027225E+00
         21   -1    0    0  502  501  0.00000000000E+00  0.00000000000E+00  0.18706634483E+03  0.18706634483E+03  0.00000000000E+00 0.  1.
         21   -1    0    0  501  502 -0.00000000000E+00 -0.00000000000E+00 -0.27264050945E+03  0.27264050945E+03  0.00000000000E+00 0.  1.
      99926    2    1    2    0    0  0.17763568394E-14  0.00000000000E+00 -0.85574164622E+02  0.45970685428E+03  0.45167184351E+03 0.  0.
      99925    2    3    3    0    0 -0.15463751394E+02  0.17330741798E+02 -0.16349197727E+03  0.31051511240E+03  0.26296487632E+03 0.  0.
         25    1    4    4    0    0  0.29682154928E+02  0.42316716100E+01 -0.62493556838E+02  0.14301010493E+03  0.12509000000E+03 0.  0.
         25    1    3    3    0    0  0.15463751394E+02 -0.17330741798E+02  0.77917812646E+02  0.14919174188E+03  0.12509000000E+03 0.  0.
         25    1    4    4    0    0 -0.45145906322E+02  0.13099070188E+02 -0.10099842043E+03  0.16750500747E+03  0.12509000000E+03 0.  0.
<mgrwt>
<rscale>  2 0.45167184E+03</rscale>
<asrwt>0</asrwt>
<pdfrwt beam="1">  1       21 0.27509757E-01 0.45167184E+03</pdfrwt>
<pdfrwt beam="2">  1       21 0.40094192E-01 0.45167184E+03</pdfrwt>
<totfact> 0.70039646E+04</totfact>
</mgrwt>
</event>
<event>
 7    0  0.4725730E-002  0.4529762E+03  0.7546771E-02  0.1026838E+00
         21   -1    0    0  502  501  0.00000000000E+00  0.00000000000E+00  0.12899812480E+03  0.12899812480E+03  0.00000000000E+00 0. -1.
         21   -1    0    0  501  502 -0.00000000000E+00 -0.00000000000E+00 -0.39765586831E+03  0.39765586831E+03  0.00000000000E+00 0. -1.
      99926    2    1    2    0    0  0.00000000000E+00  0.88817841970E-15 -0.26865774352E+03  0.52665399311E+03  0.45297620832E+03 0.  0.
      99925    2    3    3    0    0 -0.55738708268E+02 -0.66584868794E+01 -0.57667474613E+02  0.27502819809E+03  0.26299017676E+03 0.  0.
         25    1    4    4    0    0 -0.13503325662E+02 -0.68984249578E+01  0.10497111555E+02  0.12644218253E+03  0.12509000000E+03 0.  0.
         25    1    4    4    0    0 -0.42235382606E+02  0.23993807837E+00 -0.68164586168E+02  0.14858601557E+03  0.12509000000E+03 0.  0.
         25    1    3    3    0    0  0.55738708268E+02  0.66584868794E+01 -0.21099026890E+03  0.25162579502E+03  0.12509000000E+03 0.  0.
<mgrwt>
<rscale>  2 0.45297621E+03</rscale>
<asrwt>0</asrwt>
<pdfrwt beam="1">  1       21 0.18970312E-01 0.45297621E+03</pdfrwt>
<pdfrwt beam="2">  1       21 0.58478804E-01 0.45297621E+03</pdfrwt>
<totfact> 0.64461489E+04</totfact>
</mgrwt>
</event>
<event>
 7    0  0.4725730E-002  0.4561452E+03  0.7546771E-02  0.1025905E+00
         21   -1    0    0  502  501  0.00000000000E+00  0.00000000000E+00  0.13092624926E+04  0.13092624926E+04  0.00000000000E+00 0.  1.
         21   -1    0    0  501  502 -0.00000000000E+00 -0.00000000000E+00 -0.39730082965E+02  0.39730082965E+02  0.00000000000E+00 0.  1.
      99926    2    1    2    0    0  0.00000000000E+00 -0.14210854715E-13  0.12695324096E+04  0.13489925756E+04  0.45614518502E+03 0.  0.
      99925    2    3    3    0    0 -0.92777665747E+02  0.66329855386E+02  0.79592228883E+03  0.84603989429E+03  0.26321828943E+03 0.  0.
         25    1    3    3    0    0  0.92777665747E+02 -0.66329855386E+02  0.47361012081E+03  0.50295268128E+03  0.12509000000E+03 0.  0.
         25    1    4    4    0    0 -0.58715731378E+02  0.69638434778E+02  0.48723821442E+03  0.51121975158E+03  0.12509000000E+03 0.  0.
         25    1    4    4    0    0 -0.34061934369E+02 -0.33085793925E+01  0.30868407441E+03  0.33482014271E+03  0.12509000000E+03 0.  0.
<mgrwt>
<rscale>  2 0.45614519E+03</rscale>
<asrwt>0</asrwt>
<pdfrwt beam="1">  1       21 0.19253857E+00 0.45614519E+03</pdfrwt>
<pdfrwt beam="2">  1       21 0.58426601E-02 0.45614519E+03</pdfrwt>
<totfact> 0.27478088E+04</totfact>
</mgrwt>
</event>
<event>
 7    0  0.4725730E-002  0.4454061E+03  0.7546771E-02  0.1029101E+00
         21   -1    0    0  502  501  0.00000000000E+00  0.00000000000E+00  0.17592077696E+03  0.17592077696E+03  0.00000000000E+00 0. -1.
         21   -1    0    0  501  502 -0.00000000000E+00 -0.00000000000E+00 -0.28192598572E+03  0.28192598572E+03  0.00000000000E+00 0. -1.
      99926    2    1    2    0    0  0.00000000000E+00  0.00000000000E+00 -0.10600520876E+03  0.45784676267E+03  0.44540605497E+03 0.  0.
      99925    2    3    3    0    0 -0.13898010999E+02  0.53496044800E+02 -0.15772933018E+03  0.31163501774E+03  0.26302635070E+03 0.  0.
         25    1    4    4    0    0  0.14672626238E+02  0.48204740339E+02 -0.49381767483E+02  0.14361424028E+03  0.12509000000E+03 0.  0.
         25    1    3    3    0    0  0.13898010999E+02 -0.53496044800E+02  0.51724121423E+02  0.14621174493E+03  0.12509000000E+03 0.  0.
         25    1    4    4    0    0 -0.28570637238E+02  0.52913044608E+01 -0.10834756270E+03  0.16802077746E+03  0.12509000000E+03 0.  0.
<mgrwt>
<rscale>  2 0.44540605E+03</rscale>
<asrwt>0</asrwt>
<pdfrwt beam="1">  1       21 0.25870703E-01 0.44540605E+03</pdfrwt>
<pdfrwt beam="2">  1       21 0.41459704E-01 0.44540605E+03</pdfrwt>
<totfact> 0.73809512E+04</totfact>
</mgrwt>
</event>
<event>
 7    0  0.4725730E-002  0.4593281E+03  0.7546771E-02  0.1024976E+00
         21   -1    0    0  502  501  0.00000000000E+00  0.00000000000E+00  0.95991073146E+03  0.95991073146E+03  0.00000000000E+00 0.  1.
         21   -1    0    0  501  502 -0.00000000000E+00 -0.00000000000E+00 -0.54948421729E+02  0.54948421729E+02  0.00000000000E+00 0.  1.
      99926    2    1    2    0    0  0.00000000000E+00 -0.35527136788E-14  0.90496230973E+03  0.10148591532E+04  0.45932811668E+03 0.  0.
      99925    2    3    3    0    0 -0.11128725719E+03  0.28381496450E+02  0.51371267419E+03  0.58834520457E+03  0.26279080114E+03 0.  0.
         25    1    4    4    0    0 -0.60450286200E+02  0.12170199846E+02  0.34171402769E+03  0.36907768246E+03  0.12509000000E+03 0.  0.
         25    1    3    3    0    0  0.11128725719E+03 -0.28381496450E+02  0.39124963553E+03  0.42651394861E+03  0.12509000000E+03 0.  0.
         25    1    4    4    0    0 -0.50836970992E+02  0.16211296604E+02  0.17199864650E+03  0.21926752212E+03  0.12509000000E+03 0.  0.
<mgrwt>
<rscale>  2 0.45932812E+03</rscale>
<asrwt>0</asrwt>
<pdfrwt beam="1">  1       21 0.14116333E+00 0.45932812E+03</pdfrwt>
<pdfrwt beam="2">  1       21 0.80806508E-02 0.45932812E+03</pdfrwt>
<totfact> 0.37316582E+04</totfact>
</mgrwt>
</event>
<event>
 7    0  0.4725730E-002  0.4444706E+03  0.7546771E-02  0.1029384E+00
         21   -1    0    0  502  501  0.00000000000E+00  0.00000000000E+00  0.13506772853E+03  0.13506772853E+03  0.00000000000E+00 0.  1.
         21   -1    0    0  501  502 -0.00000000000E+00 -0.00000000000E+00 -0.36565743655E+03  0.36565743655E+03  0.00000000000E+00 0.  1.
      99926    2    1    2    0    0  0.00000000000E+00  0.00000000000E+00 -0.23058970803E+03  0.50072516508E+03  0.44447055864E+03 0.  0.
      99925    2    3    3    0    0  0.10142662421E+03 -0.91129352617E+01 -0.16340811091E+03  0.32599313946E+03  0.26305685806E+03 0.  0.
         25    1    4    4    0    0  0.71234264229E+02 -0.99903700151E+01 -0.45079791007E+02  0.15117481123E+03  0.12509000000E+03 0.  0.
         25    1    4    4    0    0  0.30192359978E+02  0.87743475332E+00 -0.11832831991E+03  0.17481832823E+03  0.12509000000E+03 0.  0.
         25    1    3    3    0    0 -0.10142662421E+03  0.91129352617E+01 -0.67181597114E+02  0.17473202562E+03  0.12509000000E+03 0.  0.
<mgrwt>
<rscale>  2 0.44447056E+03</rscale>
<asrwt>0</asrwt>
<pdfrwt beam="1">  1       21 0.19862902E-01 0.44447056E+03</pdfrwt>
<pdfrwt beam="2">  1       21 0.53773151E-01 0.44447056E+03</pdfrwt>
<totfact> 0.70967734E+04</totfact>
</mgrwt>
</event>
<event>
 7    0  0.4725730E-002  0.4579403E+03  0.7546771E-02  0.1025380E+00
         21   -1    0    0  502  501  0.00000000000E+00  0.00000000000E+00  0.38919803329E+03  0.38919803329E+03  0.00000000000E+00 0. -1.
         21   -1    0    0  501  502 -0.00000000000E+00 -0.00000000000E+00 -0.13470605718E+03  0.13470605718E+03  0.00000000000E+00 0. -1.
      99926    2    1    2    0    0 -0.71054273576E-14  0.00000000000E+00  0.25449197611E+03  0.52390409047E+03  0.45794031282E+03 0.  0.
      99925    2    3    3    0    0 -0.51835448642E+02  0.52820456076E+02  0.57687480560E+02  0.27924834890E+03  0.26301117967E+03 0.  0.
         25    1    3    3    0    0  0.51835448642E+02 -0.52820456076E+02  0.19680449555E+03  0.24465574158E+03  0.12509000000E+03 0.  0.
         25    1    4    4    0    0 -0.80288688719E+01  0.44552593114E+02  0.61140230221E+02  0.14640707681E+03  0.12509000000E+03 0.  0.
         25    1    4    4    0    0 -0.43806579770E+02  0.82678629619E+01 -0.34527496610E+01  0.13284127209E+03  0.12509000000E+03 0.  0.
<mgrwt>
<rscale>  2 0.45794031E+03</rscale>
<asrwt>0</asrwt>
<pdfrwt beam="1">  1       21 0.57235005E-01 0.45794031E+03</pdfrwt>
<pdfrwt beam="2">  1       21 0.19809714E-01 0.45794031E+03</pdfrwt>
<totfact> 0.62159349E+04</totfact>
</mgrwt>
</event>
<event>
 7    0  0.4725730E-002  0.4614029E+03  0.7546771E-02  0.1024375E+00
         21   -1    0    0  502  501  0.00000000000E+00  0.00000000000E+00  0.15058624153E+03  0.15058624153E+03  0.00000000000E+00 0. -1.
         21   -1    0    0  501  502 -0.00000000000E+00 -0.00000000000E+00 -0.35343973505E+03  0.35343973505E+03  0.00000000000E+00 0. -1.
      99926    2    1    2    0    0  0.00000000000E+00  0.00000000000E+00 -0.20285349352E+03  0.50402597659E+03  0.46140290987E+03 0.  0.
      99925    2    3    3    0    0 -0.35430347405E+02  0.67623466567E+02 -0.27127477544E+02  0.27521298845E+03  0.26301719759E+03 0.  0.
         25    1    3    3    0    0  0.35430347405E+02 -0.67623466567E+02 -0.17572601597E+03  0.22881298813E+03  0.12509000000E+03 0.  0.
         25    1    4    4    0    0 -0.47492217961E+02  0.63571457071E+02 -0.15045690912E+02  0.14889836076E+03  0.12509000000E+03 0.  0.
         25    1    4    4    0    0  0.12061870556E+02  0.40520094951E+01 -0.12081786632E+02  0.12631462770E+03  0.12509000000E+03 0.  0.
<mgrwt>
<rscale>  2 0.46140291E+03</rscale>
<asrwt>0</asrwt>
<pdfrwt beam="1">  1       21 0.22145036E-01 0.46140291E+03</pdfrwt>
<pdfrwt beam="2">  1       21 0.51976431E-01 0.46140291E+03</pdfrwt>
<totfact> 0.61788062E+04</totfact>
</mgrwt>
</event>
<event>
 7    0  0.4725730E-002  0.4558981E+03  0.7546771E-02  0.1025978E+00
         21   -1    0    0  502  501  0.00000000000E+00  0.00000000000E+00  0.71942369937E+03  0.71942369937E+03  0.00000000000E+00 0.  1.
         21   -1    0    0  501  502 -0.00000000000E+00 -0.00000000000E+00 -0.72225549202E+02  0.72225549202E+02  0.00000000000E+00 0.  1.
      99926    2    1    2    0    0  0.14210854715E-13  0.17763568394E-14  0.64719815016E+03  0.79164924857E+03  0.45589811053E+03 0.  0.
      99925    2    3    3    0    0  0.10047666929E+03  0.14058521033E+02  0.31654368653E+03  0.42385435259E+03  0.26298175534E+03 0.  0.
         25    1    4    4    0    0  0.12024298628E+02  0.21367167503E+02  0.16176167121E+03  0.20595020267E+03  0.12509000000E+03 0.  0.
         25    1    3    3    0    0 -0.10047666929E+03 -0.14058521033E+02  0.33065446364E+03  0.36779489598E+03  0.12509000000E+03 0.  0.
         25    1    4    4    0    0  0.88452370663E+02 -0.73086464702E+01  0.15478201531E+03  0.21790414992E+03  0.12509000000E+03 0.  0.
<mgrwt>
<rscale>  2 0.45589811E+03</rscale>
<asrwt>0</asrwt>
<pdfrwt beam="1">  1       21 0.10579760E+00 0.45589811E+03</pdfrwt>
<pdfrwt beam="2">  1       21 0.10621405E-01 0.45589811E+03</pdfrwt>
<totfact> 0.47833341E+04</totfact>
</mgrwt>
</event>
<event>
 7    0  0.4725730E-002  0.4478241E+03  0.7546771E-02  0.1028373E+00
         21   -1    0    0  502  501  0.00000000000E+00  0.00000000000E+00  0.22978105693E+03  0.22978105693E+03  0.00000000000E+00 0.  1.
         21   -1    0    0  501  502 -0.00000000000E+00 -0.00000000000E+00 -0.21819294077E+03  0.21819294077E+03  0.00000000000E+00 0.  1.
      99926    2    1    2    0    0 -0.53290705182E-14  0.44408920985E-15  0.11588116163E+02  0.44797399770E+03  0.44782409289E+03 0.  0.
      99925    2    3    3    0    0 -0.96112378849E+01  0.25151006716E+01 -0.98540679908E+02  0.28101723249E+03  0.26298615502E+03 0.  0.
         25    1    3    3    0    0  0.96112378849E+01 -0.25151006716E+01  0.11012879607E+03  0.16695676521E+03  0.12509000000E+03 0.  0.
         25    1    4    4    0    0 -0.43002097217E+02  0.94441977468E+01 -0.61475154054E+02  0.14616797153E+03  0.12509000000E+03 0.  0.
         25    1    4    4    0    0  0.33390859332E+02 -0.69290970753E+01 -0.37065525855E+02  0.13484926095E+03  0.12509000000E+03 0.  0.
<mgrwt>
<rscale>  2 0.44782409E+03</rscale>
<asrwt>0</asrwt>
<pdfrwt beam="1">  1       21 0.33791332E-01 0.44782409E+03</pdfrwt>
<pdfrwt beam="2">  1       21 0.32087197E-01 0.44782409E+03</pdfrwt>
<totfact> 0.73163806E+04</totfact>
</mgrwt>
</event>
<event>
 7    0  0.4725730E-002  0.4542733E+03  0.7546771E-02  0.1026455E+00
         21   -1    0    0  502  501  0.00000000000E+00  0.00000000000E+00  0.34030313129E+03  0.34030313129E+03  0.00000000000E+00 0.  1.
         21   -1    0    0  501  502 -0.00000000000E+00 -0.00000000000E+00 -0.15160320944E+03  0.15160320944E+03  0.00000000000E+00 0.  1.
      99926    2    1    2    0    0  0.00000000000E+00  0.00000000000E+00  0.18869992184E+03  0.49190634073E+03  0.45427325207E+03 0.  0.
      99925    2    3    3    0    0  0.37285294231E+02  0.75209197299E+02  0.37718614176E+02  0.27862371160E+03  0.26298642985E+03 0.  0.
         25    1    3    3    0    0 -0.37285294231E+02 -0.75209197299E+02  0.15098130767E+03  0.21328262913E+03  0.12509000000E+03 0.  0.
         25    1    4    4    0    0  0.56629444794E+00  0.46863914350E+00  0.26972706062E+02  0.12796708672E+03  0.12509000000E+03 0.  0.
         25    1    4    4    0    0  0.36718999783E+02  0.74740558155E+02  0.10745908114E+02  0.15065662488E+03  0.12509000000E+03 0.  0.
<mgrwt>
<rscale>  2 0.45427325E+03</rscale>
<asrwt>0</asrwt>
<pdfrwt beam="1">  1       21 0.50044578E-01 0.45427325E+03</pdfrwt>
<pdfrwt beam="2">  1       21 0.22294590E-01 0.45427325E+03</pdfrwt>
<totfact> 0.66224336E+04</totfact>
</mgrwt>
</event>
<event>
 7    0  0.4725730E-002  0.4562286E+03  0.7546771E-02  0.1025881E+00
         21   -1    0    0  502  501  0.00000000000E+00  0.00000000000E+00  0.93037322251E+02  0.93037322251E+02  0.00000000000E+00 0. -1.
         21   -1    0    0  501  502 -0.00000000000E+00 -0.00000000000E+00 -0.55930390158E+03  0.55930390158E+03  0.00000000000E+00 0. -1.
      99926    2    1    2    0    0  0.35527136788E-14  0.00000000000E+00 -0.46626657933E+03  0.65234122384E+03  0.45622861518E+03 0.  0.
      99925    2    3    3    0    0  0.19892201061E+02 -0.99030051881E+02 -0.21667183478E+03  0.35544444809E+03  0.26304262174E+03 0.  0.
         25    1    3    3    0    0 -0.19892201061E+02  0.99030051881E+02 -0.24959474455E+03  0.29689677574E+03  0.12509000000E+03 0.  0.
         25    1    4    4    0    0  0.70068463067E+01 -0.55349709686E+02 -0.59120222043E+02  0.14918242193E+03  0.12509000000E+03 0.  0.
         25    1    4    4    0    0  0.12885354754E+02 -0.43680342195E+02 -0.15755161274E+03  0.20626202617E+03  0.12509000000E+03 0.  0.
<mgrwt>
<rscale>  2 0.45622862E+03</rscale>
<asrwt>0</asrwt>
<pdfrwt beam="1">  1       21 0.13681959E-01 0.45622862E+03</pdfrwt>
<pdfrwt beam="2">  1       21 0.82250573E-01 0.45622862E+03</pdfrwt>
<totfact> 0.55031516E+04</totfact>
</mgrwt>
</event>
<event>
 7    0  0.4725730E-002  0.4536607E+03  0.7546771E-02  0.1026636E+00
         21   -1    0    0  502  501  0.00000000000E+00  0.00000000000E+00  0.20119860870E+03  0.20119860870E+03  0.00000000000E+00 0. -1.
         21   -1    0    0  501  502 -0.00000000000E+00 -0.00000000000E+00 -0.25572744613E+03  0.25572744613E+03  0.00000000000E+00 0. -1.
      99926    2    1    2    0    0 -0.35527136788E-14  0.14210854715E-13 -0.54528837432E+02  0.45692605483E+03  0.45366069421E+03 0.  0.
      99925    2    3    3    0    0  0.26555022981E+02  0.10706599079E+03 -0.52890892077E+02  0.29013730643E+03  0.26308537490E+03 0.  0.
         25    1    4    4    0    0  0.40494344945E+02  0.44923899914E+02 -0.55820579099E+02  0.14973775044E+03  0.12509000000E+03 0.  0.
         25    1    4    4    0    0 -0.13939321964E+02  0.62142090872E+02  0.29296870223E+01  0.14039955599E+03  0.12509000000E+03 0.  0.
         25    1    3    3    0    0 -0.26555022981E+02 -0.10706599079E+03 -0.16379453555E+01  0.16678874840E+03  0.12509000000E+03 0.  0.
<mgrwt>
<rscale>  2 0.45366069E+03</rscale>
<asrwt>0</asrwt>
<pdfrwt beam="1">  1       21 0.29588031E-01 0.45366069E+03</pdfrwt>
<pdfrwt beam="2">  1       21 0.37606977E-01 0.45366069E+03</pdfrwt>
<totfact> 0.69140655E+04</totfact>
</mgrwt>
</event>
<event>
 7    0  0.4725730E-002  0.4570780E+03  0.7546771E-02  0.1025632E+00
         21   -1    0    0  502  501  0.00000000000E+00  0.00000000000E+00  0.19940482152E+04  0.19940482152E+04  0.00000000000E+00 0.  1.
         21   -1    0    0  501  502 -0.00000000000E+00 -0.00000000000E+00 -0.26192982747E+02  0.26192982747E+02  0.00000000000E+00 0.  1.
      99926    2    1    2    0    0 -0.44408920985E-15  0.00000000000E+00  0.19678552324E+04  0.20202411979E+04  0.45707798239E+03 0.  0.
      99925    2    3    3    0    0  0.25033620006E+01  0.11025947144E+03  0.10873834621E+04  0.11241153897E+04  0.26281019323E+03 0.  0.
         25    1    4    4    0    0 -0.28578018323E+02  0.25739519105E+02  0.50413605612E+03  0.52084536780E+03  0.12509000000E+03 0.  0.
         25    1    4    4    0    0  0.31081380323E+02  0.84519952339E+02  0.58324740601E+03  0.60327002185E+03  0.12509000000E+03 0.  0.
         25    1    3    3    0    0 -0.25033620006E+01 -0.11025947144E+03  0.88047177029E+03  0.89612580827E+03  0.12509000000E+03 0.  0.
<mgrwt>
<rscale>  2 0.45707798E+03</rscale>
<asrwt>0</asrwt>
<pdfrwt beam="1">  1       21 0.29324228E+00 0.45707798E+03</pdfrwt>
<pdfrwt beam="2">  1       21 0.38519106E-02 0.45707798E+03</pdfrwt>
<totfact> 0.13168303E+04</totfact>
</mgrwt>
</event>
<event>
 7    0  0.4725730E-002  0.4551709E+03  0.7546771E-02  0.1026191E+00
         21   -1    0    0  502  501  0.00000000000E+00  0.00000000000E+00  0.25273675983E+03  0.25273675983E+03  0.00000000000E+00 0. -1.
         21   -1    0    0  501  502 -0.00000000000E+00 -0.00000000000E+00 -0.20493708166E+03  0.20493708166E+03  0.00000000000E+00 0. -1.
      99926    2    1    2    0    0  0.00000000000E+00  0.00000000000E+00  0.47799678175E+02  0.45767384149E+03  0.45517088654E+03 0.  0.
      99925    2    3    3    0    0 -0.10220267534E+03 -0.46463090245E+02  0.47181589059E+02  0.28959024403E+03  0.26273979806E+03 0.  0.
         25    1    4    4    0    0 -0.33715883139E+02 -0.19329948592E+02  0.59561309120E+02  0.14389393779E+03  0.12509000000E+03 0.  0.
         25    1    4    4    0    0 -0.68486792205E+02 -0.27133141652E+02 -0.12379720060E+02  0.14569630624E+03  0.12509000000E+03 0.  0.
         25    1    3    3    0    0  0.10220267534E+03  0.46463090245E+02  0.61808911543E+00  0.16808359747E+03  0.12509000000E+03 0.  0.
<mgrwt>
<rscale>  2 0.45517089E+03</rscale>
<asrwt>0</asrwt>
<pdfrwt beam="1">  1       21 0.37167171E-01 0.45517089E+03</pdfrwt>
<pdfrwt beam="2">  1       21 0.30137806E-01 0.45517089E+03</pdfrwt>
<totfact> 0.68257212E+04</totfact>
</mgrwt>
</event>
<event>
 7    0  0.4725730E-002  0.4510891E+03  0.7546771E-02  0.1027398E+00
         21   -1    0    0  502  501  0.00000000000E+00  0.00000000000E+00  0.24037103466E+03  0.24037103466E+03  0.00000000000E+00 0.  1.
         21   -1    0    0  501  502 -0.00000000000E+00 -0.00000000000E+00 -0.21163254865E+03  0.21163254865E+03  0.00000000000E+00 0.  1.
      99926    2    1    2    0    0  0.00000000000E+00  0.00000000000E+00  0.28738486013E+02  0.45200358331E+03  0.45108905855E+03 0.  0.
      99925    2    3    3    0    0 -0.16430886945E+02  0.66787739929E+02 -0.67063926176E+02  0.28008445542E+03  0.26309533581E+03 0.  0.
         25    1    4    4    0    0 -0.32902772961E+02  0.18532342858E+02 -0.32980326505E+01  0.13070740346E+03  0.12509000000E+03 0.  0.
         25    1    4    4    0    0  0.16471886016E+02  0.48255397071E+02 -0.63765893526E+02  0.14937705196E+03  0.12509000000E+03 0.  0.
         25    1    3    3    0    0  0.16430886945E+02 -0.66787739929E+02  0.95802412190E+02  0.17191912788E+03  0.12509000000E+03 0.  0.
<mgrwt>
<rscale>  2 0.45108906E+03</rscale>
<asrwt>0</asrwt>
<pdfrwt beam="1">  1       21 0.35348682E-01 0.45108906E+03</pdfrwt>
<pdfrwt beam="2">  1       21 0.31122433E-01 0.45108906E+03</pdfrwt>
<totfact> 0.70954288E+04</totfact>
</mgrwt>
</event>
<event>
 7    0  0.4725730E-002  0.4600256E+03  0.7546771E-02  0.1024774E+00
         21   -1    0    0  502  501  0.00000000000E+00  0.00000000000E+00  0.26171055342E+03  0.26171055342E+03  0.00000000000E+00 0.  1.
         21   -1    0    0  501  502 -0.00000000000E+00 -0.00000000000E+00 -0.20215421313E+03  0.20215421313E+03  0.00000000000E+00 0.  1.
      99926    2    1    2    0    0  0.35527136788E-14  0.00000000000E+00  0.59556340290E+02  0.46386476655E+03  0.46002561230E+03 0.  0.
      99925    2    3    3    0    0  0.25696160357E+02  0.10079318282E+03  0.93054201217E+02  0.29776487748E+03  0.26303094787E+03 0.  0.
         25    1    4    4    0    0  0.93486540760E+01  0.78882170154E+02  0.17799601646E+02  0.14924519429E+03  0.12509000000E+03 0.  0.
         25    1    4    4    0    0  0.16347506281E+02  0.21911012669E+02  0.75254599571E+02  0.14851968319E+03  0.12509000000E+03 0.  0.
         25    1    3    3    0    0 -0.25696160357E+02 -0.10079318282E+03 -0.33497860927E+02  0.16609988907E+03  0.12509000000E+03 0.  0.
<mgrwt>
<rscale>  2 0.46002561E+03</rscale>
<asrwt>0</asrwt>
<pdfrwt beam="1">  1       21 0.38486846E-01 0.46002561E+03</pdfrwt>
<pdfrwt beam="2">  1       21 0.29728561E-01 0.46002561E+03</pdfrwt>
<totfact> 0.65245396E+04</totfact>
</mgrwt>
</event>
<event>
 7    0  0.4725730E-002  0.4504141E+03  0.7546771E-02  0.1027599E+00
         21   -1    0    0  502  501  0.00000000000E+00  0.00000000000E+00  0.91949779657E+02  0.91949779657E+02  0.00000000000E+00 0.  1.
         21   -1    0    0  501  502 -0.00000000000E+00 -0.00000000000E+00 -0.55158601594E+03  0.55158601594E+03  0.00000000000E+00 0.  1.
      99926    2    1    2    0    0  0.00000000000E+00  0.00000000000E+00 -0.45963623628E+03  0.64353579559E+03  0.45041408782E+03 0.  0.
      99925    2    3    3    0    0 -0.92598730956E+02 -0.57298478396E+02 -0.29003553906E+03  0.40632376977E+03  0.26290825654E+03 0.  0.
         25    1    4    4    0    0 -0.23177201289E+02 -0.57712257216E+02 -0.16616755536E+03  0.21708765936E+03  0.12509000000E+03 0.  0.
         25    1    4    4    0    0 -0.69421529667E+02  0.41377881978E+00 -0.12386798370E+03  0.18923611040E+03  0.12509000000E+03 0.  0.
         25    1    3    3    0    0  0.92598730956E+02  0.57298478396E+02 -0.16960069722E+03  0.23721202583E+03  0.12509000000E+03 0.  0.
<mgrwt>
<rscale>  2 0.45041409E+03</rscale>
<asrwt>0</asrwt>
<pdfrwt beam="1">  1       21 0.13522026E-01 0.45041409E+03</pdfrwt>
<pdfrwt beam="2">  1       21 0.81115592E-01 0.45041409E+03</pdfrwt>
<totfact> 0.58151206E+04</totfact>
</mgrwt>
</event>
<event>
 6    0  0.4725730E-002  0.4455252E+03  0.7546771E-02  0.1029065E+00
         21   -1    0    0  502  501  0.00000000000E+00  0.00000000000E+00  0.43338312245E+03  0.43338312245E+03  0.00000000000E+00 0. -1.
         21   -1    0    0  501  502 -0.00000000000E+00 -0.00000000000E+00 -0.11450185645E+03  0.11450185645E+03  0.00000000000E+00 0. -1.
      99926    2    1    2    0    0 -0.35527136788E-14 -0.71054273576E-14  0.31888126599E+03  0.54788497890E+03  0.44552518257E+03 0.  0.
         25    1    3    3    0    0 -0.31461160991E+02  0.82482528257E+01  0.54348674288E+02  0.14021100107E+03  0.12509000000E+03 0.  0.
         25    1    3    3    0    0  0.40368132768E+02 -0.43213413670E+02  0.33306507221E+02  0.14231590490E+03  0.12509000000E+03 0.  0.
         25    1    3    3    0    0 -0.89069717776E+01  0.34965160844E+02  0.23122608449E+03  0.26535807292E+03  0.12509000000E+03 0.  0.
<mgrwt>
<rscale>  2 0.44552518E+03</rscale>
<asrwt>0</asrwt>
<pdfrwt beam="1">  1       21 0.63732811E-01 0.44552518E+03</pdfrwt>
<pdfrwt beam="2">  1       21 0.16838508E-01 0.44552518E+03</pdfrwt>
<totfact> 0.66881099E+04</totfact>
</mgrwt>
</event>
<event>
 7    0  0.4725730E-002  0.4499749E+03  0.7546771E-02  0.1027730E+00
         21   -1    0    0  502  501  0.00000000000E+00  0.00000000000E+00  0.12623421160E+04  0.12623421160E+04  0.00000000000E+00 0. -1.
         21   -1    0    0  501  502 -0.00000000000E+00 -0.00000000000E+00 -0.40099554357E+02  0.40099554357E+02  0.00000000000E+00 0. -1.
      99926    2    1    2    0    0 -0.14210854715E-13 -0.88817841970E-15  0.12222425616E+04  0.13024416703E+04  0.44997491617E+03 0.  0.
      99925    2    3    3    0    0  0.10462716077E+03  0.62853723157E+01  0.69320680508E+03  0.74880578956E+03  0.26303628495E+03 0.  0.
         25    1    4    4    0    0  0.36140215712E+02 -0.30234449712E+02  0.37739339232E+03  0.40036672915E+03  0.12509000000E+03 0.  0.
         25    1    4    4    0    0  0.68486945062E+02  0.36519822028E+02  0.31581341276E+03  0.34843906041E+03  0.12509000000E+03 0.  0.
         25    1    3    3    0    0 -0.10462716077E+03 -0.62853723157E+01  0.52903575653E+03  0.55363588076E+03  0.12509000000E+03 0.  0.
<mgrwt>
<rscale>  2 0.44997492E+03</rscale>
<asrwt>0</asrwt>
<pdfrwt beam="1">  1       21 0.18563852E+00 0.44997492E+03</pdfrwt>
<pdfrwt beam="2">  1       21 0.58969941E-02 0.44997492E+03</pdfrwt>
<totfact> 0.30207211E+04</totfact>
</mgrwt>
</event>
<event>
 7    0  0.4725730E-002  0.4604923E+03  0.7546771E-02  0.1024639E+00
         21   -1    0    0  502  501  0.00000000000E+00  0.00000000000E+00  0.16821120878E+03  0.16821120878E+03  0.00000000000E+00 0. -1.
         21   -1    0    0  501  502 -0.00000000000E+00 -0.00000000000E+00 -0.31515904404E+03  0.31515904404E+03  0.00000000000E+00 0. -1.
      99926    2    1    2    0    0  0.00000000000E+00 -0.35527136788E-14 -0.14694783526E+03  0.48337025282E+03  0.46049227467E+03 0.  0.
      99925    2    3    3    0    0 -0.87372445432E+02  0.24881801141E+02 -0.17189816963E+03  0.32677179966E+03  0.26263621244E+03 0.  0.
         25    1    4    4    0    0 -0.47489159515E+02 -0.25432125193E+02 -0.99132129013E+02  0.16845385233E+03  0.12509000000E+03 0.  0.
         25    1    3    3    0    0  0.87372445432E+02 -0.24881801141E+02  0.24950334366E+02  0.15659845317E+03  0.12509000000E+03 0.  0.
         25    1    4    4    0    0 -0.39883285917E+02  0.50313926335E+02 -0.72766040615E+02  0.15831794733E+03  0.12509000000E+03 0.  0.
<mgrwt>
<rscale>  2 0.46049227E+03</rscale>
<asrwt>0</asrwt>
<pdfrwt beam="1">  1       21 0.24736943E-01 0.46049227E+03</pdfrwt>
<pdfrwt beam="2">  1       21 0.46346918E-01 0.46049227E+03</pdfrwt>
<totfact> 0.63635811E+04</totfact>
</mgrwt>
</event>
<event>
 7    0  0.4725730E-002  0.4543041E+03  0.7546771E-02  0.1026446E+00
         21   -1    0    0  502  501  0.00000000000E+00  0.00000000000E+00  0.17544567762E+02  0.17544567762E+02  0.00000000000E+00 0.  1.
         21   -1    0    0  501  502 -0.00000000000E+00 -0.00000000000E+00 -0.29409697627E+04  0.29409697627E+04  0.00000000000E+00 0.  1.
      99926    2    1    2    0    0  0.00000000000E+00  0.14210854715E-13 -0.29234251949E+04  0.29585143305E+04  0.45430405363E+03 0.  0.
      99925    2    3    3    0    0  0.66448338551E+02 -0.69432423362E+02 -0.14597266827E+04  0.14863400589E+04  0.26299912415E+03 0.  0.
         25    1    3    3    0    0 -0.66448338551E+02  0.69432423362E+02 -0.14636985122E+04  0.14721742716E+04  0.12509000000E+03 0.  0.
         25    1    4    4    0    0  0.44323467869E+02  0.31500680204E+00 -0.60175376319E+03  0.61621406073E+03  0.12509000000E+03 0.  0.
         25    1    4    4    0    0  0.22124870683E+02 -0.69747430164E+02 -0.85797291951E+03  0.87012599813E+03  0.12509000000E+03 0.  0.
<mgrwt>
<rscale>  2 0.45430405E+03</rscale>
<asrwt>0</asrwt>
<pdfrwt beam="1">  1       21 0.25800808E-02 0.45430405E+03</pdfrwt>
<pdfrwt beam="2">  1       21 0.43249600E+00 0.45430405E+03</pdfrwt>
<totfact> 0.35038989E+03</totfact>
</mgrwt>
</event>
<event>
 7    0  0.4725730E-002  0.4564491E+03  0.7546771E-02  0.1025816E+00
         21   -1    0    0  502  501  0.00000000000E+00  0.00000000000E+00  0.36139773985E+03  0.36139773985E+03  0.00000000000E+00 0.  1.
         21   -1    0    0  501  502 -0.00000000000E+00 -0.00000000000E+00 -0.14412498008E+03  0.14412498008E+03  0.00000000000E+00 0.  1.
      99926    2    1    2    0    0  0.00000000000E+00  0.00000000000E+00  0.21727275976E+03  0.50552271993E+03  0.45644908613E+03 0.  0.
      99925    2    3    3    0    0 -0.98426954532E+02 -0.35016546361E+02  0.84736836795E+02  0.29545772314E+03  0.26306065984E+03 0.  0.
         25    1    4    4    0    0 -0.81364990501E+02  0.86096377265E+01  0.44524583941E+02  0.15596260519E+03  0.12509000000E+03 0.  0.
         25    1    4    4    0    0 -0.17061964031E+02 -0.43626184087E+02  0.40212252854E+02  0.13949511796E+03  0.12509000000E+03 0.  0.
         25    1    3    3    0    0  0.98426954532E+02  0.35016546361E+02  0.13253592297E+03  0.21006499679E+03  0.12509000000E+03 0.  0.
<mgrwt>
<rscale>  2 0.45644909E+03</rscale>
<asrwt>0</asrwt>
<pdfrwt beam="1">  1       21 0.53146726E-01 0.45644909E+03</pdfrwt>
<pdfrwt beam="2">  1       21 0.21194850E-01 0.45644909E+03</pdfrwt>
<totfact> 0.64143438E+04</totfact>
</mgrwt>
</event>
<event>
 7    0  0.4725730E-002  0.4469466E+03  0.7546771E-02  0.1028637E+00
         21   -1    0    0  502  501  0.00000000000E+00  0.00000000000E+00  0.14898582082E+03  0.14898582082E+03  0.00000000000E+00 0.  1.
         21   -1    0    0  501  502 -0.00000000000E+00 -0.00000000000E+00 -0.33520181663E+03  0.33520181663E+03  0.00000000000E+00 0.  1.
      99926    2    1    2    0    0  0.00000000000E+00  0.00000000000E+00 -0.18621599581E+03  0.48418763745E+03  0.44694660885E+03 0.  0.
      99925    2    3    3    0    0  0.56216437348E+02  0.85090032135E+02 -0.89055981830E+02  0.29580457607E+03  0.26299957781E+03 0.  0.
         25    1    3    3    0    0 -0.56216437348E+02 -0.85090032135E+02 -0.97160013981E+02  0.18838306138E+03  0.12509000000E+03 0.  0.
         25    1    4    4    0    0  0.33829452214E+02  0.84697943891E+02 -0.54357897655E+02  0.16407456437E+03  0.12509000000E+03 0.  0.
         25    1    4    4    0    0  0.22386985134E+02  0.39208824354E+00 -0.34698084175E+02  0.13173001170E+03  0.12509000000E+03 0.  0.
<mgrwt>
<rscale>  2 0.44694661E+03</rscale>
<asrwt>0</asrwt>
<pdfrwt beam="1">  1       21 0.21909680E-01 0.44694661E+03</pdfrwt>
<pdfrwt beam="2">  1       21 0.49294384E-01 0.44694661E+03</pdfrwt>
<totfact> 0.70816892E+04</totfact>
</mgrwt>
</event>
<event>
 7    0  0.4725730E-002  0.4647653E+03  0.7546771E-02  0.1023408E+00
         21   -1    0    0  502  501  0.00000000000E+00  0.00000000000E+00  0.67180652189E+02  0.67180652189E+02  0.00000000000E+00 0. -1.
         21   -1    0    0  501  502 -0.00000000000E+00 -0.00000000000E+00 -0.80382819122E+03  0.80382819122E+03  0.00000000000E+00 0. -1.
      99926    2    1    2    0    0  0.00000000000E+00  0.17763568394E-14 -0.73664753903E+03  0.87100884341E+03  0.46476532631E+03 0.  0.
      99925    2    3    3    0    0 -0.10239865238E+03  0.11299975218E+02 -0.58227859306E+03  0.64719987793E+03  0.26307061525E+03 0.  0.
         25    1    4    4    0    0 -0.37657604474E+02 -0.50023112841E+01 -0.19487321851E+03  0.23466187949E+03  0.12509000000E+03 0.  0.
         25    1    4    4    0    0 -0.64741047901E+02  0.16302286502E+02 -0.38740537455E+03  0.41253799844E+03  0.12509000000E+03 0.  0.
         25    1    3    3    0    0  0.10239865238E+03 -0.11299975218E+02 -0.15436894598E+03  0.22380896548E+03  0.12509000000E+03 0.  0.
<mgrwt>
<rscale>  2 0.46476533E+03</rscale>
<asrwt>0</asrwt>
<pdfrwt beam="1">  1       21 0.98795081E-02 0.46476533E+03</pdfrwt>
<pdfrwt beam="2">  1       21 0.11821002E+00 0.46476533E+03</pdfrwt>
<totfact> 0.41261549E+04</totfact>
</mgrwt>
</event>
<event>
 7    0  0.4725730E-002  0.4500288E+03  0.7546771E-02  0.1027713E+00
         21   -1    0    0  502  501  0.00000000000E+00  0.00000000000E+00  0.75857698481E+03  0.75857698481E+03  0.00000000000E+00 0.  1.
         21   -1    0    0  501  502 -0.00000000000E+00 -0.00000000000E+00 -0.66745333113E+02  0.66745333113E+02  0.00000000000E+00 0.  1.
      99926    2    1    2    0    0  0.00000000000E+00  0.71054273576E-14  0.69183165170E+03  0.82532231792E+03  0.45002877038E+03 0.  0.
      99925    2    3    3    0    0  0.86447570234E+02  0.53637468444E+02  0.50642742388E+03  0.57961436890E+03  0.26293330059E+03 0.  0.
         25    1    4    4    0    0  0.52321622317E+02  0.51248244501E+02  0.20118092877E+03  0.24796211188E+03  0.12509000000E+03 0.  0.
         25    1    4    4    0    0  0.34125947918E+02  0.23892239434E+01  0.30524649510E+03  0.33165225702E+03  0.12509000000E+03 0.  0.
         25    1    3    3    0    0 -0.86447570234E+02 -0.53637468444E+02  0.18540422782E+03  0.24570794903E+03  0.12509000000E+03 0.  0.
<mgrwt>
<rscale>  2 0.45002877E+03</rscale>
<asrwt>0</asrwt>
<pdfrwt beam="1">  1       21 0.11155543E+00 0.45002877E+03</pdfrwt>
<pdfrwt beam="2">  1       21 0.98154906E-02 0.45002877E+03</pdfrwt>
<totfact> 0.48425708E+04</totfact>
</mgrwt>
</event>
<event>
 7    0  0.4725730E-002  0.4446525E+03  0.7546771E-02  0.1029329E+00
         21   -1    0    0  502  501  0.00000000000E+00  0.00000000000E+00  0.56249539964E+03  0.56249539964E+03  0.00000000000E+00 0.  1.
         21   -1    0    0  501  502 -0.00000000000E+00 -0.00000000000E+00 -0.87874424170E+02  0.87874424170E+02  0.00000000000E+00 0.  1.
      99926    2    1    2    0    0 -0.14210854715E-13  0.00000000000E+00  0.47462097547E+03  0.65036982381E+03  0.44465249057E+03 0.  0.
      99925    2    3    3    0    0  0.67632531031E+02  0.77479144534E+02  0.29080131984E+03  0.40539155745E+03  0.26305841584E+03 0.  0.
         25    1    4    4    0    0  0.94070488235E-01  0.17643866359E+02  0.15437677866E+03  0.19947684768E+03  0.12509000000E+03 0.  0.
         25    1    4    4    0    0  0.67538460542E+02  0.59835278174E+02  0.13642454118E+03  0.20591470978E+03  0.12509000000E+03 0.  0.
         25    1    3    3    0    0 -0.67632531031E+02 -0.77479144534E+02  0.18381965563E+03  0.24497826636E+03  0.12509000000E+03 0.  0.
<mgrwt>
<rscale>  2 0.44465249E+03</rscale>
<asrwt>0</asrwt>
<pdfrwt beam="1">  1       21 0.82719910E-01 0.44465249E+03</pdfrwt>
<pdfrwt beam="2">  1       21 0.12922710E-01 0.44465249E+03</pdfrwt>
<totfact> 0.60466548E+04</totfact>
</mgrwt>
</event>
<event>
 7    0  0.4725730E-002  0.4572789E+03  0.7546771E-02  0.1025573E+00
         21   -1    0    0  502  501  0.00000000000E+00  0.00000000000E+00  0.11392334803E+03  0.11392334803E+03  0.00000000000E+00 0. -1.
         21   -1    0    0  501  502 -0.00000000000E+00 -0.00000000000E+00 -0.45886990780E+03  0.45886990780E+03  0.00000000000E+00 0. -1.
      99926    2    1    2    0    0  0.00000000000E+00  0.00000000000E+00 -0.34494655976E+03  0.57279325583E+03  0.45727889174E+03 0.  0.
      99925    2    3    3    0    0  0.38179090238E+02 -0.34278157027E+02 -0.34602515895E+03  0.43758487422E+03  0.26289632280E+03 0.  0.
         25    1    3    3    0    0 -0.38179090238E+02  0.34278157027E+02  0.10785991825E+01  0.13520838161E+03  0.12509000000E+03 0.  0.
         25    1    4    4    0    0 -0.75746983932E+01 -0.38801015510E+02 -0.20641389759E+03  0.24457534643E+03  0.12509000000E+03 0.  0.
         25    1    4    4    0    0  0.45753788631E+02  0.45228584831E+01 -0.13961126135E+03  0.19300952779E+03  0.12509000000E+03 0.  0.
<mgrwt>
<rscale>  2 0.45727889E+03</rscale>
<asrwt>0</asrwt>
<pdfrwt beam="1">  1       21 0.16753433E-01 0.45727889E+03</pdfrwt>
<pdfrwt beam="2">  1       21 0.67480869E-01 0.45727889E+03</pdfrwt>
<totfact> 0.59308979E+04</totfact>
</mgrwt>
</event>
<event>
 7    0  0.4725730E-002  0.4353276E+03  0.7546771E-02  0.1032190E+00
         21   -1    0    0  502  501  0.00000000000E+00  0.00000000000E+00  0.21822118459E+03  0.21822118459E+03  0.00000000000E+00 0. -1.
         21   -1    0    0  501  502 -0.00000000000E+00 -0.00000000000E+00 -0.21710788159E+03  0.21710788159E+03  0.00000000000E+00 0. -1.
      99926    2    1    2    0    0  0.71054273576E-14  0.14210854715E-13  0.11133030015E+01  0.43532906619E+03  0.43532764261E+03 0.  0.
      99925    2    3    3    0    0 -0.53195783906E+02 -0.67142085580E+02 -0.36845604142E+02  0.27904011004E+03  0.26299797221E+03 0.  0.
         25    1    4    4    0    0 -0.22386739877E+02 -0.74603176607E+02 -0.14415718152E+02  0.14806120732E+03  0.12509000000E+03 0.  0.
         25    1    4    4    0    0 -0.30809044028E+02  0.74610910263E+01 -0.22429885990E+02  0.13097890272E+03  0.12509000000E+03 0.  0.
         25    1    3    3    0    0  0.53195783906E+02  0.67142085580E+02  0.37958907144E+02  0.15628895615E+03  0.12509000000E+03 0.  0.
<mgrwt>
<rscale>  2 0.43532764E+03</rscale>
<asrwt>0</asrwt>
<pdfrwt beam="1">  1       21 0.32091351E-01 0.43532764E+03</pdfrwt>
<pdfrwt beam="2">  1       21 0.31927630E-01 0.43532764E+03</pdfrwt>
<totfact> 0.82171880E+04</totfact>
</mgrwt>
</event>
<event>
 7    0  0.4725730E-002  0.3995126E+03  0.7546771E-02  0.1043949E+00
         21   -1    0    0  502  501  0.00000000000E+00  0.00000000000E+00  0.17671639273E+04  0.17671639273E+04  0.00000000000E+00 0.  1.
         21   -1    0    0  501  502 -0.00000000000E+00 -0.00000000000E+00 -0.22580005875E+02  0.22580005875E+02  0.00000000000E+00 0.  1.
      99926    2    1    2    0    0  0.00000000000E+00  0.17763568394E-14  0.17445839215E+04  0.17897439332E+04  0.39951256231E+03 0.  0.
      99925    2    3    3    0    0  0.43331679766E+02 -0.82127069459E+01  0.11366920678E+04  0.11675501557E+04  0.26298179758E+03 0.  0.
         25    1    4    4    0    0  0.52766505405E+02 -0.23476319264E+02  0.51267299831E+03  0.53086396841E+03  0.12509000000E+03 0.  0.
         25    1    3    3    0    0 -0.43331679766E+02  0.82127069459E+01  0.60789185362E+03  0.62219377755E+03  0.12509000000E+03 0.  0.
         25    1    4    4    0    0 -0.94348256383E+01  0.15263612318E+02  0.62401906953E+03  0.63668618725E+03  0.12509000000E+03 0.  0.
<mgrwt>
<rscale>  2 0.39951256E+03</rscale>
<asrwt>0</asrwt>
<pdfrwt beam="1">  1       21 0.25987695E+00 0.39951256E+03</pdfrwt>
<pdfrwt beam="2">  1       21 0.33205903E-02 0.39951256E+03</pdfrwt>
<totfact> 0.27551814E+04</totfact>
</mgrwt>
</event>
<event>
 7    0  0.4725730E-002  0.4643676E+03  0.7546771E-02  0.1023522E+00
         21   -1    0    0  502  501  0.00000000000E+00  0.00000000000E+00  0.40955342137E+02  0.40955342137E+02  0.00000000000E+00 0.  1.
         21   -1    0    0  501  502 -0.00000000000E+00 -0.00000000000E+00 -0.13162953050E+04  0.13162953050E+04  0.00000000000E+00 0.  1.
      99926    2    1    2    0    0 -0.14210854715E-13 -0.25257573810E-14 -0.12753399629E+04  0.13572506471E+04  0.46436763268E+03 0.  0.
      99925    2    3    3    0    0  0.12088164610E+03  0.10478938298E+00 -0.75440527392E+03  0.80803953874E+03  0.26303649082E+03 0.  0.
         25    1    4    4    0    0  0.41561315974E+02  0.20025895970E+02 -0.27036181189E+03  0.30144882970E+03  0.12509000000E+03 0.  0.
         25    1    4    4    0    0  0.79320330121E+02 -0.19921106587E+02 -0.48404346203E+03  0.50659070905E+03  0.12509000000E+03 0.  0.
         25    1    3    3    0    0 -0.12088164610E+03 -0.10478938298E+00 -0.52093468895E+03  0.54921110840E+03  0.12509000000E+03 0.  0.
<mgrwt>
<rscale>  2 0.46436763E+03</rscale>
<asrwt>0</asrwt>
<pdfrwt beam="1">  1       21 0.60228455E-02 0.46436763E+03</pdfrwt>
<pdfrwt beam="2">  1       21 0.19357281E+00 0.46436763E+03</pdfrwt>
<totfact> 0.25579911E+04</totfact>
</mgrwt>
</event>
<event>
 7    0  0.4725730E-002  0.4615758E+03  0.7546771E-02  0.1024325E+00
         21   -1    0    0  502  501  0.00000000000E+00  0.00000000000E+00  0.19982701682E+03  0.19982701682E+03  0.00000000000E+00 0. -1.
         21   -1    0    0  501  502 -0.00000000000E+00 -0.00000000000E+00 -0.26654586480E+03  0.26654586480E+03  0.00000000000E+00 0. -1.
      99926    2    1    2    0    0  0.00000000000E+00  0.00000000000E+00 -0.66718847975E+02  0.46637288161E+03  0.46157584429E+03 0.  0.
      99925    2    3    3    0    0  0.70429088599E+01 -0.11900757944E+03 -0.38515557638E+02  0.29128621674E+03  0.26296730852E+03 0.  0.
         25    1    4    4    0    0 -0.19344405329E+02 -0.84923692529E+02 -0.44663525909E+02  0.15883506608E+03  0.12509000000E+03 0.  0.
         25    1    4    4    0    0  0.26387314189E+02 -0.34083886916E+02  0.61479682710E+01  0.13245115066E+03  0.12509000000E+03 0.  0.
         25    1    3    3    0    0 -0.70429088599E+01  0.11900757944E+03 -0.28203290337E+02  0.17508666487E+03  0.12509000000E+03 0.  0.
<mgrwt>
<rscale>  2 0.46157584E+03</rscale>
<asrwt>0</asrwt>
<pdfrwt beam="1">  1       21 0.29386326E-01 0.46157584E+03</pdfrwt>
<pdfrwt beam="2">  1       21 0.39197921E-01 0.46157584E+03</pdfrwt>
<totfact> 0.64280961E+04</totfact>
</mgrwt>
</event>
<event>
 7    0  0.4725730E-002  0.4832141E+03  0.7546771E-02  0.1018256E+00
         21   -1    0    0  502  501  0.00000000000E+00  0.00000000000E+00  0.21884193156E+02  0.21884193156E+02  0.00000000000E+00 0.  1.
         21   -1    0    0  501  502 -0.00000000000E+00 -0.00000000000E+00 -0.26674036956E+04  0.26674036956E+04  0.00000000000E+00 0.  1.
      99926    2    1    2    0    0  0.00000000000E+00  0.00000000000E+00 -0.26455195025E+04  0.26892878888E+04  0.48321414590E+03 0.  0.
      99925    2    3    3    0    0 -0.74998701720E+02 -0.94257739002E+02 -0.12511788398E+04  0.12841748263E+04  0.26295849249E+03 0.  0.
         25    1    4    4    0    0 -0.57954413633E+02 -0.12676524379E+02 -0.56308469463E+03  0.57985454190E+03  0.12509000000E+03 0.  0.
         25    1    4    4    0    0 -0.17044288087E+02 -0.81581214623E+02 -0.68809414514E+03  0.70432028440E+03  0.12509000000E+03 0.  0.
         25    1    3    3    0    0  0.74998701720E+02  0.94257739002E+02 -0.13943406627E+04  0.14051130625E+04  0.12509000000E+03 0.  0.
<mgrwt>
<rscale>  2 0.48321415E+03</rscale>
<asrwt>0</asrwt>
<pdfrwt beam="1">  1       21 0.32182646E-02 0.48321415E+03</pdfrwt>
<pdfrwt beam="2">  1       21 0.39226514E+00 0.48321415E+03</pdfrwt>
<totfact> 0.43475562E+03</totfact>
</mgrwt>
</event>
<event>
 7    0  0.4725730E-002  0.4497080E+03  0.7546771E-02  0.1027809E+00
         21   -1    0    0  502  501  0.00000000000E+00  0.00000000000E+00  0.92084735467E+03  0.92084735467E+03  0.00000000000E+00 0. -1.
         21   -1    0    0  501  502 -0.00000000000E+00 -0.00000000000E+00 -0.54905206526E+02  0.54905206526E+02  0.00000000000E+00 0. -1.
      99926    2    1    2    0    0  0.14210854715E-13 -0.35527136788E-14  0.86594214814E+03  0.97575256120E+03  0.44970796830E+03 0.  0.
      99925    2    3    3    0    0  0.94096925949E+02 -0.25514288041E+02  0.44595994653E+03  0.52682298082E+03  0.26297712608E+03 0.  0.
         25    1    4    4    0    0  0.56402990088E+02 -0.41338716983E+02  0.28423578036E+03  0.31832008065E+03  0.12509000000E+03 0.  0.
         25    1    3    3    0    0 -0.94096925949E+02  0.25514288041E+02  0.41998220161E+03  0.44892958038E+03  0.12509000000E+03 0.  0.
         25    1    4    4    0    0  0.37693935861E+02  0.15824428942E+02  0.16172416618E+03  0.20850290016E+03  0.12509000000E+03 0.  0.
<mgrwt>
<rscale>  2 0.44970797E+03</rscale>
<asrwt>0</asrwt>
<pdfrwt beam="1">  1       21 0.13541872E+00 0.44970797E+03</pdfrwt>
<pdfrwt beam="2">  1       21 0.80742957E-02 0.44970797E+03</pdfrwt>
<totfact> 0.41818575E+04</totfact>
</mgrwt>
</event>
<event>
 7    0  0.4725730E-002  0.4517198E+03  0.7546771E-02  0.1027210E+00
         21   -1    0    0  502  501  0.00000000000E+00  0.00000000000E+00  0.23272916968E+03  0.23272916968E+03  0.00000000000E+00 0. -1.
         21   -1    0    0  501  502 -0.00000000000E+00 -0.00000000000E+00 -0.21919333662E+03  0.21919333662E+03  0.00000000000E+00 0. -1.
      99926    2    1    2    0    0  0.00000000000E+00 -0.14210854715E-13  0.13535833061E+02  0.45192250631E+03  0.45171975043E+03 0.  0.
      99925    2    3    3    0    0 -0.27176042062E+02 -0.10620988423E+03  0.17892650853E+02  0.28553270274E+03  0.26303935183E+03 0.  0.
         25    1    4    4    0    0 -0.52996392193E+01 -0.16780449831E+02 -0.13607512789E+02  0.12705251740E+03  0.12509000000E+03 0.  0.
         25    1    3    3    0    0  0.27176042062E+02  0.10620988423E+03 -0.43568177918E+01  0.16638980357E+03  0.12509000000E+03 0.  0.
         25    1    4    4    0    0 -0.21876402843E+02 -0.89429434396E+02  0.31500163642E+02  0.15848018535E+03  0.12509000000E+03 0.  0.
<mgrwt>
<rscale>  2 0.45171975E+03</rscale>
<asrwt>0</asrwt>
<pdfrwt beam="1">  1       21 0.34224878E-01 0.45171975E+03</pdfrwt>
<pdfrwt beam="2">  1       21 0.32234314E-01 0.45171975E+03</pdfrwt>
<totfact> 0.70601680E+04</totfact>
</mgrwt>
</event>
<event>
 7    0  0.4725730E-002  0.4369520E+03  0.7546771E-02  0.1031686E+00
         21   -1    0    0  502  501  0.00000000000E+00  0.00000000000E+00  0.73005823852E+02  0.73005823852E+02  0.00000000000E+00 0.  1.
         21   -1    0    0  501  502 -0.00000000000E+00 -0.00000000000E+00 -0.65380751010E+03  0.65380751010E+03  0.00000000000E+00 0.  1.
      99926    2    1    2    0    0  0.71054273576E-14 -0.71054273576E-14 -0.58080168625E+03  0.72681333395E+03  0.43695196951E+03 0.  0.
      99925    2    3    3    0    0  0.62601427906E+02 -0.62389314254E+02 -0.31598542700E+03  0.42089418684E+03  0.26361669357E+03 0.  0.
         25    1    4    4    0    0  0.23855050116E+02 -0.19879968289E+02 -0.21299702045E+03  0.24895685445E+03  0.12509000000E+03 0.  0.
         25    1    3    3    0    0 -0.62601427906E+02  0.62389314254E+02 -0.26481625925E+03  0.30591914711E+03  0.12509000000E+03 0.  0.
         25    1    4    4    0    0  0.38746377790E+02 -0.42509345965E+02 -0.10298840655E+03  0.17193733239E+03  0.12509000000E+03 0.  0.
<mgrwt>
<rscale>  2 0.43695197E+03</rscale>
<asrwt>0</asrwt>
<pdfrwt beam="1">  1       21 0.10736152E-01 0.43695197E+03</pdfrwt>
<pdfrwt beam="2">  1       21 0.96148153E-01 0.43695197E+03</pdfrwt>
<totfact> 0.59473518E+04</totfact>
</mgrwt>
</event>
<event>
 7    0  0.4725730E-002  0.4596493E+03  0.7546771E-02  0.1024883E+00
         21   -1    0    0  502  501  0.00000000000E+00  0.00000000000E+00  0.12353485083E+03  0.12353485083E+03  0.00000000000E+00 0. -1.
         21   -1    0    0  501  502 -0.00000000000E+00 -0.00000000000E+00 -0.42756655607E+03  0.42756655607E+03  0.00000000000E+00 0. -1.
      99926    2    1    2    0    0  0.00000000000E+00  0.00000000000E+00 -0.30403170525E+03  0.55110140690E+03  0.45964930424E+03 0.  0.
      99925    2    3    3    0    0 -0.90701220905E+02 -0.20557013210E+02 -0.10449486308E+03  0.29789840189E+03  0.26301136700E+03 0.  0.
         25    1    3    3    0    0  0.90701220905E+02  0.20557013210E+02 -0.19953684217E+03  0.25320300501E+03  0.12509000000E+03 0.  0.
         25    1    4    4    0    0 -0.48764022190E+01 -0.19893080547E+02 -0.56559890478E+02  0.13880217312E+03  0.12509000000E+03 0.  0.
         25    1    4    4    0    0 -0.85824818685E+02 -0.66393266348E+00 -0.47934972600E+02  0.15909622876E+03  0.12509000000E+03 0.  0.
<mgrwt>
<rscale>  2 0.45964930E+03</rscale>
<asrwt>0</asrwt>
<pdfrwt beam="1">  1       21 0.18166890E-01 0.45964930E+03</pdfrwt>
<pdfrwt beam="2">  1       21 0.62877434E-01 0.45964930E+03</pdfrwt>
<totfact> 0.59572048E+04</totfact>
</mgrwt>
</event>
<event>
 7    0  0.4725730E-002  0.4334162E+03  0.7546771E-02  0.1032786E+00
         21   -1    0    0  502  501  0.00000000000E+00  0.00000000000E+00  0.98534517444E+03  0.98534517444E+03  0.00000000000E+00 0. -1.
         21   -1    0    0  501  502 -0.00000000000E+00 -0.00000000000E+00 -0.47660872579E+02  0.47660872579E+02  0.00000000000E+00 0. -1.
      99926    2    1    2    0    0  0.00000000000E+00  0.00000000000E+00  0.93768430187E+03  0.10330060470E+04  0.43341624707E+03 0.  0.
      99925    2    3    3    0    0 -0.35957383966E+02  0.83452616082E+02  0.62947538651E+03  0.68819085565E+03  0.26288803509E+03 0.  0.
         25    1    4    4    0    0 -0.36241835370E+02  0.33006647615E+02  0.40059740472E+03  0.42252656507E+03  0.12509000000E+03 0.  0.
         25    1    4    4    0    0  0.28445140388E+00  0.50445968467E+02  0.22887798178E+03  0.26566429059E+03  0.12509000000E+03 0.  0.
         25    1    3    3    0    0  0.35957383966E+02 -0.83452616082E+02  0.30820891536E+03  0.34481519137E+03  0.12509000000E+03 0.  0.
<mgrwt>
<rscale>  2 0.43341625E+03</rscale>
<asrwt>0</asrwt>
<pdfrwt beam="1">  1       21 0.14490369E+00 0.43341625E+03</pdfrwt>
<pdfrwt beam="2">  1       21 0.70089525E-02 0.43341625E+03</pdfrwt>
<totfact> 0.45029323E+04</totfact>
</mgrwt>
</event>
<event>
 7    0  0.4725730E-002  0.4578884E+03  0.7546771E-02  0.1025395E+00
         21   -1    0    0  502  501  0.00000000000E+00  0.00000000000E+00  0.10496683183E+04  0.10496683183E+04  0.00000000000E+00 0.  1.
         21   -1    0    0  501  502 -0.00000000000E+00 -0.00000000000E+00 -0.49935243192E+02  0.49935243192E+02  0.00000000000E+00 0.  1.
      99926    2    1    2    0    0  0.71054273576E-14  0.00000000000E+00  0.99973307513E+03  0.10996035615E+04  0.45788838267E+03 0.  0.
      99925    2    3    3    0    0  0.41126590163E+02 -0.47087947088E+02  0.86174087332E+03  0.90313975559E+03  0.26297417020E+03 0.  0.
         25    1    3    3    0    0 -0.41126590163E+02  0.47087947088E+02  0.13799220181E+03  0.19646380593E+03  0.12509000000E+03 0.  0.
         25    1    4    4    0    0  0.50722308830E+02 -0.60570427587E+01  0.50494052607E+03  0.52270630697E+03  0.12509000000E+03 0.  0.
         25    1    4    4    0    0 -0.95957186669E+01 -0.41030904329E+02  0.35680034725E+03  0.38043344861E+03  0.12509000000E+03 0.  0.
<mgrwt>
<rscale>  2 0.45788838E+03</rscale>
<asrwt>0</asrwt>
<pdfrwt beam="1">  1       21 0.15436297E+00 0.45788838E+03</pdfrwt>
<pdfrwt beam="2">  1       21 0.73434188E-02 0.45788838E+03</pdfrwt>
<totfact> 0.34719063E+04</totfact>
</mgrwt>
</event>
<event>
 7    0  0.4725730E-002  0.4567457E+03  0.7546771E-02  0.1025729E+00
         21   -1    0    0  502  501  0.00000000000E+00  0.00000000000E+00  0.32162619203E+03  0.32162619203E+03  0.00000000000E+00 0. -1.
         21   -1    0    0  501  502 -0.00000000000E+00 -0.00000000000E+00 -0.16215770550E+03  0.16215770550E+03  0.00000000000E+00 0. -1.
      99926    2    1    2    0    0  0.00000000000E+00  0.00000000000E+00  0.15946848652E+03  0.48378389753E+03  0.45674572939E+03 0.  0.
      99925    2    3    3    0    0  0.49606348832E+02 -0.10074911901E+03  0.12526259745E+03  0.31223586993E+03  0.26303867648E+03 0.  0.
         25    1    4    4    0    0  0.55025180800E+02 -0.26986617928E+02  0.45939958078E+02  0.14667663726E+03  0.12509000000E+03 0.  0.
         25    1    3    3    0    0 -0.49606348832E+02  0.10074911901E+03  0.34205889067E+02  0.17154802760E+03  0.12509000000E+03 0.  0.
         25    1    4    4    0    0 -0.54188319674E+01 -0.73762501084E+02  0.79322639376E+02  0.16555923267E+03  0.12509000000E+03 0.  0.
<mgrwt>
<rscale>  2 0.45674573E+03</rscale>
<asrwt>0</asrwt>
<pdfrwt beam="1">  1       21 0.47297969E-01 0.45674573E+03</pdfrwt>
<pdfrwt beam="2">  1       21 0.23846721E-01 0.45674573E+03</pdfrwt>
<totfact> 0.65513102E+04</totfact>
</mgrwt>
</event>
<event>
 7    0  0.4725730E-002  0.4103251E+03  0.7546771E-02  0.1040262E+00
         21   -1    0    0  502  501  0.00000000000E+00  0.00000000000E+00  0.80806667049E+02  0.80806667049E+02  0.00000000000E+00 0.  1.
         21   -1    0    0  501  502 -0.00000000000E+00 -0.00000000000E+00 -0.52089358730E+03  0.52089358730E+03  0.00000000000E+00 0.  1.
      99926    2    1    2    0    0  0.35527136788E-14 -0.26645352591E-14 -0.44008692025E+03  0.60170025435E+03  0.41032511343E+03 0.  0.
      99925    2    3    3    0    0  0.26881475384E+02  0.57339798148E+01 -0.20726244929E+03  0.33597439068E+03  0.26299349054E+03 0.  0.
         25    1    4    4    0    0  0.37781085700E+01 -0.35478818393E+02 -0.11381350275E+03  0.17284108935E+03  0.12509000000E+03 0.  0.
         25    1    4    4    0    0  0.23103366814E+02  0.41212798208E+02 -0.93448946538E+02  0.16313330133E+03  0.12509000000E+03 0.  0.
         25    1    3    3    0    0 -0.26881475384E+02 -0.57339798148E+01 -0.23282447096E+03  0.26572586367E+03  0.12509000000E+03 0.  0.
<mgrwt>
<rscale>  2 0.41032511E+03</rscale>
<asrwt>0</asrwt>
<pdfrwt beam="1">  1       21 0.11883334E-01 0.41032511E+03</pdfrwt>
<pdfrwt beam="2">  1       21 0.76601996E-01 0.41032511E+03</pdfrwt>
<totfact> 0.84742713E+04</totfact>
</mgrwt>
</event>
<event>
 7    0  0.4725730E-002  0.4652926E+03  0.7546771E-02  0.1023257E+00
         21   -1    0    0  502  501  0.00000000000E+00  0.00000000000E+00  0.67907042910E+03  0.67907042910E+03  0.00000000000E+00 0.  1.
         21   -1    0    0  501  502 -0.00000000000E+00 -0.00000000000E+00 -0.79703513704E+02  0.79703513704E+02  0.00000000000E+00 0.  1.
      99926    2    1    2    0    0 -0.71054273576E-14  0.00000000000E+00  0.59936691539E+03  0.75877394280E+03  0.46529259290E+03 0.  0.
      99925    2    3    3    0    0 -0.54700796397E+02  0.10580229484E+03  0.32702266623E+03  0.43627556936E+03  0.26307079935E+03 0.  0.
         25    1    4    4    0    0 -0.68121892167E+02  0.47834138367E+02  0.17120209220E+03  0.22778577976E+03  0.12509000000E+03 0.  0.
         25    1    3    3    0    0  0.54700796397E+02 -0.10580229484E+03  0.27234424917E+03  0.32249837345E+03  0.12509000000E+03 0.  0.
         25    1    4    4    0    0  0.13421095770E+02  0.57968156477E+02  0.15582057403E+03  0.20848978960E+03  0.12509000000E+03 0.  0.
<mgrwt>
<rscale>  2 0.46529259E+03</rscale>
<asrwt>0</asrwt>
<pdfrwt beam="1">  1       21 0.99863295E-01 0.46529259E+03</pdfrwt>
<pdfrwt beam="2">  1       21 0.11721105E-01 0.46529259E+03</pdfrwt>
<totfact> 0.45991377E+04</totfact>
</mgrwt>
</event>
<event>
 7    0  0.4725730E-002  0.4491388E+03  0.7546771E-02  0.1027979E+00
         21   -1    0    0  502  501  0.00000000000E+00  0.00000000000E+00  0.22125637683E+03  0.22125637683E+03  0.00000000000E+00 0.  1.
         21   -1    0    0  501  502 -0.00000000000E+00 -0.00000000000E+00 -0.22793200811E+03  0.22793200811E+03  0.00000000000E+00 0.  1.
      99926    2    1    2    0    0  0.00000000000E+00  0.00000000000E+00 -0.66756312808E+01  0.44918838495E+03  0.44913877713E+03 0.  0.
      99925    2    3    3    0    0  0.19455206596E+02 -0.94979496386E+02 -0.51009171135E+02  0.28483334044E+03  0.26292296684E+03 0.  0.
         25    1    3    3    0    0 -0.19455206596E+02  0.94979496386E+02  0.44333539854E+02  0.16435504450E+03  0.12509000000E+03 0.  0.
         25    1    4    4    0    0 -0.38090580182E+01 -0.29744836788E+02 -0.59226016458E+02  0.14161388832E+03  0.12509000000E+03 0.  0.
         25    1    4    4    0    0  0.23264264614E+02 -0.65234659598E+02  0.82168453228E+01  0.14321945213E+03  0.12509000000E+03 0.  0.
<mgrwt>
<rscale>  2 0.44913878E+03</rscale>
<asrwt>0</asrwt>
<pdfrwt beam="1">  1       21 0.32537703E-01 0.44913878E+03</pdfrwt>
<pdfrwt beam="2">  1       21 0.33519413E-01 0.44913878E+03</pdfrwt>
<totfact> 0.72295989E+04</totfact>
</mgrwt>
</event>
<event>
 7    0  0.4725730E-002  0.4494298E+03  0.7546771E-02  0.1027892E+00
         21   -1    0    0  502  501  0.00000000000E+00  0.00000000000E+00  0.11239631027E+04  0.11239631027E+04  0.00000000000E+00 0. -1.
         21   -1    0    0  501  502 -0.00000000000E+00 -0.00000000000E+00 -0.44927450255E+02  0.44927450255E+02  0.00000000000E+00 0. -1.
      99926    2    1    2    0    0  0.00000000000E+00  0.00000000000E+00  0.10790356524E+04  0.11688905529E+04  0.44942984495E+03 0.  0.
      99925    2    3    3    0    0 -0.25728025448E+02 -0.97548605084E+02  0.77624449270E+03  0.82609665545E+03  0.26401232934E+03 0.  0.
         25    1    4    4    0    0 -0.12850782973E+02 -0.26821686360E+02  0.25977139315E+03  0.28985035843E+03  0.12509000000E+03 0.  0.
         25    1    4    4    0    0 -0.12877242475E+02 -0.70726918724E+02  0.51647309955E+03  0.53624629702E+03  0.12509000000E+03 0.  0.
         25    1    3    3    0    0  0.25728025448E+02  0.97548605084E+02  0.30279115972E+03  0.34279389748E+03  0.12509000000E+03 0.  0.
<mgrwt>
<rscale>  2 0.44942984E+03</rscale>
<asrwt>0</asrwt>
<pdfrwt beam="1">  1       21 0.16528867E+00 0.44942984E+03</pdfrwt>
<pdfrwt beam="2">  1       21 0.66069787E-02 0.44942984E+03</pdfrwt>
<totfact> 0.34637014E+04</totfact>
</mgrwt>
</event>
<event>
 7    0  0.4725730E-002  0.4575725E+03  0.7546771E-02  0.1025488E+00
         21   -1    0    0  502  501  0.00000000000E+00  0.00000000000E+00  0.14024793806E+04  0.14024793806E+04  0.00000000000E+00 0. -1.
         21   -1    0    0  501  502 -0.00000000000E+00 -0.00000000000E+00 -0.37321866251E+02  0.37321866251E+02  0.00000000000E+00 0. -1.
      99926    2    1    2    0    0  0.00000000000E+00  0.71054273576E-14  0.13651575144E+04  0.14398012469E+04  0.45757249857E+03 0.  0.
      99925    2    3    3    0    0 -0.34252098924E+02 -0.36293313394E+02  0.11851164603E+04  0.12149619707E+04  0.26294705699E+03 0.  0.
         25    1    4    4    0    0  0.32151660793E+01 -0.53157606768E+02  0.59439356643E+03  0.60974362511E+03  0.12509000000E+03 0.  0.
         25    1    4    4    0    0 -0.37467265003E+02  0.16864293374E+02  0.59072289388E+03  0.60521834555E+03  0.12509000000E+03 0.  0.
         25    1    3    3    0    0  0.34252098924E+02  0.36293313394E+02  0.18004105404E+03  0.22483927619E+03  0.12509000000E+03 0.  0.
<mgrwt>
<rscale>  2 0.45757250E+03</rscale>
<asrwt>0</asrwt>
<pdfrwt beam="1">  1       21 0.20624693E+00 0.45757250E+03</pdfrwt>
<pdfrwt beam="2">  1       21 0.54885106E-02 0.45757250E+03</pdfrwt>
<totfact> 0.24791186E+04</totfact>
</mgrwt>
</event>
<event>
 7    0  0.4725730E-002  0.4591170E+03  0.7546771E-02  0.1025038E+00
         21   -1    0    0  502  501  0.00000000000E+00  0.00000000000E+00  0.36884288399E+02  0.36884288399E+02  0.00000000000E+00 0. -1.
         21   -1    0    0  501  502 -0.00000000000E+00 -0.00000000000E+00 -0.14287140097E+04  0.14287140097E+04  0.00000000000E+00 0. -1.
      99926    2    1    2    0    0  0.71054273576E-14  0.00000000000E+00 -0.13918297213E+04  0.14655982981E+04  0.45911697670E+03 0.  0.
      99925    2    3    3    0    0  0.46579495363E+02  0.54172277847E+02 -0.11683211136E+04  0.11996887441E+04  0.26301059529E+03 0.  0.
         25    1    3    3    0    0 -0.46579495363E+02 -0.54172277847E+02 -0.22350860771E+03  0.26590955397E+03  0.12509000000E+03 0.  0.
         25    1    4    4    0    0  0.62744361089E+02  0.20052328352E+02 -0.57062467313E+03  0.58787666768E+03  0.12509000000E+03 0.  0.
         25    1    4    4    0    0 -0.16164865726E+02  0.34119949495E+02 -0.59769644045E+03  0.61181207643E+03  0.12509000000E+03 0.  0.
<mgrwt>
<rscale>  2 0.45911698E+03</rscale>
<asrwt>0</asrwt>
<pdfrwt beam="1">  1       21 0.54241596E-02 0.45911698E+03</pdfrwt>
<pdfrwt beam="2">  1       21 0.21010502E+00 0.45911698E+03</pdfrwt>
<totfact> 0.23862535E+04</totfact>
</mgrwt>
</event>
<event>
 7    0  0.4725730E-002  0.4546116E+03  0.7546771E-02  0.1026356E+00
         21   -1    0    0  502  501  0.00000000000E+00  0.00000000000E+00  0.35440188365E+03  0.35440188365E+03  0.00000000000E+00 0.  1.
         21   -1    0    0  501  502 -0.00000000000E+00 -0.00000000000E+00 -0.14578905871E+03  0.14578905871E+03  0.00000000000E+00 0.  1.
      99926    2    1    2    0    0  0.26645352591E-14  0.00000000000E+00  0.20861282495E+03  0.50019094236E+03  0.45461155736E+03 0.  0.
      99925    2    3    3    0    0  0.50592306954E+01 -0.66337867168E+02  0.31502701021E+02  0.27338306654E+03  0.26328610382E+03 0.  0.
         25    1    4    4    0    0 -0.18676416900E+02 -0.40690932579E+02 -0.18636270375E+02  0.13416176510E+03  0.12509000000E+03 0.  0.
         25    1    4    4    0    0  0.23735647596E+02 -0.25646934589E+02  0.50138971396E+02  0.13922130144E+03  0.12509000000E+03 0.  0.
         25    1    3    3    0    0 -0.50592306954E+01  0.66337867168E+02  0.17711012392E+03  0.22680787582E+03  0.12509000000E+03 0.  0.
<mgrwt>
<rscale>  2 0.45461156E+03</rscale>
<asrwt>0</asrwt>
<pdfrwt beam="1">  1       21 0.52117924E-01 0.45461156E+03</pdfrwt>
<pdfrwt beam="2">  1       21 0.21439568E-01 0.45461156E+03</pdfrwt>
<totfact> 0.65458856E+04</totfact>
</mgrwt>
</event>
<event>
 7    0  0.4725730E-002  0.4544961E+03  0.7546771E-02  0.1026390E+00
         21   -1    0    0  502  501  0.00000000000E+00  0.00000000000E+00  0.94960095127E+03  0.94960095127E+03  0.00000000000E+00 0. -1.
         21   -1    0    0  501  502 -0.00000000000E+00 -0.00000000000E+00 -0.54382509281E+02  0.54382509281E+02  0.00000000000E+00 0. -1.
      99926    2    1    2    0    0  0.00000000000E+00  0.00000000000E+00  0.89521844199E+03  0.10039834606E+04  0.45449612780E+03 0.  0.
      99925    2    3    3    0    0 -0.35906345363E+02 -0.94749632328E+02  0.45578092133E+03  0.53598816023E+03  0.26321151417E+03 0.  0.
         25    1    4    4    0    0  0.73773883317E+01 -0.73659565360E+02  0.27357570152E+03  0.30979239821E+03  0.12509000000E+03 0.  0.
         25    1    4    4    0    0 -0.43283733695E+02 -0.21090066968E+02  0.18220521981E+03  0.22619576201E+03  0.12509000000E+03 0.  0.
         25    1    3    3    0    0  0.35906345363E+02  0.94749632328E+02  0.43943752066E+03  0.46799530033E+03  0.12509000000E+03 0.  0.
<mgrwt>
<rscale>  2 0.45449613E+03</rscale>
<asrwt>0</asrwt>
<pdfrwt beam="1">  1       21 0.13964719E+00 0.45449613E+03</pdfrwt>
<pdfrwt beam="2">  1       21 0.79974284E-02 0.45449613E+03</pdfrwt>
<totfact> 0.39166104E+04</totfact>
</mgrwt>
</event>
<event>
 7    0  0.4725730E-002  0.4444457E+03  0.7546771E-02  0.1029391E+00
         21   -1    0    0  502  501  0.00000000000E+00  0.00000000000E+00  0.12446819521E+03  0.12446819521E+03  0.00000000000E+00 0. -1.
         21   -1    0    0  501  502 -0.00000000000E+00 -0.00000000000E+00 -0.39675194918E+03  0.39675194918E+03  0.00000000000E+00 0. -1.
      99926    2    1    2    0    0  0.00000000000E+00 -0.14210854715E-13 -0.27228375397E+03  0.52122014439E+03  0.44444571800E+03 0.  0.
      99925    2    3    3    0    0 -0.63937959873E+02 -0.73969281022E+02 -0.13501660209E+03  0.31134090213E+03  0.26295276620E+03 0.  0.
         25    1    3    3    0    0  0.63937959873E+02  0.73969281022E+02 -0.13726715188E+03  0.20987924227E+03  0.12509000000E+03 0.  0.
         25    1    4    4    0    0 -0.41857021414E+02 -0.49374113116E+02 -0.11195151493E+03  0.17991793430E+03  0.12509000000E+03 0.  0.
         25    1    4    4    0    0 -0.22080938459E+02 -0.24595167906E+02 -0.23065087157E+02  0.13142296783E+03  0.12509000000E+03 0.  0.
<mgrwt>
<rscale>  2 0.44444572E+03</rscale>
<asrwt>0</asrwt>
<pdfrwt beam="1">  1       21 0.18304147E-01 0.44444572E+03</pdfrwt>
<pdfrwt beam="2">  1       21 0.58345874E-01 0.44444572E+03</pdfrwt>
<totfact> 0.69431980E+04</totfact>
</mgrwt>
</event>
<event>
 7    0  0.4725730E-002  0.4604134E+03  0.7546771E-02  0.1024661E+00
         21   -1    0    0  502  501  0.00000000000E+00  0.00000000000E+00  0.65360324219E+03  0.65360324219E+03  0.00000000000E+00 0. -1.
         21   -1    0    0  501  502 -0.00000000000E+00 -0.00000000000E+00 -0.81081502794E+02  0.81081502794E+02  0.00000000000E+00 0. -1.
      99926    2    1    2    0    0  0.00000000000E+00  0.71054273576E-14  0.57252173939E+03  0.73468474498E+03  0.46041343641E+03 0.  0.
      99925    2    3    3    0    0 -0.76840941584E+02  0.49740875302E+02  0.47787219915E+03  0.55306776189E+03  0.26295137486E+03 0.  0.
         25    1    4    4    0    0 -0.11750793573E+02 -0.33408972489E+01  0.25118531254E+03  0.28087508270E+03  0.12509000000E+03 0.  0.
         25    1    3    3    0    0  0.76840941584E+02 -0.49740875302E+02  0.94649540244E+02  0.18161698309E+03  0.12509000000E+03 0.  0.
         25    1    4    4    0    0 -0.65090148011E+02  0.53081772551E+02  0.22668688661E+03  0.27219267919E+03  0.12509000000E+03 0.  0.
<mgrwt>
<rscale>  2 0.46041344E+03</rscale>
<asrwt>0</asrwt>
<pdfrwt beam="1">  1       21 0.96118121E-01 0.46041344E+03</pdfrwt>
<pdfrwt beam="2">  1       21 0.11923751E-01 0.46041344E+03</pdfrwt>
<totfact> 0.48943227E+04</totfact>
</mgrwt>
</event>
<event>
 7    0  0.4725730E-002  0.4575083E+03  0.7546771E-02  0.1025506E+00
         21   -1    0    0  502  501  0.00000000000E+00  0.00000000000E+00  0.13288215868E+03  0.13288215868E+03  0.00000000000E+00 0. -1.
         21   -1    0    0  501  502 -0.00000000000E+00 -0.00000000000E+00 -0.39379601645E+03  0.39379601645E+03  0.00000000000E+00 0. -1.
      99926    2    1    2    0    0  0.00000000000E+00  0.00000000000E+00 -0.26091385777E+03  0.52667817513E+03  0.45750831575E+03 0.  0.
      99925    2    3    3    0    0 -0.10149662984E+03  0.37867850347E+02 -0.20990792376E+03  0.35351740196E+03  0.26301649582E+03 0.  0.
         25    1    4    4    0    0 -0.65909495169E+02 -0.12339747231E+02 -0.13195951423E+03  0.19379667802E+03  0.12509000000E+03 0.  0.
         25    1    4    4    0    0 -0.35587134676E+02  0.50207597578E+02 -0.77948409521E+02  0.15972072394E+03  0.12509000000E+03 0.  0.
         25    1    3    3    0    0  0.10149662984E+03 -0.37867850347E+02 -0.51005934013E+02  0.17316077317E+03  0.12509000000E+03 0.  0.
<mgrwt>
<rscale>  2 0.45750832E+03</rscale>
<asrwt>0</asrwt>
<pdfrwt beam="1">  1       21 0.19541494E-01 0.45750832E+03</pdfrwt>
<pdfrwt beam="2">  1       21 0.57911180E-01 0.45750832E+03</pdfrwt>
<totfact> 0.62186216E+04</totfact>
</mgrwt>
</event>
<event>
 7    0  0.4725730E-002  0.4533598E+03  0.7546771E-02  0.1026725E+00
         21   -1    0    0  502  501  0.00000000000E+00  0.00000000000E+00  0.30634418386E+03  0.30634418386E+03  0.00000000000E+00 0. -1.
         21   -1    0    0  501  502 -0.00000000000E+00 -0.00000000000E+00 -0.16773216201E+03  0.16773216201E+03  0.00000000000E+00 0. -1.
      99926    2    1    2    0    0  0.00000000000E+00  0.53290705182E-14  0.13861202185E+03  0.47407634586E+03  0.45335977888E+03 0.  0.
      99925    2    3    3    0    0  0.48540069733E+02 -0.73807083475E+01 -0.17462817184E+02  0.26812131022E+03  0.26300850516E+03 0.  0.
         25    1    3    3    0    0 -0.48540069733E+02  0.73807083475E+01  0.15607483904E+03  0.20595503564E+03  0.12509000000E+03 0.  0.
         25    1    4    4    0    0 -0.30721536003E+01  0.26472227067E+02 -0.36489237852E+01  0.12794936373E+03  0.12509000000E+03 0.  0.
         25    1    4    4    0    0  0.51612223334E+02 -0.33852935415E+02 -0.13813893399E+02  0.14017194650E+03  0.12509000000E+03 0.  0.
<mgrwt>
<rscale>  2 0.45335978E+03</rscale>
<asrwt>0</asrwt>
<pdfrwt beam="1">  1       21 0.45050616E-01 0.45335978E+03</pdfrwt>
<pdfrwt beam="2">  1       21 0.24666494E-01 0.45335978E+03</pdfrwt>
<totfact> 0.68014914E+04</totfact>
</mgrwt>
</event>
<event>
 7    0  0.4725730E-002  0.4552797E+03  0.7546771E-02  0.1026159E+00
         21   -1    0    0  502  501  0.00000000000E+00  0.00000000000E+00  0.14388063910E+03  0.14388063910E+03  0.00000000000E+00 0. -1.
         21   -1    0    0  501  502 -0.00000000000E+00 -0.00000000000E+00 -0.36015899922E+03  0.36015899922E+03  0.00000000000E+00 0. -1.
      99926    2    1    2    0    0  0.00000000000E+00  0.00000000000E+00 -0.21627836012E+03  0.50403963833E+03  0.45527972495E+03 0.  0.
      99925    2    3    3    0    0  0.65468248107E+02  0.54820652608E+02 -0.53300919795E+02  0.28155244855E+03  0.26294371597E+03 0.  0.
         25    1    4    4    0    0  0.38754889060E+02 -0.12488257455E+02 -0.32691566980E+02  0.13555126208E+03  0.12509000000E+03 0.  0.
         25    1    4    4    0    0  0.26713359047E+02  0.67308910064E+02 -0.20609352815E+02  0.14600118646E+03  0.12509000000E+03 0.  0.
         25    1    3    3    0    0 -0.65468248107E+02 -0.54820652608E+02 -0.16297744032E+03  0.22248718978E+03  0.12509000000E+03 0.  0.
<mgrwt>
<rscale>  2 0.45527972E+03</rscale>
<asrwt>0</asrwt>
<pdfrwt beam="1">  1       21 0.21158918E-01 0.45527972E+03</pdfrwt>
<pdfrwt beam="2">  1       21 0.52964558E-01 0.45527972E+03</pdfrwt>
<totfact> 0.64843695E+04</totfact>
</mgrwt>
</event>
<event>
 7    0  0.4725730E-002  0.4550125E+03  0.7546771E-02  0.1026238E+00
         21   -1    0    0  502  501  0.00000000000E+00  0.00000000000E+00  0.55631146666E+02  0.55631146666E+02  0.00000000000E+00 0.  1.
         21   -1    0    0  501  502 -0.00000000000E+00 -0.00000000000E+00 -0.93039786531E+03  0.93039786531E+03  0.00000000000E+00 0.  1.
      99926    2    1    2    0    0  0.00000000000E+00  0.00000000000E+00 -0.87476671865E+03  0.98602901198E+03  0.45501252775E+03 0.  0.
      99925    2    3    3    0    0  0.10264096926E+03  0.46911413109E+02 -0.55752106120E+03  0.62682410594E+03  0.26333035689E+03 0.  0.
         25    1    4    4    0    0  0.54354684146E+02  0.61224260643E+02 -0.25467453800E+03  0.29531249581E+03  0.12509000000E+03 0.  0.
         25    1    3    3    0    0 -0.10264096926E+03 -0.46911413109E+02 -0.31724565745E+03  0.35920490604E+03  0.12509000000E+03 0.  0.
         25    1    4    4    0    0  0.48286285116E+02 -0.14312847533E+02 -0.30284652320E+03  0.33151161013E+03  0.12509000000E+03 0.  0.
<mgrwt>
<rscale>  2 0.45501253E+03</rscale>
<asrwt>0</asrwt>
<pdfrwt beam="1">  1       21 0.81810510E-02 0.45501253E+03</pdfrwt>
<pdfrwt beam="2">  1       21 0.13682322E+00 0.45501253E+03</pdfrwt>
<totfact> 0.39710621E+04</totfact>
</mgrwt>
</event>
<event>
 7    0  0.4725730E-002  0.4739773E+03  0.7546771E-02  0.1020804E+00
         21   -1    0    0  502  501  0.00000000000E+00  0.00000000000E+00  0.10975516675E+03  0.10975516675E+03  0.00000000000E+00 0.  1.
         21   -1    0    0  501  502 -0.00000000000E+00 -0.00000000000E+00 -0.51171741224E+03  0.51171741224E+03  0.00000000000E+00 0.  1.
      99926    2    1    2    0    0 -0.71054273576E-14  0.00000000000E+00 -0.40196224549E+03  0.62147257899E+03  0.47397734085E+03 0.  0.
      99925    2    3    3    0    0  0.53966069854E+02  0.44518017951E+02 -0.39278557225E+03  0.47785534448E+03  0.26300386663E+03 0.  0.
         25    1    4    4    0    0  0.40185740053E+01  0.12882581683E+02 -0.13025110376E+03  0.18109380988E+03  0.12509000000E+03 0.  0.
         25    1    4    4    0    0  0.49947495849E+02  0.31635436268E+02 -0.26253446849E+03  0.29676153459E+03  0.12509000000E+03 0.  0.
         25    1    3    3    0    0 -0.53966069854E+02 -0.44518017951E+02 -0.91766732412E+01  0.14361723451E+03  0.12509000000E+03 0.  0.
<mgrwt>
<rscale>  2 0.47397734E+03</rscale>
<asrwt>0</asrwt>
<pdfrwt beam="1">  1       21 0.16140466E-01 0.47397734E+03</pdfrwt>
<pdfrwt beam="2">  1       21 0.75252561E-01 0.47397734E+03</pdfrwt>
<totfact> 0.49525511E+04</totfact>
</mgrwt>
</event>
<event>
 6    0  0.4725730E-002  0.4495537E+03  0.7546771E-02  0.1027855E+00
         21   -1    0    0  502  501  0.00000000000E+00  0.00000000000E+00  0.18364398381E+03  0.18364398381E+03  0.00000000000E+00 0. -1.
         21   -1    0    0  501  502 -0.00000000000E+00 -0.00000000000E+00 -0.27512267667E+03  0.27512267667E+03  0.00000000000E+00 0. -1.
      99926    2    1    2    0    0  0.00000000000E+00  0.16653345369E-15 -0.91478692858E+02  0.45876666048E+03  0.44955366479E+03 0.  0.
         25    1    3    3    0    0 -0.49122244514E+02 -0.26832317284E+01 -0.34118768007E+02  0.13867874051E+03  0.12509000000E+03 0.  0.
         25    1    3    3    0    0  0.70912386178E+02 -0.25315294935E+00  0.51575981261E+02  0.15276197348E+03  0.12509000000E+03 0.  0.
         25    1    3    3    0    0 -0.21790141664E+02  0.29363846777E+01 -0.10893590611E+03  0.16732594649E+03  0.12509000000E+03 0.  0.
<mgrwt>
<rscale>  2 0.44955366E+03</rscale>
<asrwt>0</asrwt>
<pdfrwt beam="1">  1       21 0.27006468E-01 0.44955366E+03</pdfrwt>
<pdfrwt beam="2">  1       21 0.40459217E-01 0.44955366E+03</pdfrwt>
<totfact> 0.71312462E+04</totfact>
</mgrwt>
</event>
<event>
 7    0  0.4725730E-002  0.4556990E+03  0.7546771E-02  0.1026036E+00
         21   -1    0    0  502  501  0.00000000000E+00  0.00000000000E+00  0.50423088713E+03  0.50423088713E+03  0.00000000000E+00 0.  1.
         21   -1    0    0  501  502 -0.00000000000E+00 -0.00000000000E+00 -0.10295958377E+03  0.10295958377E+03  0.00000000000E+00 0.  1.
      99926    2    1    2    0    0  0.00000000000E+00  0.00000000000E+00  0.40127130336E+03  0.60719047090E+03  0.45569903340E+03 0.  0.
      99925    2    3    3    0    0  0.76331725416E+02  0.83688796535E+02  0.23716329591E+03  0.37179868434E+03  0.26297810893E+03 0.  0.
         25    1    4    4    0    0  0.78717645018E+02  0.56611063866E+02  0.12739959258E+03  0.20317343448E+03  0.12509000000E+03 0.  0.
         25    1    3    3    0    0 -0.76331725416E+02 -0.83688796535E+02  0.16410800745E+03  0.23539178656E+03  0.12509000000E+03 0.  0.
         25    1    4    4    0    0 -0.23859196022E+01  0.27077732669E+02  0.10976370334E+03  0.16862524986E+03  0.12509000000E+03 0.  0.
<mgrwt>
<rscale>  2 0.45569903E+03</rscale>
<asrwt>0</asrwt>
<pdfrwt beam="1">  1       21 0.74151600E-01 0.45569903E+03</pdfrwt>
<pdfrwt beam="2">  1       21 0.15141116E-01 0.45569903E+03</pdfrwt>
<totfact> 0.57917358E+04</totfact>
</mgrwt>
</event>
<event>
 6    0  0.4725730E-002  0.4463821E+03  0.7546771E-02  0.1028806E+00
         21   -1    0    0  502  501  0.00000000000E+00  0.00000000000E+00  0.35777669452E+03  0.35777669452E+03  0.00000000000E+00 0. -1.
         21   -1    0    0  501  502 -0.00000000000E+00 -0.00000000000E+00 -0.13923276657E+03  0.13923276657E+03  0.00000000000E+00 0. -1.
      99926    2    1    2    0    0  0.71054273576E-14  0.00000000000E+00  0.21854392795E+03  0.49700946108E+03  0.44638207397E+03 0.  0.
         25    1    3    3    0    0  0.22100706184E+02 -0.19362947067E+01  0.11376082791E+03  0.17053218030E+03  0.12509000000E+03 0.  0.
         25    1    3    3    0    0 -0.58901326441E+02  0.76161086551E+02  0.38671283155E+02  0.16252031751E+03  0.12509000000E+03 0.  0.
         25    1    3    3    0    0  0.36800620257E+02 -0.74224791844E+02  0.66111816879E+02  0.16395696328E+03  0.12509000000E+03 0.  0.
<mgrwt>
<rscale>  2 0.44638207E+03</rscale>
<asrwt>0</asrwt>
<pdfrwt beam="1">  1       21 0.52614220E-01 0.44638207E+03</pdfrwt>
<pdfrwt beam="2">  1       21 0.20475407E-01 0.44638207E+03</pdfrwt>
<totfact> 0.70159210E+04</totfact>
</mgrwt>
</event>
<event>
 7    0  0.4725730E-002  0.4547492E+03  0.7546771E-02  0.1026315E+00
         21   -1    0    0  502  501  0.00000000000E+00  0.00000000000E+00  0.72692773541E+02  0.72692773541E+02  0.00000000000E+00 0.  1.
         21   -1    0    0  501  502 -0.00000000000E+00 -0.00000000000E+00 -0.71120154221E+03  0.71120154221E+03  0.00000000000E+00 0.  1.
      99926    2    1    2    0    0  0.17763568394E-14  0.00000000000E+00 -0.63850876867E+03  0.78389431575E+03  0.45474921726E+03 0.  0.
      99925    2    3    3    0    0 -0.52986384444E+01 -0.43592105779E+02 -0.58124992446E+03  0.63948368388E+03  0.26298205264E+03 0.  0.
         25    1    4    4    0    0 -0.40918056823E+02 -0.87829437177E+01 -0.29538447517E+03  0.32349795014E+03  0.12509000000E+03 0.  0.
         25    1    4    4    0    0  0.35619418378E+02 -0.34809162061E+02 -0.28586544930E+03  0.31598573375E+03  0.12509000000E+03 0.  0.
         25    1    3    3    0    0  0.52986384444E+01  0.43592105779E+02 -0.57258844202E+02  0.14441063186E+03  0.12509000000E+03 0.  0.
<mgrwt>
<rscale>  2 0.45474922E+03</rscale>
<asrwt>0</asrwt>
<pdfrwt beam="1">  1       21 0.10690113E-01 0.45474922E+03</pdfrwt>
<pdfrwt beam="2">  1       21 0.10458847E+00 0.45474922E+03</pdfrwt>
<totfact> 0.48649413E+04</totfact>
</mgrwt>
</event>
<event>
 7    0  0.4725730E-002  0.4577133E+03  0.7546771E-02  0.1025447E+00
         21   -1    0    0  502  501  0.00000000000E+00  0.00000000000E+00  0.89422864109E+02  0.89422864109E+02  0.00000000000E+00 0. -1.
         21   -1    0    0  501  502 -0.00000000000E+00 -0.00000000000E+00 -0.58570435225E+03  0.58570435225E+03  0.00000000000E+00 0. -1.
      99926    2    1    2    0    0  0.00000000000E+00  0.11102230246E-14 -0.49628148814E+03  0.67512721636E+03  0.45771327575E+03 0.  0.
      99925    2    3    3    0    0  0.10795166234E+03  0.10583026480E+01 -0.37324812283E+03  0.46911896777E+03  0.26287594663E+03 0.  0.
         25    1    3    3    0    0 -0.10795166234E+03 -0.10583026480E+01 -0.12303336531E+03  0.20600824859E+03  0.12509000000E+03 0.  0.
         25    1    4    4    0    0  0.45277014852E+02  0.27376853854E+02 -0.13450761556E+03  0.19115257504E+03  0.12509000000E+03 0.  0.
         25    1    4    4    0    0  0.62674647489E+02 -0.26318551206E+02 -0.23874050727E+03  0.27796639273E+03  0.12509000000E+03 0.  0.
<mgrwt>
<rscale>  2 0.45771328E+03</rscale>
<asrwt>0</asrwt>
<pdfrwt beam="1">  1       21 0.13150421E-01 0.45771328E+03</pdfrwt>
<pdfrwt beam="2">  1       21 0.86132993E-01 0.45771328E+03</pdfrwt>
<totfact> 0.53129357E+04</totfact>
</mgrwt>
</event>
<event>
 7    0  0.4725730E-002  0.4533752E+03  0.7546771E-02  0.1026720E+00
         21   -1    0    0  502  501  0.00000000000E+00  0.00000000000E+00  0.91237511379E+02  0.91237511379E+02  0.00000000000E+00 0. -1.
         21   -1    0    0  501  502 -0.00000000000E+00 -0.00000000000E+00 -0.56322511710E+03  0.56322511710E+03  0.00000000000E+00 0. -1.
      99926    2    1    2    0    0 -0.14210854715E-13  0.00000000000E+00 -0.47198760572E+03  0.65446262848E+03  0.45337515605E+03 0.  0.
      99925    2    3    3    0    0  0.65164712064E+02 -0.90954472552E+02 -0.29532385504E+03  0.41078918987E+03  0.26270215718E+03 0.  0.
         25    1    3    3    0    0 -0.65164712064E+02  0.90954472552E+02 -0.17666375068E+03  0.24367343860E+03  0.12509000000E+03 0.  0.
         25    1    4    4    0    0  0.41496891350E+02 -0.86694424069E+02 -0.15246377546E+03  0.21938693234E+03  0.12509000000E+03 0.  0.
         25    1    4    4    0    0  0.23667820714E+02 -0.42600484830E+01 -0.14286007958E+03  0.19140225753E+03  0.12509000000E+03 0.  0.
<mgrwt>
<rscale>  2 0.45337516E+03</rscale>
<asrwt>0</asrwt>
<pdfrwt beam="1">  1       21 0.13417281E-01 0.45337516E+03</pdfrwt>
<pdfrwt beam="2">  1       21 0.82827222E-01 0.45337516E+03</pdfrwt>
<totfact> 0.56161458E+04</totfact>
</mgrwt>
</event>
<event>
 7    0  0.4725730E-002  0.4600626E+03  0.7546771E-02  0.1024763E+00
         21   -1    0    0  502  501  0.00000000000E+00  0.00000000000E+00  0.90611377950E+02  0.90611377950E+02  0.00000000000E+00 0. -1.
         21   -1    0    0  501  502 -0.00000000000E+00 -0.00000000000E+00 -0.58397070389E+03  0.58397070389E+03  0.00000000000E+00 0. -1.
      99926    2    1    2    0    0 -0.44408920985E-15  0.71054273576E-14 -0.49335932594E+03  0.67458208184E+03  0.46006256167E+03 0.  0.
      99925    2    3    3    0    0 -0.23607839680E+01  0.61070830910E+02 -0.45671610845E+03  0.53061870741E+03  0.26311858400E+03 0.  0.
         25    1    4    4    0    0  0.65110036455E+01  0.18776110871E+02 -0.14842625748E+03  0.19512251925E+03  0.12509000000E+03 0.  0.
         25    1    4    4    0    0 -0.88717876136E+01  0.42294720039E+02 -0.30828985097E+03  0.33549618816E+03  0.12509000000E+03 0.  0.
         25    1    3    3    0    0  0.23607839680E+01 -0.61070830910E+02 -0.36643217486E+02  0.14396337443E+03  0.12509000000E+03 0.  0.
<mgrwt>
<rscale>  2 0.46006256E+03</rscale>
<asrwt>0</asrwt>
<pdfrwt beam="1">  1       21 0.13325203E-01 0.46006256E+03</pdfrwt>
<pdfrwt beam="2">  1       21 0.85878040E-01 0.46006256E+03</pdfrwt>
<totfact> 0.52191170E+04</totfact>
</mgrwt>
</event>
<event>
 7    0  0.4725730E-002  0.4541619E+03  0.7546771E-02  0.1026488E+00
         21   -1    0    0  502  501  0.00000000000E+00  0.00000000000E+00  0.27401162687E+03  0.27401162687E+03  0.00000000000E+00 0.  1.
         21   -1    0    0  501  502 -0.00000000000E+00 -0.00000000000E+00 -0.18818820941E+03  0.18818820941E+03  0.00000000000E+00 0.  1.
      99926    2    1    2    0    0  0.00000000000E+00  0.71054273576E-14  0.85823417458E+02  0.46219983629E+03  0.45416189809E+03 0.  0.
      99925    2    3    3    0    0  0.23236085111E+02  0.36140486810E+02  0.15979518674E+03  0.31065650523E+03  0.26291997280E+03 0.  0.
         25    1    4    4    0    0  0.46789277151E+02 -0.13450693336E+01  0.74886054889E+02  0.15312241830E+03  0.12509000000E+03 0.  0.
         25    1    3    3    0    0 -0.23236085111E+02 -0.36140486810E+02 -0.73971769278E+02  0.15154333106E+03  0.12509000000E+03 0.  0.
         25    1    4    4    0    0 -0.23553192040E+02  0.37485556143E+02  0.84909131846E+02  0.15753408693E+03  0.12509000000E+03 0.  0.
<mgrwt>
<rscale>  2 0.45416190E+03</rscale>
<asrwt>0</asrwt>
<pdfrwt beam="1">  1       21 0.40295828E-01 0.45416190E+03</pdfrwt>
<pdfrwt beam="2">  1       21 0.27674736E-01 0.45416190E+03</pdfrwt>
<totfact> 0.68473590E+04</totfact>
</mgrwt>
</event>
<event>
 7    0  0.4725730E-002  0.4544404E+03  0.7546771E-02  0.1026406E+00
         21   -1    0    0  502  501  0.00000000000E+00  0.00000000000E+00  0.11378005674E+03  0.11378005674E+03  0.00000000000E+00 0. -1.
         21   -1    0    0  501  502 -0.00000000000E+00 -0.00000000000E+00 -0.45376156213E+03  0.45376156213E+03  0.00000000000E+00 0. -1.
      99926    2    1    2    0    0 -0.35527136788E-14  0.00000000000E+00 -0.33998150539E+03  0.56754161886E+03  0.45444038678E+03 0.  0.
      99925    2    3    3    0    0 -0.24327007263E+02 -0.10309188556E+02 -0.35084422455E+03  0.43923109934E+03  0.26293384354E+03 0.  0.
         25    1    3    3    0    0  0.24327007263E+02  0.10309188556E+02  0.10862719161E+02  0.12831051952E+03  0.12509000000E+03 0.  0.
         25    1    4    4    0    0 -0.33332523156E+02 -0.37210997307E+02 -0.20137560207E+03  0.24227124598E+03  0.12509000000E+03 0.  0.
         25    1    4    4    0    0  0.90055158923E+01  0.26901808751E+02 -0.14946862248E+03  0.19695985337E+03  0.12509000000E+03 0.  0.
<mgrwt>
<rscale>  2 0.45444039E+03</rscale>
<asrwt>0</asrwt>
<pdfrwt beam="1">  1       21 0.16732361E-01 0.45444039E+03</pdfrwt>
<pdfrwt beam="2">  1       21 0.66729643E-01 0.45444039E+03</pdfrwt>
<totfact> 0.60991490E+04</totfact>
</mgrwt>
</event>
<event>
 7    0  0.4725730E-002  0.4700669E+03  0.7546771E-02  0.1021901E+00
         21   -1    0    0  502  501  0.00000000000E+00  0.00000000000E+00  0.95356513149E+02  0.95356513149E+02  0.00000000000E+00 0.  1.
         21   -1    0    0  501  502 -0.00000000000E+00 -0.00000000000E+00 -0.57930719798E+03  0.57930719798E+03  0.00000000000E+00 0.  1.
      99926    2    1    2    0    0 -0.14210854715E-13  0.00000000000E+00 -0.48395068483E+03  0.67466371113E+03  0.47006686521E+03 0.  0.
      99925    2    3    3    0    0  0.12607180815E+03  0.84573677069E+01 -0.31530386775E+03  0.42960272915E+03  0.26301396919E+03 0.  0.
         25    1    3    3    0    0 -0.12607180815E+03 -0.84573677069E+01 -0.16864681708E+03  0.24506098198E+03  0.12509000000E+03 0.  0.
         25    1    4    4    0    0  0.19816703968E+02  0.14973351860E+02 -0.13873324143E+03  0.18844448360E+03  0.12509000000E+03 0.  0.
         25    1    4    4    0    0  0.10625510418E+03 -0.65159841535E+01 -0.17657062632E+03  0.24115824554E+03  0.12509000000E+03 0.  0.
<mgrwt>
<rscale>  2 0.47006687E+03</rscale>
<asrwt>0</asrwt>
<pdfrwt beam="1">  1       21 0.14023017E-01 0.47006687E+03</pdfrwt>
<pdfrwt beam="2">  1       21 0.85192236E-01 0.47006687E+03</pdfrwt>
<totfact> 0.48302879E+04</totfact>
</mgrwt>
</event>
<event>
 7    0  0.4725730E-002  0.4583600E+03  0.7546771E-02  0.1025258E+00
         21   -1    0    0  502  501  0.00000000000E+00  0.00000000000E+00  0.51257707618E+03  0.51257707618E+03  0.00000000000E+00 0. -1.
         21   -1    0    0  501  502 -0.00000000000E+00 -0.00000000000E+00 -0.10246940794E+03  0.10246940794E+03  0.00000000000E+00 0. -1.
      99926    2    1    2    0    0  0.71054273576E-14  0.17763568394E-14  0.41010766824E+03  0.61504648411E+03  0.45835998742E+03 0.  0.
      99925    2    3    3    0    0 -0.54701160216E+02 -0.56366100278E+01  0.11882203392E+03  0.29330308144E+03  0.26245767951E+03 0.  0.
         25    1    4    4    0    0 -0.35306252804E+02  0.27645420038E+02  0.86259051544E+02  0.15842642712E+03  0.12509000000E+03 0.  0.
         25    1    3    3    0    0  0.54701160216E+02  0.56366100278E+01  0.29128563433E+03  0.32174340268E+03  0.12509000000E+03 0.  0.
         25    1    4    4    0    0 -0.19394907412E+02 -0.33282030066E+02  0.32562982371E+02  0.13487665432E+03  0.12509000000E+03 0.  0.
<mgrwt>
<rscale>  2 0.45835999E+03</rscale>
<asrwt>0</asrwt>
<pdfrwt beam="1">  1       21 0.75378980E-01 0.45835999E+03</pdfrwt>
<pdfrwt beam="2">  1       21 0.15069031E-01 0.45835999E+03</pdfrwt>
<totfact> 0.56253824E+04</totfact>
</mgrwt>
</event>
<event>
 7    0  0.4725730E-002  0.4518351E+03  0.7546771E-02  0.1027176E+00
         21   -1    0    0  502  501  0.00000000000E+00  0.00000000000E+00  0.28771575140E+03  0.28771575140E+03  0.00000000000E+00 0.  1.
         21   -1    0    0  501  502 -0.00000000000E+00 -0.00000000000E+00 -0.17739294317E+03  0.17739294317E+03  0.00000000000E+00 0.  1.
      99926    2    1    2    0    0  0.00000000000E+00  0.84654505628E-15  0.11032280824E+03  0.46510869457E+03  0.45183512009E+03 0.  0.
      99925    2    3    3    0    0  0.10464109275E+03  0.87658603482E-01  0.10455023015E+03  0.30191985692E+03  0.26320160220E+03 0.  0.
         25    1    4    4    0    0  0.84656805954E+02 -0.26572458434E+02  0.64919461286E+02  0.16653802838E+03  0.12509000000E+03 0.  0.
         25    1    3    3    0    0 -0.10464109275E+03 -0.87658603482E-01  0.57725780905E+01  0.16318883765E+03  0.12509000000E+03 0.  0.
         25    1    4    4    0    0  0.19984286794E+02  0.26660117037E+02  0.39630768861E+02  0.13538182854E+03  0.12509000000E+03 0.  0.
<mgrwt>
<rscale>  2 0.45183512E+03</rscale>
<asrwt>0</asrwt>
<pdfrwt beam="1">  1       21 0.42311140E-01 0.45183512E+03</pdfrwt>
<pdfrwt beam="2">  1       21 0.26087197E-01 0.45183512E+03</pdfrwt>
<totfact> 0.69530603E+04</totfact>
</mgrwt>
</event>
<event>
 7    0  0.4725730E-002  0.4598437E+03  0.7546771E-02  0.1024827E+00
         21   -1    0    0  502  501  0.00000000000E+00  0.00000000000E+00  0.12333180261E+03  0.12333180261E+03  0.00000000000E+00 0. -1.
         21   -1    0    0  501  502 -0.00000000000E+00 -0.00000000000E+00 -0.42863281789E+03  0.42863281789E+03  0.00000000000E+00 0. -1.
      99926    2    1    2    0    0 -0.35527136788E-14 -0.35527136788E-14 -0.30530101527E+03  0.55196462050E+03  0.45984370427E+03 0.  0.
      99925    2    3    3    0    0  0.35147577264E+01 -0.19969502484E+02 -0.33037936612E+03  0.42278425693E+03  0.26303016519E+03 0.  0.
         25    1    4    4    0    0 -0.33080097233E+02 -0.11730893998E+02 -0.19808812185E+03  0.23689305356E+03  0.12509000000E+03 0.  0.
         25    1    4    4    0    0  0.36594854959E+02 -0.82386084855E+01 -0.13229124427E+03  0.18589120337E+03  0.12509000000E+03 0.  0.
         25    1    3    3    0    0 -0.35147577264E+01  0.19969502484E+02  0.25078350849E+02  0.12918036357E+03  0.12509000000E+03 0.  0.
<mgrwt>
<rscale>  2 0.45984370E+03</rscale>
<asrwt>0</asrwt>
<pdfrwt beam="1">  1       21 0.18137030E-01 0.45984370E+03</pdfrwt>
<pdfrwt beam="2">  1       21 0.63034238E-01 0.45984370E+03</pdfrwt>
<totfact> 0.59426607E+04</totfact>
</mgrwt>
</event>
<event>
 7    0  0.4725730E-002  0.4534950E+03  0.7546771E-02  0.1026685E+00
         21   -1    0    0  502  501  0.00000000000E+00  0.00000000000E+00  0.53197837028E+02  0.53197837028E+02  0.00000000000E+00 0.  1.
         21   -1    0    0  501  502 -0.00000000000E+00 -0.00000000000E+00 -0.96647594771E+03  0.96647594771E+03  0.00000000000E+00 0.  1.
      99926    2    1    2    0    0  0.00000000000E+00  0.00000000000E+00 -0.91327811069E+03  0.10196737847E+04  0.45349500530E+03 0.  0.
      99925    2    3    3    0    0 -0.78649885147E+02 -0.17345007915E+02 -0.40140100642E+03  0.48661437745E+03  0.26302876392E+03 0.  0.
         25    1    4    4    0    0 -0.79486830212E+02 -0.20680237650E+01 -0.23576848763E+03  0.27849007300E+03  0.12509000000E+03 0.  0.
         25    1    3    3    0    0  0.78649885147E+02  0.17345007915E+02 -0.51187710427E+03  0.53305940729E+03  0.12509000000E+03 0.  0.
         25    1    4    4    0    0  0.83694506529E+00 -0.15276984150E+02 -0.16563251879E+03  0.20812430445E+03  0.12509000000E+03 0.  0.
<mgrwt>
<rscale>  2 0.45349501E+03</rscale>
<asrwt>0</asrwt>
<pdfrwt beam="1">  1       21 0.78232119E-02 0.45349501E+03</pdfrwt>
<pdfrwt beam="2">  1       21 0.14212881E+00 0.45349501E+03</pdfrwt>
<totfact> 0.38864867E+04</totfact>
</mgrwt>
</event>
<event>
 7    0  0.4725730E-002  0.4511257E+03  0.7546771E-02  0.1027387E+00
         21   -1    0    0  502  501  0.00000000000E+00  0.00000000000E+00  0.29365651146E+03  0.29365651146E+03  0.00000000000E+00 0.  1.
         21   -1    0    0  501  502 -0.00000000000E+00 -0.00000000000E+00 -0.17325886813E+03  0.17325886813E+03  0.00000000000E+00 0.  1.
      99926    2    1    2    0    0  0.17763568394E-14  0.00000000000E+00  0.12039764333E+03  0.46691537959E+03  0.45112568003E+03 0.  0.
      99925    2    3    3    0    0 -0.11436264855E+02  0.98238873065E+02  0.27583689292E+02  0.28240629445E+03  0.26307943837E+03 0.  0.
         25    1    3    3    0    0  0.11436264855E+02 -0.98238873065E+02  0.92813954042E+02  0.18450908514E+03  0.12509000000E+03 0.  0.
         25    1    4    4    0    0  0.34921193913E+02  0.46936696274E+02  0.11373937837E+02  0.13856196377E+03  0.12509000000E+03 0.  0.
         25    1    4    4    0    0 -0.46357458768E+02  0.51302176792E+02  0.16209751455E+02  0.14384433068E+03  0.12509000000E+03 0.  0.
<mgrwt>
<rscale>  2 0.45112568E+03</rscale>
<asrwt>0</asrwt>
<pdfrwt beam="1">  1       21 0.43184781E-01 0.45112568E+03</pdfrwt>
<pdfrwt beam="2">  1       21 0.25479245E-01 0.45112568E+03</pdfrwt>
<totfact> 0.69786153E+04</totfact>
</mgrwt>
</event>
<event>
 7    0  0.4725730E-002  0.4487488E+03  0.7546771E-02  0.1028096E+00
         21   -1    0    0  502  501  0.00000000000E+00  0.00000000000E+00  0.61465345088E+02  0.61465345088E+02  0.00000000000E+00 0.  1.
         21   -1    0    0  501  502 -0.00000000000E+00 -0.00000000000E+00 -0.81906104008E+03  0.81906104008E+03  0.00000000000E+00 0.  1.
      99926    2    1    2    0    0  0.00000000000E+00  0.00000000000E+00 -0.75759569499E+03  0.88052638517E+03  0.44874879154E+03 0.  0.
      99925    2    3    3    0    0 -0.77270334079E+02 -0.70686953325E+02 -0.52620441018E+03  0.59740664957E+03  0.26274754758E+03 0.  0.
         25    1    4    4    0    0 -0.65279061488E+02 -0.83605882745E+01 -0.23624785177E+03  0.27530312543E+03  0.12509000000E+03 0.  0.
         25    1    3    3    0    0  0.77270334079E+02  0.70686953325E+02 -0.23139128481E+03  0.28311973560E+03  0.12509000000E+03 0.  0.
         25    1    4    4    0    0 -0.11991272591E+02 -0.62326365050E+02 -0.28995655841E+03  0.32210352414E+03  0.12509000000E+03 0.  0.
<mgrwt>
<rscale>  2 0.44874879E+03</rscale>
<asrwt>0</asrwt>
<pdfrwt beam="1">  1       21 0.90390219E-02 0.44874879E+03</pdfrwt>
<pdfrwt beam="2">  1       21 0.12045015E+00 0.44874879E+03</pdfrwt>
<totfact> 0.46312482E+04</totfact>
</mgrwt>
</event>
<event>
 7    0  0.4725730E-002  0.4548650E+03  0.7546771E-02  0.1026281E+00
         21   -1    0    0  502  501  0.00000000000E+00  0.00000000000E+00  0.76360248514E+03  0.76360248514E+03  0.00000000000E+00 0.  1.
         21   -1    0    0  501  502 -0.00000000000E+00 -0.00000000000E+00 -0.67738845125E+02  0.67738845125E+02  0.00000000000E+00 0.  1.
      99926    2    1    2    0    0  0.00000000000E+00  0.35527136788E-14  0.69586364002E+03  0.83134133027E+03  0.45486503703E+03 0.  0.
      99925    2    3    3    0    0  0.44245890895E+02 -0.27900896032E+02  0.25509764315E+03  0.37019240534E+03  0.26311870054E+03 0.  0.
         25    1    4    4    0    0  0.57539542290E+02  0.12713798243E+01  0.11245474738E+03  0.17778074598E+03  0.12509000000E+03 0.  0.
         25    1    4    4    0    0 -0.13293651395E+02 -0.29172275856E+02  0.14264289577E+03  0.19241165936E+03  0.12509000000E+03 0.  0.
         25    1    3    3    0    0 -0.44245890895E+02  0.27900896032E+02  0.44076599687E+03  0.46114892492E+03  0.12509000000E+03 0.  0.
<mgrwt>
<rscale>  2 0.45486504E+03</rscale>
<asrwt>0</asrwt>
<pdfrwt beam="1">  1       21 0.11229448E+00 0.45486504E+03</pdfrwt>
<pdfrwt beam="2">  1       21 0.99615953E-02 0.45486504E+03</pdfrwt>
<totfact> 0.46334975E+04</totfact>
</mgrwt>
</event>
<event>
 7    0  0.4725730E-002  0.4629611E+03  0.7546771E-02  0.1023926E+00
         21   -1    0    0  502  501  0.00000000000E+00  0.00000000000E+00  0.40834220627E+03  0.40834220627E+03  0.00000000000E+00 0. -1.
         21   -1    0    0  501  502 -0.00000000000E+00 -0.00000000000E+00 -0.13122143470E+03  0.13122143470E+03  0.00000000000E+00 0. -1.
      99926    2    1    2    0    0  0.00000000000E+00  0.35527136788E-14  0.27712077157E+03  0.53956364097E+03  0.46296112215E+03 0.  0.
      99925    2    3    3    0    0  0.95898820694E+02 -0.11481252280E+02  0.25719067931E+03  0.38027421997E+03  0.26293161447E+03 0.  0.
         25    1    4    4    0    0  0.11169500764E+02 -0.21370320050E+02  0.13591341769E+03  0.18628315419E+03  0.12509000000E+03 0.  0.
         25    1    4    4    0    0  0.84729319930E+02  0.98890677698E+01  0.12127726162E+03  0.19399106578E+03  0.12509000000E+03 0.  0.
         25    1    3    3    0    0 -0.95898820694E+02  0.11481252280E+02  0.19930092261E+02  0.15928942100E+03  0.12509000000E+03 0.  0.
<mgrwt>
<rscale>  2 0.46296112E+03</rscale>
<asrwt>0</asrwt>
<pdfrwt beam="1">  1       21 0.60050324E-01 0.46296112E+03</pdfrwt>
<pdfrwt beam="2">  1       21 0.19297270E-01 0.46296112E+03</pdfrwt>
<totfact> 0.58767479E+04</totfact>
</mgrwt>
</event>
<event>
 7    0  0.4725730E-002  0.4618731E+03  0.7546771E-02  0.1024239E+00
         21   -1    0    0  502  501  0.00000000000E+00  0.00000000000E+00  0.20336545439E+03  0.20336545439E+03  0.00000000000E+00 0. -1.
         21   -1    0    0  501  502 -0.00000000000E+00 -0.00000000000E+00 -0.26224553888E+03  0.26224553888E+03  0.00000000000E+00 0. -1.
      99926    2    1    2    0    0  0.00000000000E+00  0.00000000000E+00 -0.58880084493E+02  0.46561099328E+03  0.46187306991E+03 0.  0.
      99925    2    3    3    0    0 -0.90401302793E+02  0.75405777573E+02 -0.58157025384E+02  0.29383655469E+03  0.26286737042E+03 0.  0.
         25    1    3    3    0    0  0.90401302793E+02 -0.75405777573E+02 -0.72305910918E+00  0.17177443859E+03  0.12509000000E+03 0.  0.
         25    1    4    4    0    0 -0.47458219082E+02  0.41958436339E+02 -0.70348344866E+02  0.15687316744E+03  0.12509000000E+03 0.  0.
         25    1    4    4    0    0 -0.42943083710E+02  0.33447341234E+02  0.12191319482E+02  0.13696338724E+03  0.12509000000E+03 0.  0.
<mgrwt>
<rscale>  2 0.46187307E+03</rscale>
<asrwt>0</asrwt>
<pdfrwt beam="1">  1       21 0.29906685E-01 0.46187307E+03</pdfrwt>
<pdfrwt beam="2">  1       21 0.38565520E-01 0.46187307E+03</pdfrwt>
<totfact> 0.64182764E+04</totfact>
</mgrwt>
</event>
<event>
 7    0  0.4725730E-002  0.4518545E+03  0.7546771E-02  0.1027170E+00
         21   -1    0    0  502  501  0.00000000000E+00  0.00000000000E+00  0.13443109981E+03  0.13443109981E+03  0.00000000000E+00 0.  1.
         21   -1    0    0  501  502 -0.00000000000E+00 -0.00000000000E+00 -0.37969729034E+03  0.37969729034E+03  0.00000000000E+00 0.  1.
      99926    2    1    2    0    0  0.00000000000E+00  0.00000000000E+00 -0.24526619053E+03  0.51412839015E+03  0.45185450904E+03 0.  0.
      99925    2    3    3    0    0 -0.70983150957E+02  0.72925490972E+02 -0.10662451632E+03  0.30146490743E+03  0.26297446260E+03 0.  0.
         25    1    4    4    0    0 -0.35790401444E+02  0.23142318105E+01 -0.24886532770E+02  0.13248832446E+03  0.12509000000E+03 0.  0.
         25    1    3    3    0    0  0.70983150957E+02 -0.72925490972E+02 -0.13864167421E+03  0.21266348272E+03  0.12509000000E+03 0.  0.
         25    1    4    4    0    0 -0.35192749513E+02  0.70611259161E+02 -0.81737983548E+02  0.16897658297E+03  0.12509000000E+03 0.  0.
<mgrwt>
<rscale>  2 0.45185451E+03</rscale>
<asrwt>0</asrwt>
<pdfrwt beam="1">  1       21 0.19769280E-01 0.45185451E+03</pdfrwt>
<pdfrwt beam="2">  1       21 0.55837836E-01 0.45185451E+03</pdfrwt>
<totfact> 0.65919039E+04</totfact>
</mgrwt>
</event>
<event>
 7    0  0.4725730E-002  0.4544603E+03  0.7546771E-02  0.1026400E+00
         21   -1    0    0  502  501  0.00000000000E+00  0.00000000000E+00  0.42143327662E+03  0.42143327662E+03  0.00000000000E+00 0. -1.
         21   -1    0    0  501  502 -0.00000000000E+00 -0.00000000000E+00 -0.12251891508E+03  0.12251891508E+03  0.00000000000E+00 0. -1.
      99926    2    1    2    0    0 -0.44408920985E-14  0.00000000000E+00  0.29891436154E+03  0.54395219171E+03  0.45446032976E+03 0.  0.
      99925    2    3    3    0    0  0.70697012546E+01 -0.98792038050E+02  0.25266997028E+03  0.37783205662E+03  0.26287849222E+03 0.  0.
         25    1    3    3    0    0 -0.70697012546E+01  0.98792038050E+02  0.46244391256E+02  0.16612013508E+03  0.12509000000E+03 0.  0.
         25    1    4    4    0    0 -0.26024145684E+02 -0.26185882678E+02  0.14145046331E+03  0.19240243834E+03  0.12509000000E+03 0.  0.
         25    1    4    4    0    0  0.33093846939E+02 -0.72606155371E+02  0.11121950697E+03  0.18542961828E+03  0.12509000000E+03 0.  0.
<mgrwt>
<rscale>  2 0.45446033E+03</rscale>
<asrwt>0</asrwt>
<pdfrwt beam="1">  1       21 0.61975481E-01 0.45446033E+03</pdfrwt>
<pdfrwt beam="2">  1       21 0.18017488E-01 0.45446033E+03</pdfrwt>
<totfact> 0.62534559E+04</totfact>
</mgrwt>
</event>
<event>
 7    0  0.4725730E-002  0.4566768E+03  0.7546771E-02  0.1025749E+00
         21   -1    0    0  502  501  0.00000000000E+00  0.00000000000E+00  0.56431081226E+03  0.56431081226E+03  0.00000000000E+00 0. -1.
         21   -1    0    0  501  502 -0.00000000000E+00 -0.00000000000E+00 -0.92393085792E+02  0.92393085792E+02  0.00000000000E+00 0. -1.
      99926    2    1    2    0    0  0.00000000000E+00  0.00000000000E+00  0.47191772647E+03  0.65670389805E+03  0.45667676661E+03 0.  0.
      99925    2    3    3    0    0  0.29624343908E+02  0.93704812230E+02  0.38284899833E+03  0.47438840223E+03  0.26232195306E+03 0.  0.
         25    1    4    4    0    0  0.36237816305E+01  0.14877146340E+02  0.21487630276E+03  0.24910599123E+03  0.12509000000E+03 0.  0.
         25    1    3    3    0    0 -0.29624343908E+02 -0.93704812230E+02  0.89068728135E+02  0.18231549583E+03  0.12509000000E+03 0.  0.
         25    1    4    4    0    0  0.26000562278E+02  0.78827665890E+02  0.16797269557E+03  0.22528241100E+03  0.12509000000E+03 0.  0.
<mgrwt>
<rscale>  2 0.45667677E+03</rscale>
<asrwt>0</asrwt>
<pdfrwt beam="1">  1       21 0.82986883E-01 0.45667677E+03</pdfrwt>
<pdfrwt beam="2">  1       21 0.13587219E-01 0.45667677E+03</pdfrwt>
<totfact> 0.54591357E+04</totfact>
</mgrwt>
</event>
<event>
 7    0  0.4725730E-002  0.4559202E+03  0.7546771E-02  0.1025971E+00
         21   -1    0    0  502  501  0.00000000000E+00  0.00000000000E+00  0.11469256945E+04  0.11469256945E+04  0.00000000000E+00 0. -1.
         21   -1    0    0  501  502 -0.00000000000E+00 -0.00000000000E+00 -0.45308775273E+02  0.45308775273E+02  0.00000000000E+00 0. -1.
      99926    2    1    2    0    0  0.00000000000E+00  0.35527136788E-14  0.11016169193E+04  0.11922344698E+04  0.45592016209E+03 0.  0.
      99925    2    3    3    0    0  0.51861733596E+02  0.16710799520E+02  0.43095301402E+03  0.50783219619E+03  0.26306681464E+03 0.  0.
         25    1    4    4    0    0  0.26816702293E+02  0.46394635327E+02  0.19201028711E+03  0.23534454777E+03  0.12509000000E+03 0.  0.
         25    1    3    3    0    0 -0.51861733596E+02 -0.16710799520E+02  0.67066390525E+03  0.68440227363E+03  0.12509000000E+03 0.  0.
         25    1    4    4    0    0  0.25045031303E+02 -0.29683835807E+02  0.23894272691E+03  0.27248764842E+03  0.12509000000E+03 0.  0.
<mgrwt>
<rscale>  2 0.45592016E+03</rscale>
<asrwt>0</asrwt>
<pdfrwt beam="1">  1       21 0.16866552E+00 0.45592016E+03</pdfrwt>
<pdfrwt beam="2">  1       21 0.66630559E-02 0.45592016E+03</pdfrwt>
<totfact> 0.32171798E+04</totfact>
</mgrwt>
</event>
<event>
 7    0  0.4725730E-002  0.4530080E+03  0.7546771E-02  0.1026829E+00
         21   -1    0    0  502  501  0.00000000000E+00  0.00000000000E+00  0.17613056026E+03  0.17613056026E+03  0.00000000000E+00 0.  1.
         21   -1    0    0  501  502 -0.00000000000E+00 -0.00000000000E+00 -0.29128424808E+03  0.29128424808E+03  0.00000000000E+00 0.  1.
      99926    2    1    2    0    0  0.35527136788E-14  0.00000000000E+00 -0.11515368782E+03  0.46741480834E+03  0.45300798143E+03 0.  0.
      99925    2    3    3    0    0  0.28379017981E+02 -0.50142243046E+02 -0.17098412050E+03  0.31880741111E+03  0.26283641817E+03 0.  0.
         25    1    3    3    0    0 -0.28379017981E+02  0.50142243046E+02  0.55830432676E+02  0.14860739723E+03  0.12509000000E+03 0.  0.
         25    1    4    4    0    0  0.49080116065E+02 -0.84871191901E+01 -0.72295337727E+02  0.15282346987E+03  0.12509000000E+03 0.  0.
         25    1    4    4    0    0 -0.20701098084E+02 -0.41655123856E+02 -0.98688782772E+02  0.16598394124E+03  0.12509000000E+03 0.  0.
<mgrwt>
<rscale>  2 0.45300798E+03</rscale>
<asrwt>0</asrwt>
<pdfrwt beam="1">  1       21 0.25901553E-01 0.45300798E+03</pdfrwt>
<pdfrwt beam="2">  1       21 0.42835918E-01 0.45300798E+03</pdfrwt>
<totfact> 0.68707831E+04</totfact>
</mgrwt>
</event>
<event>
 7    0  0.4725730E-002  0.4500043E+03  0.7546771E-02  0.1027721E+00
         21   -1    0    0  502  501  0.00000000000E+00  0.00000000000E+00  0.13196998424E+03  0.13196998424E+03  0.00000000000E+00 0.  1.
         21   -1    0    0  501  502 -0.00000000000E+00 -0.00000000000E+00 -0.38361724936E+03  0.38361724936E+03  0.00000000000E+00 0.  1.
      99926    2    1    2    0    0  0.71054273576E-14  0.00000000000E+00 -0.25164726512E+03  0.51558723359E+03  0.45000427709E+03 0.  0.
      99925    2    3    3    0    0 -0.50308753115E+02  0.95482243186E+02 -0.14729845497E+03  0.32017993669E+03  0.26300290420E+03 0.  0.
         25    1    4    4    0    0  0.14949897523E+02  0.51063245690E+02 -0.79383205818E+02  0.15741713999E+03  0.12509000000E+03 0.  0.
         25    1    4    4    0    0 -0.65258650638E+02  0.44418997496E+02 -0.67915249151E+02  0.16276279670E+03  0.12509000000E+03 0.  0.
         25    1    3    3    0    0  0.50308753115E+02 -0.95482243186E+02 -0.10434881015E+03  0.19540729690E+03  0.12509000000E+03 0.  0.
<mgrwt>
<rscale>  2 0.45000428E+03</rscale>
<asrwt>0</asrwt>
<pdfrwt beam="1">  1       21 0.19407351E-01 0.45000428E+03</pdfrwt>
<pdfrwt beam="2">  1       21 0.56414302E-01 0.45000428E+03</pdfrwt>
<totfact> 0.66797547E+04</totfact>
</mgrwt>
</event>
<event>
 7    0  0.4725730E-002  0.4563935E+03  0.7546771E-02  0.1025832E+00
         21   -1    0    0  502  501  0.00000000000E+00  0.00000000000E+00  0.79547054075E+02  0.79547054075E+02  0.00000000000E+00 0.  1.
         21   -1    0    0  501  502 -0.00000000000E+00 -0.00000000000E+00 -0.65462820734E+03  0.65462820734E+03  0.00000000000E+00 0.  1.
      99926    2    1    2    0    0  0.00000000000E+00 -0.71054273576E-14 -0.57508115327E+03  0.73417526142E+03  0.45639345047E+03 0.  0.
      99925    2    3    3    0    0 -0.82359209090E+02  0.34044261687E+02 -0.24572381033E+03  0.37076665046E+03  0.26295563704E+03 0.  0.
         25    1    3    3    0    0  0.82359209090E+02 -0.34044261687E+02 -0.32935734294E+03  0.36340861096E+03  0.12509000000E+03 0.  0.
         25    1    4    4    0    0 -0.24518918591E+02  0.50133340609E+02 -0.10031165755E+03  0.16977769568E+03  0.12509000000E+03 0.  0.
         25    1    4    4    0    0 -0.57840290499E+02 -0.16089078922E+02 -0.14541215278E+03  0.20098895478E+03  0.12509000000E+03 0.  0.
<mgrwt>
<rscale>  2 0.45639345E+03</rscale>
<asrwt>0</asrwt>
<pdfrwt beam="1">  1       21 0.11698096E-01 0.45639345E+03</pdfrwt>
<pdfrwt beam="2">  1       21 0.96268852E-01 0.45639345E+03</pdfrwt>
<totfact> 0.50530547E+04</totfact>
</mgrwt>
</event>
<event>
 7    0  0.4725730E-002  0.4596734E+03  0.7546771E-02  0.1024876E+00
         21   -1    0    0  502  501  0.00000000000E+00  0.00000000000E+00  0.15206255716E+03  0.15206255716E+03  0.00000000000E+00 0.  1.
         21   -1    0    0  501  502 -0.00000000000E+00 -0.00000000000E+00 -0.34738937802E+03  0.34738937802E+03  0.00000000000E+00 0.  1.
      99926    2    1    2    0    0  0.00000000000E+00 -0.14210854715E-13 -0.19532682086E+03  0.49945193518E+03  0.45967343691E+03 0.  0.
      99925    2    3    3    0    0 -0.21509043160E+02 -0.10281550550E+03 -0.63872724398E+02  0.28978230293E+03  0.26241263511E+03 0.  0.
         25    1    3    3    0    0  0.21509043160E+02  0.10281550550E+03 -0.13145409646E+03  0.20966963224E+03  0.12509000000E+03 0.  0.
         25    1    4    4    0    0 -0.16767984286E+02 -0.10718708781E+02 -0.19436979425E+02  0.12814585551E+03  0.12509000000E+03 0.  0.
         25    1    4    4    0    0 -0.47410588743E+01 -0.92096796715E+02 -0.44435744973E+02  0.16163644742E+03  0.12509000000E+03 0.  0.
<mgrwt>
<rscale>  2 0.45967344E+03</rscale>
<asrwt>0</asrwt>
<pdfrwt beam="1">  1       21 0.22362141E-01 0.45967344E+03</pdfrwt>
<pdfrwt beam="2">  1       21 0.51086674E-01 0.45967344E+03</pdfrwt>
<totfact> 0.62941469E+04</totfact>
</mgrwt>
</event>
<event>
 7    0  0.4725730E-002  0.4505735E+03  0.7546771E-02  0.1027551E+00
         21   -1    0    0  502  501  0.00000000000E+00  0.00000000000E+00  0.17149658857E+04  0.17149658857E+04  0.00000000000E+00 0.  1.
         21   -1    0    0  501  502 -0.00000000000E+00 -0.00000000000E+00 -0.29594823755E+02  0.29594823755E+02  0.00000000000E+00 0.  1.
      99926    2    1    2    0    0  0.00000000000E+00  0.00000000000E+00  0.16853710619E+04  0.17445607094E+04  0.45057347074E+03 0.  0.
      99925    2    3    3    0    0 -0.28939588924E+02 -0.14787588846E+02  0.66190733291E+03  0.71296888837E+03  0.26295844886E+03 0.  0.
         25    1    4    4    0    0  0.18261877865E+02 -0.22897634706E+02  0.37342706394E+03  0.39490894905E+03  0.12509000000E+03 0.  0.
         25    1    3    3    0    0  0.28939588924E+02  0.14787588846E+02  0.10234637290E+04  0.10315918211E+04  0.12509000000E+03 0.  0.
         25    1    4    4    0    0 -0.47201466788E+02  0.81100458602E+01  0.28848026898E+03  0.31805993932E+03  0.12509000000E+03 0.  0.
<mgrwt>
<rscale>  2 0.45057347E+03</rscale>
<asrwt>0</asrwt>
<pdfrwt beam="1">  1       21 0.25220080E+00 0.45057347E+03</pdfrwt>
<pdfrwt beam="2">  1       21 0.43521811E-02 0.45057347E+03</pdfrwt>
<totfact> 0.18993861E+04</totfact>
</mgrwt>
</event>
<event>
 7    0  0.4725730E-002  0.4533417E+03  0.7546771E-02  0.1026730E+00
         21   -1    0    0  502  501  0.00000000000E+00  0.00000000000E+00  0.15544959568E+04  0.15544959568E+04  0.00000000000E+00 0.  1.
         21   -1    0    0  501  502 -0.00000000000E+00 -0.00000000000E+00 -0.33052305174E+02  0.33052305174E+02  0.00000000000E+00 0.  1.
      99926    2    1    2    0    0  0.14210854715E-13 -0.71054273576E-14  0.15214436516E+04  0.15875482620E+04  0.45334170228E+03 0.  0.
      99925    2    3    3    0    0 -0.93659988052E+02  0.59423485569E+02  0.10127926585E+04  0.10521262930E+04  0.26252128146E+03 0.  0.
         25    1    3    3    0    0  0.93659988052E+02 -0.59423485569E+02  0.50865099314E+03  0.53542196903E+03  0.12509000000E+03 0.  0.
         25    1    4    4    0    0 -0.82127881642E+02  0.43870002511E+02  0.48931986511E+03  0.51356694262E+03  0.12509000000E+03 0.  0.
         25    1    4    4    0    0 -0.11532106411E+02  0.15553483058E+02  0.52347279340E+03  0.53855935034E+03  0.12509000000E+03 0.  0.
<mgrwt>
<rscale>  2 0.45334170E+03</rscale>
<asrwt>0</asrwt>
<pdfrwt beam="1">  1       21 0.22860230E+00 0.45334170E+03</pdfrwt>
<pdfrwt beam="2">  1       21 0.48606342E-02 0.45334170E+03</pdfrwt>
<totfact> 0.21994471E+04</totfact>
</mgrwt>
</event>
<event>
 6    0  0.4725730E-002  0.4573807E+03  0.7546771E-02  0.1025544E+00
         21   -1    0    0  502  501  0.00000000000E+00  0.00000000000E+00  0.62119960909E+02  0.62119960909E+02  0.00000000000E+00 0. -1.
         21   -1    0    0  501  502 -0.00000000000E+00 -0.00000000000E+00 -0.84190774184E+03  0.84190774184E+03  0.00000000000E+00 0. -1.
      99926    2    1    2    0    0  0.00000000000E+00  0.00000000000E+00 -0.77978778093E+03  0.90402770274E+03  0.45738069925E+03 0.  0.
         25    1    3    3    0    0  0.36205839825E+02  0.12274266227E+02 -0.26979320700E+03  0.29982895639E+03  0.12509000000E+03 0.  0.
         25    1    3    3    0    0  0.97875392491E+01  0.53206636797E+02 -0.39048753789E+03  0.41358767810E+03  0.12509000000E+03 0.  0.
         25    1    3    3    0    0 -0.45993379074E+02 -0.65480903024E+02 -0.11950703604E+03  0.19061106826E+03  0.12509000000E+03 0.  0.
<mgrwt>
<rscale>  2 0.45738070E+03</rscale>
<asrwt>0</asrwt>
<pdfrwt beam="1">  1       21 0.91352886E-02 0.45738070E+03</pdfrwt>
<pdfrwt beam="2">  1       21 0.12380996E+00 0.45738070E+03</pdfrwt>
<totfact> 0.42266698E+04</totfact>
</mgrwt>
</event>
<event>
 7    0  0.4725730E-002  0.4587997E+03  0.7546771E-02  0.1025130E+00
         21   -1    0    0  502  501  0.00000000000E+00  0.00000000000E+00  0.12886401885E+03  0.12886401885E+03  0.00000000000E+00 0.  1.
         21   -1    0    0  501  502 -0.00000000000E+00 -0.00000000000E+00 -0.40837075944E+03  0.40837075944E+03  0.00000000000E+00 0.  1.
      99926    2    1    2    0    0  0.00000000000E+00 -0.44408920985E-15 -0.27950674059E+03  0.53723477829E+03  0.45879972643E+03 0.  0.
      99925    2    3    3    0    0  0.21531561899E+02 -0.12351950227E+01 -0.30961343399E+03  0.40677767824E+03  0.26294955247E+03 0.  0.
         25    1    4    4    0    0 -0.10062685712E+02  0.78540656152E+01 -0.10081006197E+03  0.16116178419E+03  0.12509000000E+03 0.  0.
         25    1    4    4    0    0  0.31594247611E+02 -0.90892606379E+01 -0.20880337202E+03  0.24561589405E+03  0.12509000000E+03 0.  0.
         25    1    3    3    0    0 -0.21531561899E+02  0.12351950227E+01  0.30106693407E+02  0.13045710005E+03  0.12509000000E+03 0.  0.
<mgrwt>
<rscale>  2 0.45879973E+03</rscale>
<asrwt>0</asrwt>
<pdfrwt beam="1">  1       21 0.18950591E-01 0.45879973E+03</pdfrwt>
<pdfrwt beam="2">  1       21 0.60054524E-01 0.45879973E+03</pdfrwt>
<totfact> 0.60865754E+04</totfact>
</mgrwt>
</event>
<event>
 7    0  0.4725730E-002  0.4653159E+03  0.7546771E-02  0.1023251E+00
         21   -1    0    0  502  501  0.00000000000E+00  0.00000000000E+00  0.15219131417E+03  0.15219131417E+03  0.00000000000E+00 0.  1.
         21   -1    0    0  501  502 -0.00000000000E+00 -0.00000000000E+00 -0.35566897836E+03  0.35566897836E+03  0.00000000000E+00 0.  1.
      99926    2    1    2    0    0  0.00000000000E+00 -0.44408920985E-15 -0.20347766419E+03  0.50786029253E+03  0.46531593235E+03 0.  0.
      99925    2    3    3    0    0 -0.96514246361E+02  0.35444654551E+01 -0.20960184776E+03  0.34970664347E+03  0.26274367531E+03 0.  0.
         25    1    4    4    0    0 -0.46662406218E+02  0.41874873629E+02 -0.10409847490E+03  0.17439864040E+03  0.12509000000E+03 0.  0.
         25    1    3    3    0    0  0.96514246361E+02 -0.35444654551E+01  0.61241835728E+01  0.15815364906E+03  0.12509000000E+03 0.  0.
         25    1    4    4    0    0 -0.49851840143E+02 -0.38330408174E+02 -0.10550337286E+03  0.17530800307E+03  0.12509000000E+03 0.  0.
<mgrwt>
<rscale>  2 0.46531593E+03</rscale>
<asrwt>0</asrwt>
<pdfrwt beam="1">  1       21 0.22381076E-01 0.46531593E+03</pdfrwt>
<pdfrwt beam="2">  1       21 0.52304261E-01 0.46531593E+03</pdfrwt>
<totfact> 0.59682974E+04</totfact>
</mgrwt>
</event>
<event>
 7    0  0.4725730E-002  0.4697052E+03  0.7546771E-02  0.1022003E+00
         21   -1    0    0  502  501  0.00000000000E+00  0.00000000000E+00  0.42243996417E+03  0.42243996417E+03  0.00000000000E+00 0. -1.
         21   -1    0    0  501  502 -0.00000000000E+00 -0.00000000000E+00 -0.13056470586E+03  0.13056470586E+03  0.00000000000E+00 0. -1.
      99926    2    1    2    0    0 -0.17763568394E-14  0.17763568394E-14  0.29187525831E+03  0.55300467002E+03  0.46970522528E+03 0.  0.
      99925    2    3    3    0    0 -0.11416901494E+02  0.14845257915E+02  0.34168059021E+02  0.26593109760E+03  0.26306114325E+03 0.  0.
         25    1    4    4    0    0  0.29988494426E+02  0.22589306972E+02  0.46874421057E+01  0.13068690371E+03  0.12509000000E+03 0.  0.
         25    1    3    3    0    0  0.11416901494E+02 -0.14845257915E+02  0.25770719929E+03  0.28707357243E+03  0.12509000000E+03 0.  0.
         25    1    4    4    0    0 -0.41405395920E+02 -0.77440490569E+01  0.29480616916E+02  0.13524419389E+03  0.12509000000E+03 0.  0.
<mgrwt>
<rscale>  2 0.46970523E+03</rscale>
<asrwt>0</asrwt>
<pdfrwt beam="1">  1       21 0.62123524E-01 0.46970523E+03</pdfrwt>
<pdfrwt beam="2">  1       21 0.19200692E-01 0.46970523E+03</pdfrwt>
<totfact> 0.54984316E+04</totfact>
</mgrwt>
</event>
<event>
 7    0  0.4725730E-002  0.4511968E+03  0.7546771E-02  0.1027366E+00
         21   -1    0    0  502  501  0.00000000000E+00  0.00000000000E+00  0.72285304236E+03  0.72285304236E+03  0.00000000000E+00 0. -1.
         21   -1    0    0  501  502 -0.00000000000E+00 -0.00000000000E+00 -0.70407991260E+02  0.70407991260E+02  0.00000000000E+00 0. -1.
      99926    2    1    2    0    0  0.00000000000E+00  0.17763568394E-14  0.65244505110E+03  0.79326103362E+03  0.45119676723E+03 0.  0.
      99925    2    3    3    0    0  0.10644829793E+03 -0.12978617085E+02  0.45144706288E+03  0.53336223792E+03  0.26300407150E+03 0.  0.
         25    1    3    3    0    0 -0.10644829793E+03  0.12978617085E+02  0.20099798822E+03  0.25989879569E+03  0.12509000000E+03 0.  0.
         25    1    4    4    0    0  0.16930870485E+02  0.16320316151E+02  0.19358800991E+03  0.23168261216E+03  0.12509000000E+03 0.  0.
         25    1    4    4    0    0  0.89517427450E+02 -0.29298933236E+02  0.25785905296E+03  0.30167962577E+03  0.12509000000E+03 0.  0.
<mgrwt>
<rscale>  2 0.45119677E+03</rscale>
<asrwt>0</asrwt>
<pdfrwt beam="1">  1       21 0.10630191E+00 0.45119677E+03</pdfrwt>
<pdfrwt beam="2">  1       21 0.10354117E-01 0.45119677E+03</pdfrwt>
<totfact> 0.49555190E+04</totfact>
</mgrwt>
</event>
<event>
 7    0  0.4725730E-002  0.4593761E+03  0.7546771E-02  0.1024962E+00
         21   -1    0    0  502  501  0.00000000000E+00  0.00000000000E+00  0.10456077194E+04  0.10456077194E+04  0.00000000000E+00 0.  1.
         21   -1    0    0  501  502 -0.00000000000E+00 -0.00000000000E+00 -0.50455450090E+02  0.50455450090E+02  0.00000000000E+00 0.  1.
      99926    2    1    2    0    0 -0.71054273576E-14  0.00000000000E+00  0.99515226934E+03  0.10960631695E+04  0.45937613391E+03 0.  0.
      99925    2    3    3    0    0 -0.41427852736E+02  0.17126549122E+02  0.88213886768E+03  0.92162371664E+03  0.26308118049E+03 0.  0.
         25    1    3    3    0    0  0.41427852736E+02 -0.17126549122E+02  0.11301340166E+03  0.17443945288E+03  0.12509000000E+03 0.  0.
         25    1    4    4    0    0 -0.39333905305E+02  0.53818577289E+01  0.32515630391E+03  0.35064262515E+03  0.12509000000E+03 0.  0.
         25    1    4    4    0    0 -0.20939474308E+01  0.11744691393E+02  0.55698256377E+03  0.57098109149E+03  0.12509000000E+03 0.  0.
<mgrwt>
<rscale>  2 0.45937613E+03</rscale>
<asrwt>0</asrwt>
<pdfrwt beam="1">  1       21 0.15376583E+00 0.45937613E+03</pdfrwt>
<pdfrwt beam="2">  1       21 0.74199198E-02 0.45937613E+03</pdfrwt>
<totfact> 0.34440176E+04</totfact>
</mgrwt>
</event>
<event>
 7    0  0.4725730E-002  0.4358415E+03  0.7546771E-02  0.1032030E+00
         21   -1    0    0  502  501  0.00000000000E+00  0.00000000000E+00  0.11864278772E+03  0.11864278772E+03  0.00000000000E+00 0.  1.
         21   -1    0    0  501  502 -0.00000000000E+00 -0.00000000000E+00 -0.40027258277E+03  0.40027258277E+03  0.00000000000E+00 0.  1.
      99926    2    1    2    0    0 -0.44408920985E-15 -0.14210854715E-13 -0.28162979505E+03  0.51891537049E+03  0.43584150821E+03 0.  0.
      99925    2    3    3    0    0  0.24784825225E+01  0.74008432559E+02 -0.11129643476E+03  0.29498602295E+03  0.26295715693E+03 0.  0.
         25    1    4    4    0    0  0.27104121807E+02  0.73477779791E+01 -0.39182236699E+02  0.13405737217E+03  0.12509000000E+03 0.  0.
         25    1    3    3    0    0 -0.24784825225E+01 -0.74008432559E+02 -0.17033336029E+03  0.22392934755E+03  0.12509000000E+03 0.  0.
         25    1    4    4    0    0 -0.24625639285E+02  0.66660654580E+02 -0.72114198058E+02  0.16092865078E+03  0.12509000000E+03 0.  0.
<mgrwt>
<rscale>  2 0.43584151E+03</rscale>
<asrwt>0</asrwt>
<pdfrwt beam="1">  1       21 0.17447469E-01 0.43584151E+03</pdfrwt>
<pdfrwt beam="2">  1       21 0.58863615E-01 0.43584151E+03</pdfrwt>
<totfact> 0.74666913E+04</totfact>
</mgrwt>
</event>
<event>
 7    0  0.4725730E-002  0.4545255E+03  0.7546771E-02  0.1026381E+00
         21   -1    0    0  502  501  0.00000000000E+00  0.00000000000E+00  0.94581900680E+02  0.94581900680E+02  0.00000000000E+00 0.  1.
         21   -1    0    0  501  502 -0.00000000000E+00 -0.00000000000E+00 -0.54607021718E+03  0.54607021718E+03  0.00000000000E+00 0.  1.
      99926    2    1    2    0    0  0.00000000000E+00  0.00000000000E+00 -0.45148831650E+03  0.64065211786E+03  0.45452550663E+03 0.  0.
      99925    2    3    3    0    0 -0.94294981608E+02  0.47803455453E+02 -0.33925012757E+03  0.44210330003E+03  0.26303605252E+03 0.  0.
         25    1    3    3    0    0  0.94294981608E+02 -0.47803455453E+02 -0.11223818893E+03  0.19854881783E+03  0.12509000000E+03 0.  0.
         25    1    4    4    0    0 -0.40592805354E+02 -0.13937626028E+02 -0.18393909227E+03  0.22654609030E+03  0.12509000000E+03 0.  0.
         25    1    4    4    0    0 -0.53702176255E+02  0.61741081480E+02 -0.15531103530E+03  0.21555720972E+03  0.12509000000E+03 0.  0.
<mgrwt>
<rscale>  2 0.45452551E+03</rscale>
<asrwt>0</asrwt>
<pdfrwt beam="1">  1       21 0.13909103E-01 0.45452551E+03</pdfrwt>
<pdfrwt beam="2">  1       21 0.80304443E-01 0.45452551E+03</pdfrwt>
<totfact> 0.56454347E+04</totfact>
</mgrwt>
</event>
<event>
 7    0  0.4725730E-002  0.4462818E+03  0.7546771E-02  0.1028837E+00
         21   -1    0    0  502  501  0.00000000000E+00  0.00000000000E+00  0.45244752927E+02  0.45244752927E+02  0.00000000000E+00 0.  1.
         21   -1    0    0  501  502 -0.00000000000E+00 -0.00000000000E+00 -0.11005001818E+04  0.11005001818E+04  0.00000000000E+00 0.  1.
      99926    2    1    2    0    0 -0.62172489379E-14  0.00000000000E+00 -0.10552554289E+04  0.11457449347E+04  0.44628178910E+03 0.  0.
      99925    2    3    3    0    0 -0.30398957522E+01 -0.88317596213E+02 -0.52280130466E+03  0.59170148764E+03  0.26264083375E+03 0.  0.
         25    1    4    4    0    0  0.33658465537E+02 -0.26951224326E+02 -0.27150498584E+03  0.30202934664E+03  0.12509000000E+03 0.  0.
         25    1    4    4    0    0 -0.36698361289E+02 -0.61366371886E+02 -0.25129631882E+03  0.28967214100E+03  0.12509000000E+03 0.  0.
         25    1    3    3    0    0  0.30398957522E+01  0.88317596213E+02 -0.53245412420E+03  0.55404344708E+03  0.12509000000E+03 0.  0.
<mgrwt>
<rscale>  2 0.44628179E+03</rscale>
<asrwt>0</asrwt>
<pdfrwt beam="1">  1       21 0.66536413E-02 0.44628179E+03</pdfrwt>
<pdfrwt beam="2">  1       21 0.16183823E+00 0.44628179E+03</pdfrwt>
<totfact> 0.36331394E+04</totfact>
</mgrwt>
</event>
<event>
 7    0  0.4725730E-002  0.4542383E+03  0.7546771E-02  0.1026466E+00
         21   -1    0    0  502  501  0.00000000000E+00  0.00000000000E+00  0.28107317065E+03  0.28107317065E+03  0.00000000000E+00 0. -1.
         21   -1    0    0  501  502 -0.00000000000E+00 -0.00000000000E+00 -0.18352198571E+03  0.18352198571E+03  0.00000000000E+00 0. -1.
      99926    2    1    2    0    0  0.00000000000E+00 -0.71054273576E-14  0.97551184940E+02  0.46459515636E+03  0.45423829168E+03 0.  0.
      99925    2    3    3    0    0 -0.33165228705E+02 -0.46508469148E+02  0.16043592923E+03  0.31338348597E+03  0.26307138156E+03 0.  0.
         25    1    4    4    0    0  0.51346865804E+01 -0.53297941926E+02  0.62023196018E+02  0.14953735508E+03  0.12509000000E+03 0.  0.
         25    1    3    3    0    0  0.33165228705E+02  0.46508469148E+02 -0.62884744286E+02  0.15121167039E+03  0.12509000000E+03 0.  0.
         25    1    4    4    0    0 -0.38299915286E+02  0.67894727780E+01  0.98412733208E+02  0.16384613089E+03  0.12509000000E+03 0.  0.
<mgrwt>
<rscale>  2 0.45423829E+03</rscale>
<asrwt>0</asrwt>
<pdfrwt beam="1">  1       21 0.41334290E-01 0.45423829E+03</pdfrwt>
<pdfrwt beam="2">  1       21 0.26988527E-01 0.45423829E+03</pdfrwt>
<totfact> 0.68251861E+04</totfact>
</mgrwt>
</event>
<event>
 7    0  0.4725730E-002  0.4465676E+03  0.7546771E-02  0.1028751E+00
         21   -1    0    0  502  501  0.00000000000E+00  0.00000000000E+00  0.33234473233E+03  0.33234473233E+03  0.00000000000E+00 0. -1.
         21   -1    0    0  501  502 -0.00000000000E+00 -0.00000000000E+00 -0.15001187708E+03  0.15001187708E+03  0.00000000000E+00 0. -1.
      99926    2    1    2    0    0  0.00000000000E+00  0.35527136788E-14  0.18233285525E+03  0.48235660941E+03  0.44656760803E+03 0.  0.
      99925    2    3    3    0    0  0.59794188541E+01 -0.29913749351E+02  0.22417406522E+03  0.34697278171E+03  0.26306940887E+03 0.  0.
         25    1    4    4    0    0  0.14836602160E+02  0.23300853143E+02  0.97987443613E+02  0.16128267646E+03  0.12509000000E+03 0.  0.
         25    1    3    3    0    0 -0.59794188541E+01  0.29913749351E+02 -0.41841209974E+02  0.13538382770E+03  0.12509000000E+03 0.  0.
         25    1    4    4    0    0 -0.88571833060E+01 -0.53214602494E+02  0.12618662161E+03  0.18569010525E+03  0.12509000000E+03 0.  0.
<mgrwt>
<rscale>  2 0.44656761E+03</rscale>
<asrwt>0</asrwt>
<pdfrwt beam="1">  1       21 0.48874225E-01 0.44656761E+03</pdfrwt>
<pdfrwt beam="2">  1       21 0.22060570E-01 0.44656761E+03</pdfrwt>
<totfact> 0.71175497E+04</totfact>
</mgrwt>
</event>
<event>
 7    0  0.4725730E-002  0.4582085E+03  0.7546771E-02  0.1025302E+00
         21   -1    0    0  502  501  0.00000000000E+00  0.00000000000E+00  0.93440366359E+02  0.93440366359E+02  0.00000000000E+00 0. -1.
         21   -1    0    0  501  502 -0.00000000000E+00 -0.00000000000E+00 -0.56173537381E+03  0.56173537381E+03  0.00000000000E+00 0. -1.
      99926    2    1    2    0    0  0.00000000000E+00  0.00000000000E+00 -0.46829500745E+03  0.65517574017E+03  0.45820850767E+03 0.  0.
      99925    2    3    3    0    0  0.32208645498E+02 -0.11152328595E+03 -0.29946975153E+03  0.41512508866E+03  0.26300545052E+03 0.  0.
         25    1    3    3    0    0 -0.32208645498E+02  0.11152328595E+03 -0.16882525593E+03  0.24005065151E+03  0.12509000000E+03 0.  0.
         25    1    4    4    0    0 -0.11350195941E+02 -0.58633678321E+02 -0.19070468264E+03  0.23575945212E+03  0.12509000000E+03 0.  0.
         25    1    4    4    0    0  0.43558841439E+02 -0.52889607625E+02 -0.10876506888E+03  0.17936563654E+03  0.12509000000E+03 0.  0.
<mgrwt>
<rscale>  2 0.45820851E+03</rscale>
<asrwt>0</asrwt>
<pdfrwt beam="1">  1       21 0.13741231E-01 0.45820851E+03</pdfrwt>
<pdfrwt beam="2">  1       21 0.82608138E-01 0.45820851E+03</pdfrwt>
<totfact> 0.54024017E+04</totfact>
</mgrwt>
</event>
<event>
 7    0  0.4725730E-002  0.4217723E+03  0.7546771E-02  0.1036491E+00
         21   -1    0    0  502  501  0.00000000000E+00  0.00000000000E+00  0.66002261972E+02  0.66002261972E+02  0.00000000000E+00 0. -1.
         21   -1    0    0  501  502 -0.00000000000E+00 -0.00000000000E+00 -0.67380979985E+03  0.67380979985E+03  0.00000000000E+00 0. -1.
      99926    2    1    2    0    0  0.00000000000E+00 -0.71054273576E-14 -0.60780753787E+03  0.73981206182E+03  0.42177231265E+03 0.  0.
      99925    2    3    3    0    0  0.63782198108E+02 -0.41776172180E+02 -0.42542842327E+03  0.50588244227E+03  0.26289595797E+03 0.  0.
         25    1    4    4    0    0  0.66969557455E+02 -0.32338231520E+00 -0.22374641825E+03  0.26494337882E+03  0.12509000000E+03 0.  0.
         25    1    4    4    0    0 -0.31873593463E+01 -0.41452789865E+02 -0.20168200502E+03  0.24093906345E+03  0.12509000000E+03 0.  0.
         25    1    3    3    0    0 -0.63782198108E+02  0.41776172180E+02 -0.18237911460E+03  0.23392961955E+03  0.12509000000E+03 0.  0.
<mgrwt>
<rscale>  2 0.42177231E+03</rscale>
<asrwt>0</asrwt>
<pdfrwt beam="1">  1       21 0.97062149E-02 0.42177231E+03</pdfrwt>
<pdfrwt beam="2">  1       21 0.99089677E-01 0.42177231E+03</pdfrwt>
<totfact> 0.66547483E+04</totfact>
</mgrwt>
</event>
<event>
 7    0  0.4725730E-002  0.4635250E+03  0.7546771E-02  0.1023764E+00
         21   -1    0    0  502  501  0.00000000000E+00  0.00000000000E+00  0.31540115950E+03  0.31540115950E+03  0.00000000000E+00 0.  1.
         21   -1    0    0  501  502 -0.00000000000E+00 -0.00000000000E+00 -0.17030329922E+03  0.17030329922E+03  0.00000000000E+00 0.  1.
      99926    2    1    2    0    0  0.00000000000E+00 -0.13322676296E-14  0.14509786028E+03  0.48570445873E+03  0.46352500706E+03 0.  0.
      99925    2    3    3    0    0  0.11811457770E+03 -0.38503526963E+01  0.65171357892E+02  0.29596349698E+03  0.26340312636E+03 0.  0.
         25    1    4    4    0    0  0.68737612029E+02 -0.27774371182E+02  0.65228933932E+02  0.15936937260E+03  0.12509000000E+03 0.  0.
         25    1    4    4    0    0  0.49376965671E+02  0.23924018486E+02 -0.57576039578E-01  0.13659412438E+03  0.12509000000E+03 0.  0.
         25    1    3    3    0    0 -0.11811457770E+03  0.38503526963E+01  0.79926502386E+02  0.18974096175E+03  0.12509000000E+03 0.  0.
<mgrwt>
<rscale>  2 0.46352501E+03</rscale>
<asrwt>0</asrwt>
<pdfrwt beam="1">  1       21 0.46382524E-01 0.46352501E+03</pdfrwt>
<pdfrwt beam="2">  1       21 0.25044603E-01 0.46352501E+03</pdfrwt>
<totfact> 0.61985337E+04</totfact>
</mgrwt>
</event>
<event>
 7    0  0.4725730E-002  0.4552132E+03  0.7546771E-02  0.1026179E+00
         21   -1    0    0  502  501  0.00000000000E+00  0.00000000000E+00  0.17994457865E+03  0.17994457865E+03  0.00000000000E+00 0.  1.
         21   -1    0    0  501  502 -0.00000000000E+00 -0.00000000000E+00 -0.28789290926E+03  0.28789290926E+03  0.00000000000E+00 0.  1.
      99926    2    1    2    0    0  0.00000000000E+00  0.00000000000E+00 -0.10794833061E+03  0.46783748792E+03  0.45521321710E+03 0.  0.
      99925    2    3    3    0    0  0.89823068658E+02 -0.96709767998E+01  0.24208439654E+01  0.27812566896E+03  0.26303291770E+03 0.  0.
         25    1    3    3    0    0 -0.89823068658E+02  0.96709767998E+01 -0.11036917457E+03  0.18971181896E+03  0.12509000000E+03 0.  0.
         25    1    4    4    0    0  0.87261775546E+02 -0.34473239263E+01  0.76036485618E+01  0.15274758618E+03  0.12509000000E+03 0.  0.
         25    1    4    4    0    0  0.25612931121E+01 -0.62236528735E+01 -0.51828045964E+01  0.12537808278E+03  0.12509000000E+03 0.  0.
<mgrwt>
<rscale>  2 0.45521322E+03</rscale>
<asrwt>0</asrwt>
<pdfrwt beam="1">  1       21 0.26462438E-01 0.45521322E+03</pdfrwt>
<pdfrwt beam="2">  1       21 0.42337192E-01 0.45521322E+03</pdfrwt>
<totfact> 0.67482845E+04</totfact>
</mgrwt>
</event>
<event>
 7    0  0.4725730E-002  0.4384907E+03  0.7546771E-02  0.1031211E+00
         21   -1    0    0  502  501  0.00000000000E+00  0.00000000000E+00  0.11226587693E+04  0.11226587693E+04  0.00000000000E+00 0.  1.
         21   -1    0    0  501  502 -0.00000000000E+00 -0.00000000000E+00 -0.42816674732E+02  0.42816674732E+02  0.00000000000E+00 0.  1.
      99926    2    1    2    0    0  0.00000000000E+00  0.00000000000E+00  0.10798420945E+04  0.11654754440E+04  0.43849066288E+03 0.  0.
      99925    2    3    3    0    0 -0.55601389198E+02 -0.68364290437E+02  0.58341090589E+03  0.64599818381E+03  0.26302124951E+03 0.  0.
         25    1    3    3    0    0  0.55601389198E+02  0.68364290437E+02  0.49643118864E+03  0.51947726017E+03  0.12509000000E+03 0.  0.
         25    1    4    4    0    0 -0.57732748013E+01 -0.17937414838E+02  0.34650453421E+03  0.36887393765E+03  0.12509000000E+03 0.  0.
         25    1    4    4    0    0 -0.49828114397E+02 -0.50426875599E+02  0.23690637168E+03  0.27712424616E+03  0.12509000000E+03 0.  0.
<mgrwt>
<rscale>  2 0.43849066E+03</rscale>
<asrwt>0</asrwt>
<pdfrwt beam="1">  1       21 0.16509686E+00 0.43849066E+03</pdfrwt>
<pdfrwt beam="2">  1       21 0.62965706E-02 0.43849066E+03</pdfrwt>
<totfact> 0.37918106E+04</totfact>
</mgrwt>
</event>
<event>
 7    0  0.4725730E-002  0.4550310E+03  0.7546771E-02  0.1026232E+00
         21   -1    0    0  502  501  0.00000000000E+00  0.00000000000E+00  0.45607555414E+02  0.45607555414E+02  0.00000000000E+00 0. -1.
         21   -1    0    0  501  502 -0.00000000000E+00 -0.00000000000E+00 -0.11349718532E+04  0.11349718532E+04  0.00000000000E+00 0. -1.
      99926    2    1    2    0    0 -0.17763568394E-14  0.00000000000E+00 -0.10893642977E+04  0.11805794086E+04  0.45503095141E+03 0.  0.
      99925    2    3    3    0    0 -0.83207056660E+01 -0.91803025137E+02 -0.51541564573E+03  0.58596895389E+03  0.26307660005E+03 0.  0.
         25    1    4    4    0    0  0.92674559241E+01 -0.46615910662E+02 -0.17669698530E+03  0.22164896025E+03  0.12509000000E+03 0.  0.
         25    1    4    4    0    0 -0.17588161590E+02 -0.45187114475E+02 -0.33871866042E+03  0.36431999364E+03  0.12509000000E+03 0.  0.
         25    1    3    3    0    0  0.83207056660E+01  0.91803025137E+02 -0.57394865202E+03  0.59461045468E+03  0.12509000000E+03 0.  0.
<mgrwt>
<rscale>  2 0.45503095E+03</rscale>
<asrwt>0</asrwt>
<pdfrwt beam="1">  1       21 0.67069936E-02 0.45503095E+03</pdfrwt>
<pdfrwt beam="2">  1       21 0.16690762E+00 0.45503095E+03</pdfrwt>
<totfact> 0.32769716E+04</totfact>
</mgrwt>
</event>
<event>
 7    0  0.4725730E-002  0.4582069E+03  0.7546771E-02  0.1025303E+00
         21   -1    0    0  502  501  0.00000000000E+00  0.00000000000E+00  0.19732442437E+03  0.19732442437E+03  0.00000000000E+00 0.  1.
         21   -1    0    0  501  502 -0.00000000000E+00 -0.00000000000E+00 -0.26600048903E+03  0.26600048903E+03  0.00000000000E+00 0.  1.
      99926    2    1    2    0    0  0.00000000000E+00 -0.14210854715E-13 -0.68676064670E+02  0.46332491340E+03  0.45820691125E+03 0.  0.
      99925    2    3    3    0    0 -0.13068343437E+02  0.10936513916E+03 -0.80308736800E+02  0.29624905510E+03  0.26302565308E+03 0.  0.
         25    1    3    3    0    0  0.13068343437E+02 -0.10936513916E+03  0.11632672130E+02  0.16707585830E+03  0.12509000000E+03 0.  0.
         25    1    4    4    0    0 -0.84476476339E+01  0.43266097336E+02  0.17244876104E+01  0.13264162200E+03  0.12509000000E+03 0.  0.
         25    1    4    4    0    0 -0.46206958030E+01  0.66099041827E+02 -0.82033224410E+02  0.16360743311E+03  0.12509000000E+03 0.  0.
<mgrwt>
<rscale>  2 0.45820691E+03</rscale>
<asrwt>0</asrwt>
<pdfrwt beam="1">  1       21 0.29018298E-01 0.45820691E+03</pdfrwt>
<pdfrwt beam="2">  1       21 0.39117719E-01 0.45820691E+03</pdfrwt>
<totfact> 0.66228917E+04</totfact>
</mgrwt>
</event>
<event>
 7    0  0.4725730E-002  0.4541683E+03  0.7546771E-02  0.1026486E+00
         21   -1    0    0  502  501  0.00000000000E+00  0.00000000000E+00  0.14727276487E+03  0.14727276487E+03  0.00000000000E+00 0. -1.
         21   -1    0    0  501  502 -0.00000000000E+00 -0.00000000000E+00 -0.35014758548E+03  0.35014758548E+03  0.00000000000E+00 0. -1.
      99926    2    1    2    0    0 -0.17763568394E-14 -0.14210854715E-13 -0.20287482061E+03  0.49742035034E+03  0.45416826408E+03 0.  0.
      99925    2    3    3    0    0 -0.78040627553E+01 -0.65805240805E+02 -0.22717996359E+03  0.35379068353E+03  0.26299406606E+03 0.  0.
         25    1    4    4    0    0 -0.30784669904E+02 -0.25408448802E+02 -0.74322292419E+02  0.15087941020E+03  0.12509000000E+03 0.  0.
         25    1    3    3    0    0  0.78040627553E+01  0.65805240805E+02  0.24305142980E+02  0.14362966681E+03  0.12509000000E+03 0.  0.
         25    1    4    4    0    0  0.22980607149E+02 -0.40396792003E+02 -0.15285767117E+03  0.20291127333E+03  0.12509000000E+03 0.  0.
<mgrwt>
<rscale>  2 0.45416826E+03</rscale>
<asrwt>0</asrwt>
<pdfrwt beam="1">  1       21 0.21657760E-01 0.45416826E+03</pdfrwt>
<pdfrwt beam="2">  1       21 0.51492292E-01 0.45416826E+03</pdfrwt>
<totfact> 0.65886214E+04</totfact>
</mgrwt>
</event>
<event>
 7    0  0.4725730E-002  0.4544550E+03  0.7546771E-02  0.1026402E+00
         21   -1    0    0  502  501  0.00000000000E+00  0.00000000000E+00  0.36100904581E+02  0.36100904581E+02  0.00000000000E+00 0.  1.
         21   -1    0    0  501  502 -0.00000000000E+00 -0.00000000000E+00 -0.14302226786E+04  0.14302226786E+04  0.00000000000E+00 0.  1.
      99926    2    1    2    0    0  0.00000000000E+00 -0.71054273576E-14 -0.13941217740E+04  0.14663235832E+04  0.45445498104E+03 0.  0.
      99925    2    3    3    0    0  0.10197714030E+03 -0.35703025058E+02 -0.78372883665E+03  0.83394625181E+03  0.26374498738E+03 0.  0.
         25    1    4    4    0    0  0.76172817844E+01 -0.24401373774E+02 -0.33416717130E+03  0.35772706985E+03  0.12509000000E+03 0.  0.
         25    1    3    3    0    0 -0.10197714030E+03  0.35703025058E+02 -0.61039293736E+03  0.63237733136E+03  0.12509000000E+03 0.  0.
         25    1    4    4    0    0  0.94359858514E+02 -0.11301651284E+02 -0.44956166534E+03  0.47621918196E+03  0.12509000000E+03 0.  0.
<mgrwt>
<rscale>  2 0.45445498E+03</rscale>
<asrwt>0</asrwt>
<pdfrwt beam="1">  1       21 0.53089559E-02 0.45445498E+03</pdfrwt>
<pdfrwt beam="2">  1       21 0.21032689E+00 0.45445498E+03</pdfrwt>
<totfact> 0.24721141E+04</totfact>
</mgrwt>
</event>
<event>
 7    0  0.4725730E-002  0.4572480E+03  0.7546771E-02  0.1025582E+00
         21   -1    0    0  502  501  0.00000000000E+00  0.00000000000E+00  0.52581579002E+02  0.52581579002E+02  0.00000000000E+00 0.  1.
         21   -1    0    0  501  502 -0.00000000000E+00 -0.00000000000E+00 -0.99405387271E+03  0.99405387271E+03  0.00000000000E+00 0.  1.
      99926    2    1    2    0    0 -0.71054273576E-14  0.00000000000E+00 -0.94147229370E+03  0.10466354517E+04  0.45724795129E+03 0.  0.
      99925    2    3    3    0    0  0.49207773141E+02  0.53033001484E+02 -0.79625086291E+03  0.84176799151E+03  0.26329453217E+03 0.  0.
         25    1    4    4    0    0  0.52860306889E+02  0.58100487842E+02 -0.41951294342E+03  0.44475667115E+03  0.12509000000E+03 0.  0.
         25    1    3    3    0    0 -0.49207773141E+02 -0.53033001484E+02 -0.14522143080E+03  0.20486746020E+03  0.12509000000E+03 0.  0.
         25    1    4    4    0    0 -0.36525337479E+01 -0.50674863584E+01 -0.37673791948E+03  0.39701132036E+03  0.12509000000E+03 0.  0.
<mgrwt>
<rscale>  2 0.45724795E+03</rscale>
<asrwt>0</asrwt>
<pdfrwt beam="1">  1       21 0.77325843E-02 0.45724795E+03</pdfrwt>
<pdfrwt beam="2">  1       21 0.14618441E+00 0.45724795E+03</pdfrwt>
<totfact> 0.36751966E+04</totfact>
</mgrwt>
</event>
<event>
 7    0  0.4725730E-002  0.4574833E+03  0.7546771E-02  0.1025514E+00
         21   -1    0    0  502  501  0.00000000000E+00  0.00000000000E+00  0.40551299941E+02  0.40551299941E+02  0.00000000000E+00 0. -1.
         21   -1    0    0  501  502 -0.00000000000E+00 -0.00000000000E+00 -0.12902852899E+04  0.12902852899E+04  0.00000000000E+00 0. -1.
      99926    2    1    2    0    0  0.14210854715E-13  0.00000000000E+00 -0.12497339899E+04  0.13308365898E+04  0.45748331466E+03 0.  0.
      99925    2    3    3    0    0 -0.82326797234E+02 -0.71600503673E+02 -0.67521840630E+03  0.73282321404E+03  0.26306963557E+03 0.  0.
         25    1    4    4    0    0 -0.28703559140E+01 -0.39333754936E+02 -0.27051376996E+03  0.30063364925E+03  0.12509000000E+03 0.  0.
         25    1    3    3    0    0  0.82326797234E+02  0.71600503673E+02 -0.57451558361E+03  0.59801337576E+03  0.12509000000E+03 0.  0.
         25    1    4    4    0    0 -0.79456441320E+02 -0.32266748736E+02 -0.40470463634E+03  0.43218956479E+03  0.12509000000E+03 0.  0.
<mgrwt>
<rscale>  2 0.45748331E+03</rscale>
<asrwt>0</asrwt>
<pdfrwt beam="1">  1       21 0.59634259E-02 0.45748331E+03</pdfrwt>
<pdfrwt beam="2">  1       21 0.18974785E+00 0.45748331E+03</pdfrwt>
<totfact> 0.27693560E+04</totfact>
</mgrwt>
</event>
<event>
 7    0  0.4725730E-002  0.4539543E+03  0.7546771E-02  0.1026549E+00
         21   -1    0    0  502  501  0.00000000000E+00  0.00000000000E+00  0.35369557521E+03  0.35369557521E+03  0.00000000000E+00 0. -1.
         21   -1    0    0  501  502 -0.00000000000E+00 -0.00000000000E+00 -0.14565810180E+03  0.14565810180E+03  0.00000000000E+00 0. -1.
      99926    2    1    2    0    0 -0.71054273576E-14  0.00000000000E+00  0.20803747341E+03  0.49935367701E+03  0.45395429770E+03 0.  0.
      99925    2    3    3    0    0 -0.38035892900E+02  0.65279992619E+02  0.22234781865E+03  0.35251873340E+03  0.26291195931E+03 0.  0.
         25    1    4    4    0    0 -0.38816450216E+02  0.69581938493E+02  0.12471520868E+03  0.19377758990E+03  0.12509000000E+03 0.  0.
         25    1    3    3    0    0  0.38035892900E+02 -0.65279992619E+02 -0.14310345247E+02  0.14683494361E+03  0.12509000000E+03 0.  0.
         25    1    4    4    0    0  0.78055731613E+00 -0.43019458741E+01  0.97632609976E+02  0.15874114350E+03  0.12509000000E+03 0.  0.
<mgrwt>
<rscale>  2 0.45395430E+03</rscale>
<asrwt>0</asrwt>
<pdfrwt beam="1">  1       21 0.52014055E-01 0.45395430E+03</pdfrwt>
<pdfrwt beam="2">  1       21 0.21420309E-01 0.45395430E+03</pdfrwt>
<totfact> 0.65861098E+04</totfact>
</mgrwt>
</event>
<event>
 7    0  0.4725730E-002  0.4548088E+03  0.7546771E-02  0.1026298E+00
         21   -1    0    0  502  501  0.00000000000E+00  0.00000000000E+00  0.85636345731E+03  0.85636345731E+03  0.00000000000E+00 0. -1.
         21   -1    0    0  501  502 -0.00000000000E+00 -0.00000000000E+00 -0.60386467900E+02  0.60386467900E+02  0.00000000000E+00 0. -1.
      99926    2    1    2    0    0  0.00000000000E+00 -0.71054273576E-14  0.79597698941E+03  0.91674992521E+03  0.45480881445E+03 0.  0.
      99925    2    3    3    0    0 -0.85855131471E+02 -0.51045178094E+02  0.39183233787E+03  0.48205794084E+03  0.26243201695E+03 0.  0.
         25    1    4    4    0    0 -0.41961981944E+01 -0.36291869028E+02  0.16977413953E+03  0.21402213528E+03  0.12509000000E+03 0.  0.
         25    1    3    3    0    0  0.85855131471E+02  0.51045178094E+02  0.40414465153E+03  0.43469198436E+03  0.12509000000E+03 0.  0.
         25    1    4    4    0    0 -0.81658933277E+02 -0.14753309065E+02  0.22205819834E+03  0.26803580556E+03  0.12509000000E+03 0.  0.
<mgrwt>
<rscale>  2 0.45480881E+03</rscale>
<asrwt>0</asrwt>
<pdfrwt beam="1">  1       21 0.12593580E+00 0.45480881E+03</pdfrwt>
<pdfrwt beam="2">  1       21 0.88803634E-02 0.45480881E+03</pdfrwt>
<totfact> 0.42581101E+04</totfact>
</mgrwt>
</event>
<event>
 6    0  0.4725730E-002  0.4554929E+03  0.7546771E-02  0.1026097E+00
         21   -1    0    0  502  501  0.00000000000E+00  0.00000000000E+00  0.67929446585E+02  0.67929446585E+02  0.00000000000E+00 0. -1.
         21   -1    0    0  501  502 -0.00000000000E+00 -0.00000000000E+00 -0.76356333429E+03  0.76356333429E+03  0.00000000000E+00 0. -1.
      99926    2    1    2    0    0  0.00000000000E+00  0.00000000000E+00 -0.69563388770E+03  0.83149278088E+03  0.45549285277E+03 0.  0.
         25    1    3    3    0    0  0.10566313776E+03 -0.30120401882E+02 -0.24474438186E+03  0.29600550307E+03  0.12509000000E+03 0.  0.
         25    1    3    3    0    0 -0.50328959476E+02 -0.31650288019E+02 -0.22830809553E+03  0.26703340517E+03  0.12509000000E+03 0.  0.
         25    1    3    3    0    0 -0.55334178287E+02  0.61770689901E+02 -0.22258141032E+03  0.26845387264E+03  0.12509000000E+03 0.  0.
<mgrwt>
<rscale>  2 0.45549285E+03</rscale>
<asrwt>0</asrwt>
<pdfrwt beam="1">  1       21 0.99896238E-02 0.45549285E+03</pdfrwt>
<pdfrwt beam="2">  1       21 0.11228873E+00 0.45549285E+03</pdfrwt>
<totfact> 0.46100432E+04</totfact>
</mgrwt>
</event>
<event>
 6    0  0.4725730E-002  0.4626469E+03  0.7546771E-02  0.1024016E+00
         21   -1    0    0  502  501  0.00000000000E+00  0.00000000000E+00  0.56067894313E+02  0.56067894313E+02  0.00000000000E+00 0.  1.
         21   -1    0    0  501  502 -0.00000000000E+00 -0.00000000000E+00 -0.95438828720E+03  0.95438828720E+03  0.00000000000E+00 0.  1.
      99926    2    1    2    0    0  0.00000000000E+00  0.00000000000E+00 -0.89832039289E+03  0.10104561815E+04  0.46264691340E+03 0.  0.
         25    1    3    3    0    0 -0.65756557285E+02  0.72860171730E+02 -0.17743497049E+03  0.23825030179E+03  0.12509000000E+03 0.  0.
         25    1    3    3    0    0  0.52363006186E+02 -0.17421906128E+02 -0.30653305104E+03  0.33564181311E+03  0.12509000000E+03 0.  0.
         25    1    3    3    0    0  0.13393551099E+02 -0.55438265602E+02 -0.41435237137E+03  0.43656406662E+03  0.12509000000E+03 0.  0.
<mgrwt>
<rscale>  2 0.46264691E+03</rscale>
<asrwt>0</asrwt>
<pdfrwt beam="1">  1       21 0.82452790E-02 0.46264691E+03</pdfrwt>
<pdfrwt beam="2">  1       21 0.14035121E+00 0.46264691E+03</pdfrwt>
<totfact> 0.36531850E+04</totfact>
</mgrwt>
</event>
<event>
 7    0  0.4725730E-002  0.4550464E+03  0.7546771E-02  0.1026228E+00
         21   -1    0    0  502  501  0.00000000000E+00  0.00000000000E+00  0.14864662979E+03  0.14864662979E+03  0.00000000000E+00 0. -1.
         21   -1    0    0  501  502 -0.00000000000E+00 -0.00000000000E+00 -0.34825422240E+03  0.34825422240E+03  0.00000000000E+00 0. -1.
      99926    2    1    2    0    0  0.44408920985E-14  0.00000000000E+00 -0.19960759261E+03  0.49690085219E+03  0.45504644365E+03 0.  0.
      99925    2    3    3    0    0  0.69000771948E+01 -0.45400100137E+02 -0.12487768955E+02  0.26718338080E+03  0.26291107706E+03 0.  0.
         25    1    3    3    0    0 -0.69000771948E+01  0.45400100137E+02 -0.18711982366E+03  0.22971747139E+03  0.12509000000E+03 0.  0.
         25    1    4    4    0    0  0.41792953797E+02 -0.28043759384E+02  0.54242942039E+01  0.13494456082E+03  0.12509000000E+03 0.  0.
         25    1    4    4    0    0 -0.34892876602E+02 -0.17356340753E+02 -0.17912063159E+02  0.13223881998E+03  0.12509000000E+03 0.  0.
<mgrwt>
<rscale>  2 0.45504644E+03</rscale>
<asrwt>0</asrwt>
<pdfrwt beam="1">  1       21 0.21859799E-01 0.45504644E+03</pdfrwt>
<pdfrwt beam="2">  1       21 0.51213855E-01 0.45504644E+03</pdfrwt>
<totfact> 0.65464796E+04</totfact>
</mgrwt>
</event>
<event>
 7    0  0.4725730E-002  0.4527587E+03  0.7546771E-02  0.1026903E+00
         21   -1    0    0  502  501  0.00000000000E+00  0.00000000000E+00  0.52913667356E+02  0.52913667356E+02  0.00000000000E+00 0. -1.
         21   -1    0    0  501  502 -0.00000000000E+00 -0.00000000000E+00 -0.96851387112E+03  0.96851387112E+03  0.00000000000E+00 0. -1.
      99926    2    1    2    0    0  0.00000000000E+00  0.00000000000E+00 -0.91560020376E+03  0.10214275385E+04  0.45275874726E+03 0.  0.
      99925    2    3    3    0    0 -0.89107292079E+02 -0.65496351993E+02 -0.59568821927E+03  0.66056597562E+03  0.26319778103E+03 0.  0.
         25    1    4    4    0    0 -0.81353031409E+01 -0.82683976195E+01 -0.24898894846E+03  0.27888627451E+03  0.12509000000E+03 0.  0.
         25    1    3    3    0    0  0.89107292079E+02  0.65496351993E+02 -0.31991198449E+03  0.36086156286E+03  0.12509000000E+03 0.  0.
         25    1    4    4    0    0 -0.80971988938E+02 -0.57227954374E+02 -0.34669927081E+03  0.38167970110E+03  0.12509000000E+03 0.  0.
<mgrwt>
<rscale>  2 0.45275875E+03</rscale>
<asrwt>0</asrwt>
<pdfrwt beam="1">  1       21 0.77814224E-02 0.45275875E+03</pdfrwt>
<pdfrwt beam="2">  1       21 0.14242850E+00 0.45275875E+03</pdfrwt>
<totfact> 0.39021953E+04</totfact>
</mgrwt>
</event>
<event>
 7    0  0.4725730E-002  0.4470578E+03  0.7546771E-02  0.1028603E+00
         21   -1    0    0  502  501  0.00000000000E+00  0.00000000000E+00  0.21362033531E+03  0.21362033531E+03  0.00000000000E+00 0.  1.
         21   -1    0    0  501  502 -0.00000000000E+00 -0.00000000000E+00 -0.23389703421E+03  0.23389703421E+03  0.00000000000E+00 0.  1.
      99926    2    1    2    0    0 -0.35527136788E-14  0.00000000000E+00 -0.20276698895E+02  0.44751736952E+03  0.44705777200E+03 0.  0.
      99925    2    3    3    0    0  0.18739958217E+02  0.72458150475E+02 -0.87377874477E+02  0.28704480031E+03  0.26297995139E+03 0.  0.
         25    1    4    4    0    0  0.25117121668E+02  0.27689739063E+02 -0.51310051690E+01  0.13065767013E+03  0.12509000000E+03 0.  0.
         25    1    4    4    0    0 -0.63771634513E+01  0.44768411412E+02 -0.82246869308E+02  0.15638713018E+03  0.12509000000E+03 0.  0.
         25    1    3    3    0    0 -0.18739958217E+02 -0.72458150475E+02  0.67101175583E+02  0.16047256921E+03  0.12509000000E+03 0.  0.
<mgrwt>
<rscale>  2 0.44705777E+03</rscale>
<asrwt>0</asrwt>
<pdfrwt beam="1">  1       21 0.31414755E-01 0.44705777E+03</pdfrwt>
<pdfrwt beam="2">  1       21 0.34396622E-01 0.44705777E+03</pdfrwt>
<totfact> 0.73655560E+04</totfact>
</mgrwt>
</event>
<event>
 7    0  0.4725730E-002  0.4782606E+03  0.7546771E-02  0.1019614E+00
         21   -1    0    0  502  501  0.00000000000E+00  0.00000000000E+00  0.28164457557E+02  0.28164457557E+02  0.00000000000E+00 0. -1.
         21   -1    0    0  501  502 -0.00000000000E+00 -0.00000000000E+00 -0.20303358227E+04  0.20303358227E+04  0.00000000000E+00 0. -1.
      99926    2    1    2    0    0  0.00000000000E+00  0.00000000000E+00 -0.20021713652E+04  0.20585002803E+04  0.47826062813E+03 0.  0.
      99925    2    3    3    0    0  0.90107736867E+02 -0.21389892257E+02 -0.16512506320E+04  0.16746125352E+04  0.26290979770E+03 0.  0.
         25    1    4    4    0    0  0.80119394102E+02 -0.12921201880E+02 -0.75538429301E+03  0.76996039703E+03  0.12509000000E+03 0.  0.
         25    1    3    3    0    0 -0.90107736867E+02  0.21389892257E+02 -0.35092073313E+03  0.38388774502E+03  0.12509000000E+03 0.  0.
         25    1    4    4    0    0  0.99883427654E+01 -0.84686903778E+01 -0.89586633901E+03  0.90465213822E+03  0.12509000000E+03 0.  0.
<mgrwt>
<rscale>  2 0.47826063E+03</rscale>
<asrwt>0</asrwt>
<pdfrwt beam="1">  1       21 0.41418311E-02 0.47826063E+03</pdfrwt>
<pdfrwt beam="2">  1       21 0.29857886E+00 0.47826063E+03</pdfrwt>
<totfact> 0.10709783E+04</totfact>
</mgrwt>
</event>
<event>
 7    0  0.4725730E-002  0.4533592E+03  0.7546771E-02  0.1026725E+00
         21   -1    0    0  502  501  0.00000000000E+00  0.00000000000E+00  0.80473056655E+03  0.80473056655E+03  0.00000000000E+00 0.  1.
         21   -1    0    0  501  502 -0.00000000000E+00 -0.00000000000E+00 -0.63851982246E+02  0.63851982246E+02  0.00000000000E+00 0.  1.
      99926    2    1    2    0    0  0.00000000000E+00  0.35527136788E-14  0.74087858430E+03  0.86858254880E+03  0.45335920349E+03 0.  0.
      99925    2    3    3    0    0  0.55788427260E+02  0.28691472755E+02  0.28907476886E+03  0.39560290338E+03  0.26268210055E+03 0.  0.
         25    1    3    3    0    0 -0.55788427260E+02 -0.28691472755E+02  0.45180381545E+03  0.47297964542E+03  0.12509000000E+03 0.  0.
         25    1    4    4    0    0  0.53796208641E+02  0.40781809300E+02  0.17863171603E+03  0.22828487927E+03  0.12509000000E+03 0.  0.
         25    1    4    4    0    0  0.19922186192E+01 -0.12090336545E+02  0.11044305283E+03  0.16731802411E+03  0.12509000000E+03 0.  0.
<mgrwt>
<rscale>  2 0.45335920E+03</rscale>
<asrwt>0</asrwt>
<pdfrwt beam="1">  1       21 0.11834272E+00 0.45335920E+03</pdfrwt>
<pdfrwt beam="2">  1       21 0.93899979E-02 0.45335920E+03</pdfrwt>
<totfact> 0.45197866E+04</totfact>
</mgrwt>
</event>
<event>
 7    0  0.4725730E-002  0.4632582E+03  0.7546771E-02  0.1023840E+00
         21   -1    0    0  502  501  0.00000000000E+00  0.00000000000E+00  0.53482870551E+02  0.53482870551E+02  0.00000000000E+00 0.  1.
         21   -1    0    0  501  502 -0.00000000000E+00 -0.00000000000E+00 -0.10031632275E+04  0.10031632275E+04  0.00000000000E+00 0.  1.
      99926    2    1    2    0    0  0.00000000000E+00  0.00000000000E+00 -0.94968035692E+03  0.10566460980E+04  0.46325823916E+03 0.  0.
      99925    2    3    3    0    0  0.59240403655E+01 -0.73703380246E+02 -0.37548500033E+03  0.46434963666E+03  0.26299109696E+03 0.  0.
         25    1    4    4    0    0 -0.29691836342E+02 -0.12449281071E+02 -0.16766651468E+03  0.21165102879E+03  0.12509000000E+03 0.  0.
         25    1    3    3    0    0 -0.59240403655E+01  0.73703380246E+02 -0.57419535659E+03  0.59229646136E+03  0.12509000000E+03 0.  0.
         25    1    4    4    0    0  0.35615876707E+02 -0.61254099175E+02 -0.20781848565E+03  0.25269860786E+03  0.12509000000E+03 0.  0.
<mgrwt>
<rscale>  2 0.46325824E+03</rscale>
<asrwt>0</asrwt>
<pdfrwt beam="1">  1       21 0.78651283E-02 0.46325824E+03</pdfrwt>
<pdfrwt beam="2">  1       21 0.14752400E+00 0.46325824E+03</pdfrwt>
<totfact> 0.34740693E+04</totfact>
</mgrwt>
</event>
<event>
 7    0  0.4725730E-002  0.4550987E+03  0.7546771E-02  0.1026212E+00
         21   -1    0    0  502  501  0.00000000000E+00  0.00000000000E+00  0.57378358307E+02  0.57378358307E+02  0.00000000000E+00 0. -1.
         21   -1    0    0  501  502 -0.00000000000E+00 -0.00000000000E+00 -0.90240816157E+03  0.90240816157E+03  0.00000000000E+00 0. -1.
      99926    2    1    2    0    0  0.00000000000E+00 -0.35527136788E-14 -0.84502980326E+03  0.95978651988E+03  0.45509866549E+03 0.  0.
      99925    2    3    3    0    0  0.73810495846E+02 -0.31365656735E+02 -0.36308285054E+03  0.45545313108E+03  0.26301445689E+03 0.  0.
         25    1    4    4    0    0  0.26652404409E+02 -0.49491920499E+02 -0.21611427335E+03  0.25595446490E+03  0.12509000000E+03 0.  0.
         25    1    3    3    0    0 -0.73810495846E+02  0.31365656735E+02 -0.48194695272E+03  0.50433338880E+03  0.12509000000E+03 0.  0.
         25    1    4    4    0    0  0.47158091437E+02  0.18126263764E+02 -0.14696857719E+03  0.19949866618E+03  0.12509000000E+03 0.  0.
<mgrwt>
<rscale>  2 0.45509867E+03</rscale>
<asrwt>0</asrwt>
<pdfrwt beam="1">  1       21 0.84379939E-02 0.45509867E+03</pdfrwt>
<pdfrwt beam="2">  1       21 0.13270708E+00 0.45509867E+03</pdfrwt>
<totfact> 0.40715649E+04</totfact>
</mgrwt>
</event>
<event>
 7    0  0.4725730E-002  0.4501213E+03  0.7546771E-02  0.1027686E+00
         21   -1    0    0  502  501  0.00000000000E+00  0.00000000000E+00  0.20904117199E+03  0.20904117199E+03  0.00000000000E+00 0.  1.
         21   -1    0    0  501  502 -0.00000000000E+00 -0.00000000000E+00 -0.24230770165E+03  0.24230770165E+03  0.00000000000E+00 0.  1.
      99926    2    1    2    0    0  0.71054273576E-14  0.17763568394E-14 -0.33266529661E+02  0.45134887364E+03  0.45012125449E+03 0.  0.
      99925    2    3    3    0    0  0.62228966222E+02  0.15595936846E+02 -0.10883628647E+03  0.29174319164E+03  0.26296972285E+03 0.  0.
         25    1    4    4    0    0  0.37707623019E+02 -0.23374325940E+02 -0.81264804905E+02  0.15562679899E+03  0.12509000000E+03 0.  0.
         25    1    4    4    0    0  0.24521343203E+02  0.38970262786E+02 -0.27571481561E+02  0.13611639266E+03  0.12509000000E+03 0.  0.
         25    1    3    3    0    0 -0.62228966222E+02 -0.15595936846E+02  0.75569756805E+02  0.15960568200E+03  0.12509000000E+03 0.  0.
<mgrwt>
<rscale>  2 0.45012125E+03</rscale>
<asrwt>0</asrwt>
<pdfrwt beam="1">  1       21 0.30741349E-01 0.45012125E+03</pdfrwt>
<pdfrwt beam="2">  1       21 0.35633485E-01 0.45012125E+03</pdfrwt>
<totfact> 0.71559370E+04</totfact>
</mgrwt>
</event>
<event>
 7    0  0.4725730E-002  0.4364611E+03  0.7546771E-02  0.1031838E+00
         21   -1    0    0  502  501  0.00000000000E+00  0.00000000000E+00  0.44261100964E+03  0.44261100964E+03  0.00000000000E+00 0. -1.
         21   -1    0    0  501  502 -0.00000000000E+00 -0.00000000000E+00 -0.10759914340E+03  0.10759914340E+03  0.00000000000E+00 0. -1.
      99926    2    1    2    0    0  0.00000000000E+00  0.00000000000E+00  0.33501186624E+03  0.55021015304E+03  0.43646106583E+03 0.  0.
      99925    2    3    3    0    0 -0.43304591949E+02 -0.18664178713E+02  0.31811355770E+03  0.41546335277E+03  0.26303977389E+03 0.  0.
         25    1    4    4    0    0 -0.29645257221E+02  0.46900202461E+01  0.21738662637E+03  0.25259709221E+03  0.12509000000E+03 0.  0.
         25    1    4    4    0    0 -0.13659334728E+02 -0.23354198959E+02  0.10072693133E+03  0.16286626056E+03  0.12509000000E+03 0.  0.
         25    1    3    3    0    0  0.43304591949E+02  0.18664178713E+02  0.16898308539E+02  0.13474680027E+03  0.12509000000E+03 0.  0.
<mgrwt>
<rscale>  2 0.43646107E+03</rscale>
<asrwt>0</asrwt>
<pdfrwt beam="1">  1       21 0.65089854E-01 0.43646107E+03</pdfrwt>
<pdfrwt beam="2">  1       21 0.15823404E-01 0.43646107E+03</pdfrwt>
<totfact> 0.71821424E+04</totfact>
</mgrwt>
</event>
<event>
 7    0  0.4725730E-002  0.4339462E+03  0.7546771E-02  0.1032621E+00
         21   -1    0    0  502  501  0.00000000000E+00  0.00000000000E+00  0.21455004111E+03  0.21455004111E+03  0.00000000000E+00 0. -1.
         21   -1    0    0  501  502 -0.00000000000E+00 -0.00000000000E+00 -0.21942355807E+03  0.21942355807E+03  0.00000000000E+00 0. -1.
      99926    2    1    2    0    0  0.00000000000E+00 -0.35527136788E-14 -0.48735169539E+01  0.43397359918E+03  0.43394623356E+03 0.  0.
      99925    2    3    3    0    0 -0.35942161655E+01 -0.24236232761E+02 -0.91787391469E+02  0.27969513973E+03  0.26306678351E+03 0.  0.
         25    1    3    3    0    0  0.35942161655E+01  0.24236232761E+02  0.86913874516E+02  0.15427845945E+03  0.12509000000E+03 0.  0.
         25    1    4    4    0    0  0.12145382895E+01  0.27993271663E+02 -0.37162567280E+02  0.13346783458E+03  0.12509000000E+03 0.  0.
         25    1    4    4    0    0 -0.48087544550E+01 -0.52229504424E+02 -0.54624824190E+02  0.14622730514E+03  0.12509000000E+03 0.  0.
<mgrwt>
<rscale>  2 0.43394623E+03</rscale>
<asrwt>0</asrwt>
<pdfrwt beam="1">  1       21 0.31551477E-01 0.43394623E+03</pdfrwt>
<pdfrwt beam="2">  1       21 0.32268170E-01 0.43394623E+03</pdfrwt>
<totfact> 0.83243848E+04</totfact>
</mgrwt>
</event>
<event>
 7    0  0.4725730E-002  0.4533176E+03  0.7546771E-02  0.1026737E+00
         21   -1    0    0  502  501  0.00000000000E+00  0.00000000000E+00  0.24939063427E+03  0.24939063427E+03  0.00000000000E+00 0. -1.
         21   -1    0    0  501  502 -0.00000000000E+00 -0.00000000000E+00 -0.20599893561E+03  0.20599893561E+03  0.00000000000E+00 0. -1.
      99926    2    1    2    0    0  0.00000000000E+00  0.00000000000E+00  0.43391698655E+02  0.45538956988E+03  0.45331757174E+03 0.  0.
      99925    2    3    3    0    0 -0.97578745067E+02  0.30608956326E+02 -0.17572518315E+02  0.28269717414E+03  0.26296459680E+03 0.  0.
         25    1    4    4    0    0 -0.88010593144E+02  0.71932688615E+00 -0.15255290014E+02  0.15370951145E+03  0.12509000000E+03 0.  0.
         25    1    3    3    0    0  0.97578745067E+02 -0.30608956326E+02  0.60964216971E+02  0.17269239574E+03  0.12509000000E+03 0.  0.
         25    1    4    4    0    0 -0.95681519231E+01  0.29889629440E+02 -0.23172283015E+01  0.12898766269E+03  0.12509000000E+03 0.  0.
<mgrwt>
<rscale>  2 0.45331757E+03</rscale>
<asrwt>0</asrwt>
<pdfrwt beam="1">  1       21 0.36675093E-01 0.45331757E+03</pdfrwt>
<pdfrwt beam="2">  1       21 0.30293961E-01 0.45331757E+03</pdfrwt>
<totfact> 0.69444781E+04</totfact>
</mgrwt>
</event>
<event>
 7    0  0.4725730E-002  0.4514868E+03  0.7546771E-02  0.1027280E+00
         21   -1    0    0  502  501  0.00000000000E+00  0.00000000000E+00  0.22273875912E+04  0.22273875912E+04  0.00000000000E+00 0.  1.
         21   -1    0    0  501  502 -0.00000000000E+00 -0.00000000000E+00 -0.22878852265E+02  0.22878852265E+02  0.00000000000E+00 0.  1.
      99926    2    1    2    0    0 -0.14210854715E-13 -0.71054273576E-14  0.22045087390E+04  0.22502664435E+04  0.45148675124E+03 0.  0.
      99925    2    3    3    0    0  0.93644643726E+02  0.44485867383E+02  0.15727726254E+04  0.15979733062E+04  0.26297650919E+03 0.  0.
         25    1    3    3    0    0 -0.93644643726E+02 -0.44485867383E+02  0.63173611353E+03  0.65229313727E+03  0.12509000000E+03 0.  0.
         25    1    4    4    0    0  0.13482988193E+02 -0.28075570856E+01  0.63923728652E+03  0.65150709123E+03  0.12509000000E+03 0.  0.
         25    1    4    4    0    0  0.80161655532E+02  0.47293424469E+02  0.93353533892E+03  0.94646621499E+03  0.12509000000E+03 0.  0.
<mgrwt>
<rscale>  2 0.45148675E+03</rscale>
<asrwt>0</asrwt>
<pdfrwt beam="1">  1       21 0.32755685E+00 0.45148675E+03</pdfrwt>
<pdfrwt beam="2">  1       21 0.33645386E-02 0.45148675E+03</pdfrwt>
<totfact> 0.10315805E+04</totfact>
</mgrwt>
</event>
<event>
 7    0  0.4725730E-002  0.4565026E+03  0.7546771E-02  0.1025800E+00
         21   -1    0    0  502  501  0.00000000000E+00  0.00000000000E+00  0.12849887159E+03  0.12849887159E+03  0.00000000000E+00 0. -1.
         21   -1    0    0  501  502 -0.00000000000E+00 -0.00000000000E+00 -0.40544061491E+03  0.40544061491E+03  0.00000000000E+00 0. -1.
      99926    2    1    2    0    0  0.00000000000E+00 -0.71054273576E-14 -0.27694174332E+03  0.53393948650E+03  0.45650262436E+03 0.  0.
      99925    2    3    3    0    0 -0.96736615060E+02 -0.58141101258E+02 -0.19733832202E+03  0.34759954679E+03  0.26295374354E+03 0.  0.
         25    1    3    3    0    0  0.96736615060E+02  0.58141101258E+02 -0.79603421304E+02  0.18633993971E+03  0.12509000000E+03 0.  0.
         25    1    4    4    0    0 -0.66233462454E+01 -0.21499522294E+02 -0.98985369675E+02  0.16109534346E+03  0.12509000000E+03 0.  0.
         25    1    4    4    0    0 -0.90113268815E+02 -0.36641578964E+02 -0.98352952341E+02  0.18650420333E+03  0.12509000000E+03 0.  0.
<mgrwt>
<rscale>  2 0.45650262E+03</rscale>
<asrwt>0</asrwt>
<pdfrwt beam="1">  1       21 0.18896893E-01 0.45650262E+03</pdfrwt>
<pdfrwt beam="2">  1       21 0.59623620E-01 0.45650262E+03</pdfrwt>
<totfact> 0.62196592E+04</totfact>
</mgrwt>
</event>
<event>
 7    0  0.4725730E-002  0.4515772E+03  0.7546771E-02  0.1027253E+00
         21   -1    0    0  502  501  0.00000000000E+00  0.00000000000E+00  0.42522475499E+03  0.42522475499E+03  0.00000000000E+00 0. -1.
         21   -1    0    0  501  502 -0.00000000000E+00 -0.00000000000E+00 -0.11989067860E+03  0.11989067860E+03  0.00000000000E+00 0. -1.
      99926    2    1    2    0    0 -0.13322676296E-14 -0.71054273576E-14  0.30533407640E+03  0.54511543359E+03  0.45157716697E+03 0.  0.
      99925    2    3    3    0    0 -0.36624564171E+01 -0.58064908156E+02  0.30529095714E+03  0.40715726201E+03  0.26303900918E+03 0.  0.
         25    1    3    3    0    0  0.36624564171E+01  0.58064908156E+02  0.43119254529E-01  0.13795817158E+03  0.12509000000E+03 0.  0.
         25    1    4    4    0    0  0.30254873678E+02 -0.86197874755E+01  0.16993946154E+03  0.21334616661E+03  0.12509000000E+03 0.  0.
         25    1    4    4    0    0 -0.33917330095E+02 -0.49445120681E+02  0.13535149560E+03  0.19381109540E+03  0.12509000000E+03 0.  0.
<mgrwt>
<rscale>  2 0.45157717E+03</rscale>
<asrwt>0</asrwt>
<pdfrwt beam="1">  1       21 0.62533052E-01 0.45157717E+03</pdfrwt>
<pdfrwt beam="2">  1       21 0.17630982E-01 0.45157717E+03</pdfrwt>
<totfact> 0.63903728E+04</totfact>
</mgrwt>
</event>
<event>
 7    0  0.4725730E-002  0.4524323E+03  0.7546771E-02  0.1026999E+00
         21   -1    0    0  502  501  0.00000000000E+00  0.00000000000E+00  0.56608445595E+02  0.56608445595E+02  0.00000000000E+00 0. -1.
         21   -1    0    0  501  502 -0.00000000000E+00 -0.00000000000E+00 -0.90399483999E+03  0.90399483999E+03  0.00000000000E+00 0. -1.
      99926    2    1    2    0    0  0.14210854715E-13 -0.71054273576E-14 -0.84738639439E+03  0.96060328558E+03  0.45243228319E+03 0.  0.
      99925    2    3    3    0    0 -0.84260957331E+02  0.59150053835E+02 -0.62100289952E+03  0.68222291155E+03  0.26303015421E+03 0.  0.
         25    1    4    4    0    0 -0.39375792677E+02  0.84530931748E+01 -0.21452156666E+03  0.25157288903E+03  0.12509000000E+03 0.  0.
         25    1    3    3    0    0  0.84260957331E+02 -0.59150053835E+02 -0.22638349487E+03  0.27838037404E+03  0.12509000000E+03 0.  0.
         25    1    4    4    0    0 -0.44885164654E+02  0.50696960660E+02 -0.40648133286E+03  0.43065002251E+03  0.12509000000E+03 0.  0.
<mgrwt>
<rscale>  2 0.45243228E+03</rscale>
<asrwt>0</asrwt>
<pdfrwt beam="1">  1       21 0.83247718E-02 0.45243228E+03</pdfrwt>
<pdfrwt beam="2">  1       21 0.13294041E+00 0.45243228E+03</pdfrwt>
<totfact> 0.41542205E+04</totfact>
</mgrwt>
</event>
<event>
 7    0  0.4725730E-002  0.4554865E+03  0.7546771E-02  0.1026098E+00
         21   -1    0    0  502  501  0.00000000000E+00  0.00000000000E+00  0.15769133262E+03  0.15769133262E+03  0.00000000000E+00 0. -1.
         21   -1    0    0  501  502 -0.00000000000E+00 -0.00000000000E+00 -0.32891465796E+03  0.32891465796E+03  0.00000000000E+00 0. -1.
      99926    2    1    2    0    0  0.14210854715E-13  0.00000000000E+00 -0.17122332534E+03  0.48660599058E+03  0.45548651234E+03 0.  0.
      99925    2    3    3    0    0 -0.53608469634E+02 -0.87360771000E+02 -0.55339209347E+02  0.28765270770E+03  0.26301307920E+03 0.  0.
         25    1    4    4    0    0 -0.66686037764E+02 -0.35952171709E+02 -0.33576375554E+02  0.15004821685E+03  0.12509000000E+03 0.  0.
         25    1    4    4    0    0  0.13077568130E+02 -0.51408599291E+02 -0.21762833793E+02  0.13760449086E+03  0.12509000000E+03 0.  0.
         25    1    3    3    0    0  0.53608469634E+02  0.87360771000E+02 -0.11588411600E+03  0.19895328287E+03  0.12509000000E+03 0.  0.
<mgrwt>
<rscale>  2 0.45548651E+03</rscale>
<asrwt>0</asrwt>
<pdfrwt beam="1">  1       21 0.23189902E-01 0.45548651E+03</pdfrwt>
<pdfrwt beam="2">  1       21 0.48369802E-01 0.45548651E+03</pdfrwt>
<totfact> 0.65967144E+04</totfact>
</mgrwt>
</event>
<event>
 7    0  0.4725730E-002  0.4549578E+03  0.7546771E-02  0.1026254E+00
         21   -1    0    0  502  501  0.00000000000E+00  0.00000000000E+00  0.18966972521E+03  0.18966972521E+03  0.00000000000E+00 0. -1.
         21   -1    0    0  501  502 -0.00000000000E+00 -0.00000000000E+00 -0.27282501395E+03  0.27282501395E+03  0.00000000000E+00 0. -1.
      99926    2    1    2    0    0  0.00000000000E+00  0.71054273576E-14 -0.83155288738E+02  0.46249473916E+03  0.45495778013E+03 0.  0.
      99925    2    3    3    0    0 -0.98213951839E+02  0.55124328336E+02 -0.62890823971E+02  0.29295763837E+03  0.26302899123E+03 0.  0.
         25    1    4    4    0    0 -0.34971942853E+02  0.20716427934E+02 -0.68941843787E+02  0.14850149190E+03  0.12509000000E+03 0.  0.
         25    1    3    3    0    0  0.98213951839E+02 -0.55124328336E+02 -0.20264464767E+02  0.16953710079E+03  0.12509000000E+03 0.  0.
         25    1    4    4    0    0 -0.63242008986E+02  0.34407900402E+02  0.60510198158E+01  0.14445614647E+03  0.12509000000E+03 0.  0.
<mgrwt>
<rscale>  2 0.45495778E+03</rscale>
<asrwt>0</asrwt>
<pdfrwt beam="1">  1       21 0.27892607E-01 0.45495778E+03</pdfrwt>
<pdfrwt beam="2">  1       21 0.40121326E-01 0.45495778E+03</pdfrwt>
<totfact> 0.68019335E+04</totfact>
</mgrwt>
</event>
<event>
 7    0  0.4725730E-002  0.4544898E+03  0.7546771E-02  0.1026392E+00
         21   -1    0    0  502  501  0.00000000000E+00  0.00000000000E+00  0.68230129891E+03  0.68230129891E+03  0.00000000000E+00 0. -1.
         21   -1    0    0  501  502 -0.00000000000E+00 -0.00000000000E+00 -0.75685391281E+02  0.75685391281E+02  0.00000000000E+00 0. -1.
      99926    2    1    2    0    0  0.00000000000E+00  0.00000000000E+00  0.60661590763E+03  0.75798669019E+03  0.45448978329E+03 0.  0.
      99925    2    3    3    0    0  0.96938114465E+02  0.47769319083E+02  0.43509665560E+03  0.51977403772E+03  0.26301529364E+03 0.  0.
         25    1    4    4    0    0  0.83401597468E+02  0.41855595857E+02  0.20736783238E+03  0.25953158453E+03  0.12509000000E+03 0.  0.
         25    1    4    4    0    0  0.13536516997E+02  0.59137232255E+01  0.22772882322E+03  0.26024245318E+03  0.12509000000E+03 0.  0.
         25    1    3    3    0    0 -0.96938114465E+02 -0.47769319083E+02  0.17151925204E+03  0.23821265248E+03  0.12509000000E+03 0.  0.
<mgrwt>
<rscale>  2 0.45448978E+03</rscale>
<asrwt>0</asrwt>
<pdfrwt beam="1">  1       21 0.10033842E+00 0.45448978E+03</pdfrwt>
<pdfrwt beam="2">  1       21 0.11130205E-01 0.45448978E+03</pdfrwt>
<totfact> 0.50063734E+04</totfact>
</mgrwt>
</event>
<event>
 7    0  0.4725730E-002  0.4527988E+03  0.7546771E-02  0.1026891E+00
         21   -1    0    0  502  501  0.00000000000E+00  0.00000000000E+00  0.21362971012E+03  0.21362971012E+03  0.00000000000E+00 0.  1.
         21   -1    0    0  501  502 -0.00000000000E+00 -0.00000000000E+00 -0.23993241123E+03  0.23993241123E+03  0.00000000000E+00 0.  1.
      99926    2    1    2    0    0  0.00000000000E+00  0.00000000000E+00 -0.26302701107E+02  0.45356212135E+03  0.45279881387E+03 0.  0.
      99925    2    3    3    0    0  0.47425811619E+02 -0.40101375075E+02 -0.10873378947E+03  0.29139023625E+03  0.26311196270E+03 0.  0.
         25    1    4    4    0    0 -0.10588062451E+02  0.35595810722E+01 -0.46214555192E+02  0.13382104056E+03  0.12509000000E+03 0.  0.
         25    1    4    4    0    0  0.58013874069E+02 -0.43660956148E+02 -0.62519234278E+02  0.15756919569E+03  0.12509000000E+03 0.  0.
         25    1    3    3    0    0 -0.47425811619E+02  0.40101375075E+02  0.82431088362E+02  0.16217188511E+03  0.12509000000E+03 0.  0.
<mgrwt>
<rscale>  2 0.45279881E+03</rscale>
<asrwt>0</asrwt>
<pdfrwt beam="1">  1       21 0.31416134E-01 0.45279881E+03</pdfrwt>
<pdfrwt beam="2">  1       21 0.35284178E-01 0.45279881E+03</pdfrwt>
<totfact> 0.69870377E+04</totfact>
</mgrwt>
</event>
<event>
 7    0  0.4725730E-002  0.4590017E+03  0.7546771E-02  0.1025071E+00
         21   -1    0    0  502  501  0.00000000000E+00  0.00000000000E+00  0.49307033511E+03  0.49307033511E+03  0.00000000000E+00 0. -1.
         21   -1    0    0  501  502 -0.00000000000E+00 -0.00000000000E+00 -0.10682174671E+03  0.10682174671E+03  0.00000000000E+00 0. -1.
      99926    2    1    2    0    0  0.00000000000E+00  0.00000000000E+00  0.38624858840E+03  0.59989208183E+03  0.45900167516E+03 0.  0.
      99925    2    3    3    0    0 -0.44246085009E+02 -0.90213495704E+01  0.10131927779E+03  0.28545397833E+03  0.26301953712E+03 0.  0.
         25    1    4    4    0    0 -0.20912814277E+02 -0.43201889430E+02  0.64183194384E+02  0.14856224148E+03  0.12509000000E+03 0.  0.
         25    1    3    3    0    0  0.44246085009E+02  0.90213495704E+01  0.28492931061E+03  0.31443810350E+03  0.12509000000E+03 0.  0.
         25    1    4    4    0    0 -0.23333270731E+02  0.34180539859E+02  0.37136083407E+02  0.13689173685E+03  0.12509000000E+03 0.  0.
<mgrwt>
<rscale>  2 0.45900168E+03</rscale>
<asrwt>0</asrwt>
<pdfrwt beam="1">  1       21 0.72510343E-01 0.45900168E+03</pdfrwt>
<pdfrwt beam="2">  1       21 0.15709081E-01 0.45900168E+03</pdfrwt>
<totfact> 0.56865440E+04</totfact>
</mgrwt>
</event>
<event>
 7    0  0.4725730E-002  0.4575732E+03  0.7546771E-02  0.1025487E+00
         21   -1    0    0  502  501  0.00000000000E+00  0.00000000000E+00  0.10332336186E+04  0.10332336186E+04  0.00000000000E+00 0. -1.
         21   -1    0    0  501  502 -0.00000000000E+00 -0.00000000000E+00 -0.50659702748E+02  0.50659702748E+02  0.00000000000E+00 0. -1.
      99926    2    1    2    0    0  0.00000000000E+00  0.00000000000E+00  0.98257391588E+03  0.10838933214E+04  0.45757319847E+03 0.  0.
      99925    2    3    3    0    0 -0.26398872294E+02 -0.65011455088E+02  0.40184329200E+03  0.48571361981E+03  0.26365943828E+03 0.  0.
         25    1    4    4    0    0 -0.43642050050E+01 -0.48551734255E+02  0.13856834213E+03  0.19293784161E+03  0.12509000000E+03 0.  0.
         25    1    3    3    0    0  0.26398872294E+02  0.65011455088E+02  0.58073062388E+03  0.59817970156E+03  0.12509000000E+03 0.  0.
         25    1    4    4    0    0 -0.22034667289E+02 -0.16459720834E+02  0.26327494987E+03  0.29277577820E+03  0.12509000000E+03 0.  0.
<mgrwt>
<rscale>  2 0.45757320E+03</rscale>
<asrwt>0</asrwt>
<pdfrwt beam="1">  1       21 0.15194611E+00 0.45757320E+03</pdfrwt>
<pdfrwt beam="2">  1       21 0.74499570E-02 0.45757320E+03</pdfrwt>
<totfact> 0.35342829E+04</totfact>
</mgrwt>
</event>
<event>
 7    0  0.4725730E-002  0.4573304E+03  0.7546771E-02  0.1025558E+00
         21   -1    0    0  502  501  0.00000000000E+00  0.00000000000E+00  0.40612744466E+03  0.40612744466E+03  0.00000000000E+00 0.  1.
         21   -1    0    0  501  502 -0.00000000000E+00 -0.00000000000E+00 -0.12874718436E+03  0.12874718436E+03  0.00000000000E+00 0.  1.
      99926    2    1    2    0    0  0.00000000000E+00  0.00000000000E+00  0.27738026030E+03  0.53487462902E+03  0.45733036195E+03 0.  0.
      99925    2    3    3    0    0 -0.76223866136E+02 -0.65447065933E+02  0.10791446234E+03  0.30150890534E+03  0.26299941561E+03 0.  0.
         25    1    3    3    0    0  0.76223866136E+02  0.65447065933E+02  0.16946579796E+03  0.23336572368E+03  0.12509000000E+03 0.  0.
         25    1    4    4    0    0 -0.32926895386E+02  0.54117188871E+01  0.67583730957E+02  0.14604292496E+03  0.12509000000E+03 0.  0.
         25    1    4    4    0    0 -0.43296970750E+02 -0.70858784820E+02  0.40330731385E+02  0.15546598038E+03  0.12509000000E+03 0.  0.
<mgrwt>
<rscale>  2 0.45733036E+03</rscale>
<asrwt>0</asrwt>
<pdfrwt beam="1">  1       21 0.59724624E-01 0.45733036E+03</pdfrwt>
<pdfrwt beam="2">  1       21 0.18933410E-01 0.45733036E+03</pdfrwt>
<totfact> 0.61729723E+04</totfact>
</mgrwt>
</event>
<event>
 7    0  0.4725730E-002  0.4530717E+03  0.7546771E-02  0.1026810E+00
         21   -1    0    0  502  501  0.00000000000E+00  0.00000000000E+00  0.10591769963E+04  0.10591769963E+04  0.00000000000E+00 0.  1.
         21   -1    0    0  501  502 -0.00000000000E+00 -0.00000000000E+00 -0.48451296034E+02  0.48451296034E+02  0.00000000000E+00 0.  1.
      99926    2    1    2    0    0  0.00000000000E+00  0.00000000000E+00  0.10107257003E+04  0.11076282924E+04  0.45307173031E+03 0.  0.
      99925    2    3    3    0    0 -0.70152022822E+02 -0.83185741654E+02  0.69267522398E+03  0.74895743000E+03  0.26324340850E+03 0.  0.
         25    1    4    4    0    0 -0.69313705806E+02 -0.52754065338E+02  0.43453345447E+03  0.46049344445E+03  0.12509000000E+03 0.  0.
         25    1    3    3    0    0  0.70152022822E+02  0.83185741654E+02  0.31805047631E+03  0.35867086235E+03  0.12509000000E+03 0.  0.
         25    1    4    4    0    0 -0.83831701647E+00 -0.30431676316E+02  0.25814176950E+03  0.28846398555E+03  0.12509000000E+03 0.  0.
<mgrwt>
<rscale>  2 0.45307173E+03</rscale>
<asrwt>0</asrwt>
<pdfrwt beam="1">  1       21 0.15576131E+00 0.45307173E+03</pdfrwt>
<pdfrwt beam="2">  1       21 0.71251913E-02 0.45307173E+03</pdfrwt>
<totfact> 0.35763551E+04</totfact>
</mgrwt>
</event>
<event>
 7    0  0.4725730E-002  0.4574782E+03  0.7546771E-02  0.1025515E+00
         21   -1    0    0  502  501  0.00000000000E+00  0.00000000000E+00  0.12523565965E+03  0.12523565965E+03  0.00000000000E+00 0. -1.
         21   -1    0    0  501  502 -0.00000000000E+00 -0.00000000000E+00 -0.41778498340E+03  0.41778498340E+03  0.00000000000E+00 0. -1.
      99926    2    1    2    0    0  0.00000000000E+00  0.00000000000E+00 -0.29254932375E+03  0.54302064305E+03  0.45747820926E+03 0.  0.
      99925    2    3    3    0    0  0.11303604962E+03  0.18443078724E+02 -0.16669973427E+03  0.33182660208E+03  0.26306424458E+03 0.  0.
         25    1    4    4    0    0  0.85688984875E+02 -0.11664760717E+02 -0.11429420430E+03  0.19023496526E+03  0.12509000000E+03 0.  0.
         25    1    4    4    0    0  0.27347064748E+02  0.30107839441E+02 -0.52405529975E+02  0.14159163682E+03  0.12509000000E+03 0.  0.
         25    1    3    3    0    0 -0.11303604962E+03 -0.18443078724E+02 -0.12584958948E+03  0.21119404097E+03  0.12509000000E+03 0.  0.
<mgrwt>
<rscale>  2 0.45747821E+03</rscale>
<asrwt>0</asrwt>
<pdfrwt beam="1">  1       21 0.18417009E-01 0.45747821E+03</pdfrwt>
<pdfrwt beam="2">  1       21 0.61438967E-01 0.45747821E+03</pdfrwt>
<totfact> 0.61122563E+04</totfact>
</mgrwt>
</event>
<event>
 7    0  0.4725730E-002  0.4510307E+03  0.7546771E-02  0.1027415E+00
         21   -1    0    0  502  501  0.00000000000E+00  0.00000000000E+00  0.27482301029E+03  0.27482301029E+03  0.00000000000E+00 0.  1.
         21   -1    0    0  501  502 -0.00000000000E+00 -0.00000000000E+00 -0.18505424005E+03  0.18505424005E+03  0.00000000000E+00 0.  1.
      99926    2    1    2    0    0 -0.35527136788E-14 -0.35527136788E-14  0.89768770243E+02  0.45987725034E+03  0.45103065668E+03 0.  0.
      99925    2    3    3    0    0 -0.26981353183E+02 -0.28517613670E+02 -0.46428102184E+02  0.27083137266E+03  0.26391819951E+03 0.  0.
         25    1    4    4    0    0 -0.39454748727E+02 -0.30799664392E+02  0.53917891792E+01  0.13484018694E+03  0.12509000000E+03 0.  0.
         25    1    3    3    0    0  0.26981353183E+02  0.28517613670E+02  0.13619687243E+03  0.18904587768E+03  0.12509000000E+03 0.  0.
         25    1    4    4    0    0  0.12473395544E+02  0.22820507217E+01 -0.51819891363E+02  0.13599118572E+03  0.12509000000E+03 0.  0.
<mgrwt>
<rscale>  2 0.45103066E+03</rscale>
<asrwt>0</asrwt>
<pdfrwt beam="1">  1       21 0.40415148E-01 0.45103066E+03</pdfrwt>
<pdfrwt beam="2">  1       21 0.27213859E-01 0.45103066E+03</pdfrwt>
<totfact> 0.70387061E+04</totfact>
</mgrwt>
</event>
<event>
 7    0  0.4725730E-002  0.4532710E+03  0.7546771E-02  0.1026751E+00
         21   -1    0    0  502  501  0.00000000000E+00  0.00000000000E+00  0.22078695797E+03  0.22078695797E+03  0.00000000000E+00 0.  1.
         21   -1    0    0  501  502 -0.00000000000E+00 -0.00000000000E+00 -0.23263898229E+03  0.23263898229E+03  0.00000000000E+00 0.  1.
      99926    2    1    2    0    0  0.00000000000E+00  0.00000000000E+00 -0.11852024313E+02  0.45342594026E+03  0.45327101476E+03 0.  0.
      99925    2    3    3    0    0 -0.95417461037E+02  0.54527441183E+02 -0.26891611183E+02  0.28623912563E+03  0.26292954299E+03 0.  0.
         25    1    3    3    0    0  0.95417461037E+02 -0.54527441183E+02  0.15039586870E+02  0.16718681463E+03  0.12509000000E+03 0.  0.
         25    1    4    4    0    0 -0.20100508864E+02  0.27705230884E+02  0.18490854089E+02  0.13100011473E+03  0.12509000000E+03 0.  0.
         25    1    4    4    0    0 -0.75316952173E+02  0.26822210300E+02 -0.45382465272E+02  0.15523901090E+03  0.12509000000E+03 0.  0.
<mgrwt>
<rscale>  2 0.45327101E+03</rscale>
<asrwt>0</asrwt>
<pdfrwt beam="1">  1       21 0.32468670E-01 0.45327101E+03</pdfrwt>
<pdfrwt beam="2">  1       21 0.34211615E-01 0.45327101E+03</pdfrwt>
<totfact> 0.69616717E+04</totfact>
</mgrwt>
</event>
<event>
 7    0  0.4725730E-002  0.4466976E+03  0.7546771E-02  0.1028711E+00
         21   -1    0    0  502  501  0.00000000000E+00  0.00000000000E+00  0.87180925962E+02  0.87180925962E+02  0.00000000000E+00 0. -1.
         21   -1    0    0  501  502 -0.00000000000E+00 -0.00000000000E+00 -0.57219717579E+03  0.57219717579E+03  0.00000000000E+00 0. -1.
      99926    2    1    2    0    0  0.00000000000E+00  0.00000000000E+00 -0.48501624983E+03  0.65937810175E+03  0.44669756936E+03 0.  0.
      99925    2    3    3    0    0 -0.36814618858E+02  0.91398847078E+02 -0.36163464824E+03  0.45793433015E+03  0.26308775439E+03 0.  0.
         25    1    4    4    0    0  0.69282998975E+01  0.73788223349E+02 -0.21455325482E+03  0.25917814433E+03  0.12509000000E+03 0.  0.
         25    1    4    4    0    0 -0.43742918756E+02  0.17610623729E+02 -0.14708139342E+03  0.19875618581E+03  0.12509000000E+03 0.  0.
         25    1    3    3    0    0  0.36814618858E+02 -0.91398847078E+02 -0.12338160159E+03  0.20144377161E+03  0.12509000000E+03 0.  0.
<mgrwt>
<rscale>  2 0.44669757E+03</rscale>
<asrwt>0</asrwt>
<pdfrwt beam="1">  1       21 0.12820725E-01 0.44669757E+03</pdfrwt>
<pdfrwt beam="2">  1       21 0.84146642E-01 0.44669757E+03</pdfrwt>
<totfact> 0.58927600E+04</totfact>
</mgrwt>
</event>
<event>
 7    0  0.4725730E-002  0.4511690E+03  0.7546771E-02  0.1027374E+00
         21   -1    0    0  502  501  0.00000000000E+00  0.00000000000E+00  0.79108979399E+03  0.79108979399E+03  0.00000000000E+00 0.  1.
         21   -1    0    0  501  502 -0.00000000000E+00 -0.00000000000E+00 -0.64326912867E+02  0.64326912867E+02  0.00000000000E+00 0.  1.
      99926    2    1    2    0    0  0.00000000000E+00  0.00000000000E+00  0.72676288112E+03  0.85541670686E+03  0.45116898939E+03 0.  0.
      99925    2    3    3    0    0 -0.87078408277E+01 -0.10810979364E+03  0.48803897547E+03  0.56489964160E+03  0.26299431464E+03 0.  0.
         25    1    4    4    0    0 -0.44155929469E+02 -0.62505937225E+02  0.25723512830E+03  0.29609822294E+03  0.12509000000E+03 0.  0.
         25    1    4    4    0    0  0.35448088642E+02 -0.45603856415E+02  0.23080384717E+03  0.26880141866E+03  0.12509000000E+03 0.  0.
         25    1    3    3    0    0  0.87078408277E+01  0.10810979364E+03  0.23872390566E+03  0.29051706526E+03  0.12509000000E+03 0.  0.
<mgrwt>
<rscale>  2 0.45116899E+03</rscale>
<asrwt>0</asrwt>
<pdfrwt beam="1">  1       21 0.11633673E+00 0.45116899E+03</pdfrwt>
<pdfrwt beam="2">  1       21 0.94598405E-02 0.45116899E+03</pdfrwt>
<totfact> 0.46582130E+04</totfact>
</mgrwt>
</event>
<event>
 7    0  0.4725730E-002  0.4356800E+03  0.7546771E-02  0.1032081E+00
         21   -1    0    0  502  501  0.00000000000E+00  0.00000000000E+00  0.16317671336E+03  0.16317671336E+03  0.00000000000E+00 0. -1.
         21   -1    0    0  501  502 -0.00000000000E+00 -0.00000000000E+00 -0.29081522357E+03  0.29081522357E+03  0.00000000000E+00 0. -1.
      99926    2    1    2    0    0 -0.14210854715E-13 -0.22204460493E-15 -0.12763851021E+03  0.45399193693E+03  0.43568003111E+03 0.  0.
      99925    2    3    3    0    0  0.93728778453E+02 -0.14781841355E+01 -0.87879851398E+02  0.29269863890E+03  0.26298736851E+03 0.  0.
         25    1    3    3    0    0 -0.93728778453E+02  0.14781841355E+01 -0.39758658810E+02  0.16129329803E+03  0.12509000000E+03 0.  0.
         25    1    4    4    0    0  0.28594142055E+02  0.83952509212E+01 -0.79267352883E+02  0.15105934771E+03  0.12509000000E+03 0.  0.
         25    1    4    4    0    0  0.65134636398E+02 -0.98734350567E+01 -0.86124985146E+01  0.14163929119E+03  0.12509000000E+03 0.  0.
<mgrwt>
<rscale>  2 0.43568003E+03</rscale>
<asrwt>0</asrwt>
<pdfrwt beam="1">  1       21 0.23996576E-01 0.43568003E+03</pdfrwt>
<pdfrwt beam="2">  1       21 0.42766944E-01 0.43568003E+03</pdfrwt>
<totfact> 0.80258151E+04</totfact>
</mgrwt>
</event>
<event>
 7    0  0.4725730E-002  0.4493870E+03  0.7546771E-02  0.1027905E+00
         21   -1    0    0  502  501  0.00000000000E+00  0.00000000000E+00  0.26433774529E+03  0.26433774529E+03  0.00000000000E+00 0. -1.
         21   -1    0    0  501  502 -0.00000000000E+00 -0.00000000000E+00 -0.19099491371E+03  0.19099491371E+03  0.00000000000E+00 0. -1.
      99926    2    1    2    0    0 -0.14210854715E-13  0.00000000000E+00  0.73342831578E+02  0.45533265901E+03  0.44938698180E+03 0.  0.
      99925    2    3    3    0    0 -0.89820308976E+02  0.57834660160E+02  0.30060801295E+02  0.28523451655E+03  0.26275947526E+03 0.  0.
         25    1    4    4    0    0 -0.60984724838E+02  0.59534310684E+02 -0.72611222253E+01  0.15153779333E+03  0.12509000000E+03 0.  0.
         25    1    3    3    0    0  0.89820308976E+02 -0.57834660160E+02  0.43282030283E+02  0.17009814245E+03  0.12509000000E+03 0.  0.
         25    1    4    4    0    0 -0.28835584138E+02 -0.16996505235E+01  0.37321923520E+02  0.13369672322E+03  0.12509000000E+03 0.  0.
<mgrwt>
<rscale>  2 0.44938698E+03</rscale>
<asrwt>0</asrwt>
<pdfrwt beam="1">  1       21 0.38873198E-01 0.44938698E+03</pdfrwt>
<pdfrwt beam="2">  1       21 0.28087487E-01 0.44938698E+03</pdfrwt>
<totfact> 0.71677003E+04</totfact>
</mgrwt>
</event>
<event>
 7    0  0.4725730E-002  0.4525223E+03  0.7546771E-02  0.1026973E+00
         21   -1    0    0  502  501  0.00000000000E+00  0.00000000000E+00  0.54424270304E+03  0.54424270304E+03  0.00000000000E+00 0. -1.
         21   -1    0    0  501  502 -0.00000000000E+00 -0.00000000000E+00 -0.94064842521E+02  0.94064842521E+02  0.00000000000E+00 0. -1.
      99926    2    1    2    0    0  0.14210854715E-13  0.00000000000E+00  0.45017786052E+03  0.63830754556E+03  0.45252228301E+03 0.  0.
      99925    2    3    3    0    0 -0.89411400801E+02  0.65308434093E+02  0.27615547828E+03  0.39707967036E+03  0.26296544691E+03 0.  0.
         25    1    4    4    0    0 -0.62731001701E+02  0.58451146137E+02  0.11031062267E+03  0.18753041522E+03  0.12509000000E+03 0.  0.
         25    1    3    3    0    0  0.89411400801E+02 -0.65308434093E+02  0.17402238224E+03  0.24122787521E+03  0.12509000000E+03 0.  0.
         25    1    4    4    0    0 -0.26680399100E+02  0.68572879558E+01  0.16584485561E+03  0.20954925514E+03  0.12509000000E+03 0.  0.
<mgrwt>
<rscale>  2 0.45252228E+03</rscale>
<asrwt>0</asrwt>
<pdfrwt beam="1">  1       21 0.80035690E-01 0.45252228E+03</pdfrwt>
<pdfrwt beam="2">  1       21 0.13833065E-01 0.45252228E+03</pdfrwt>
<totfact> 0.57496209E+04</totfact>
</mgrwt>
</event>
<event>
 7    0  0.4725730E-002  0.4477388E+03  0.7546771E-02  0.1028399E+00
         21   -1    0    0  502  501  0.00000000000E+00  0.00000000000E+00  0.20462803453E+03  0.20462803453E+03  0.00000000000E+00 0. -1.
         21   -1    0    0  501  502 -0.00000000000E+00 -0.00000000000E+00 -0.24492001672E+03  0.24492001672E+03  0.00000000000E+00 0. -1.
      99926    2    1    2    0    0  0.00000000000E+00  0.17763568394E-14 -0.40291982193E+02  0.44954805126E+03  0.44773877044E+03 0.  0.
      99925    2    3    3    0    0 -0.89605919055E+02  0.12091338131E+02 -0.81188192630E+02  0.28987516904E+03  0.26317421951E+03 0.  0.
         25    1    4    4    0    0 -0.37395453586E+01  0.17963217574E+02 -0.37842647217E+02  0.13197058549E+03  0.12509000000E+03 0.  0.
         25    1    4    4    0    0 -0.85866373696E+02 -0.58718794428E+01 -0.43345545413E+02  0.15790458355E+03  0.12509000000E+03 0.  0.
         25    1    3    3    0    0  0.89605919055E+02 -0.12091338131E+02  0.40896210437E+02  0.15967288222E+03  0.12509000000E+03 0.  0.
<mgrwt>
<rscale>  2 0.44773877E+03</rscale>
<asrwt>0</asrwt>
<pdfrwt beam="1">  1       21 0.30092358E-01 0.44773877E+03</pdfrwt>
<pdfrwt beam="2">  1       21 0.36017649E-01 0.44773877E+03</pdfrwt>
<totfact> 0.73090656E+04</totfact>
</mgrwt>
</event>
<event>
 7    0  0.4725730E-002  0.4562645E+03  0.7546771E-02  0.1025870E+00
         21   -1    0    0  502  501  0.00000000000E+00  0.00000000000E+00  0.57927967743E+02  0.57927967743E+02  0.00000000000E+00 0.  1.
         21   -1    0    0  501  502 -0.00000000000E+00 -0.00000000000E+00 -0.89843174075E+03  0.89843174075E+03  0.00000000000E+00 0.  1.
      99926    2    1    2    0    0  0.17763568394E-14  0.17763568394E-14 -0.84050377300E+03  0.95635970849E+03  0.45626450617E+03 0.  0.
      99925    2    3    3    0    0 -0.11646088145E+02  0.12046025667E+02 -0.76516446353E+03  0.80937583946E+03  0.26330942851E+03 0.  0.
         25    1    4    4    0    0 -0.36879249161E+02  0.99153684570E+01 -0.30543577092E+03  0.33226030730E+03  0.12509000000E+03 0.  0.
         25    1    4    4    0    0  0.25233161016E+02  0.21306572096E+01 -0.45972869261E+03  0.47711553216E+03  0.12509000000E+03 0.  0.
         25    1    3    3    0    0  0.11646088145E+02 -0.12046025667E+02 -0.75339309469E+02  0.14698386903E+03  0.12509000000E+03 0.  0.
<mgrwt>
<rscale>  2 0.45626451E+03</rscale>
<asrwt>0</asrwt>
<pdfrwt beam="1">  1       21 0.85188192E-02 0.45626451E+03</pdfrwt>
<pdfrwt beam="2">  1       21 0.13212231E+00 0.45626451E+03</pdfrwt>
<totfact> 0.40482615E+04</totfact>
</mgrwt>
</event>
<event>
 7    0  0.4725730E-002  0.4613141E+03  0.7546771E-02  0.1024401E+00
         21   -1    0    0  502  501  0.00000000000E+00  0.00000000000E+00  0.77626131494E+02  0.77626131494E+02  0.00000000000E+00 0. -1.
         21   -1    0    0  501  502 -0.00000000000E+00 -0.00000000000E+00 -0.68537081746E+03  0.68537081746E+03  0.00000000000E+00 0. -1.
      99926    2    1    2    0    0  0.00000000000E+00 -0.35527136788E-14 -0.60774468597E+03  0.76299694896E+03  0.46131414545E+03 0.  0.
      99925    2    3    3    0    0  0.85798386870E+02 -0.29654112010E+02 -0.50764520549E+03  0.57885530880E+03  0.26292410372E+03 0.  0.
         25    1    4    4    0    0  0.12300384008E+02 -0.41786908264E+02 -0.23385537642E+03  0.26876251660E+03  0.12509000000E+03 0.  0.
         25    1    3    3    0    0 -0.85798386870E+02  0.29654112010E+02 -0.10009948048E+03  0.18414164016E+03  0.12509000000E+03 0.  0.
         25    1    4    4    0    0  0.73498002863E+02  0.12132796254E+02 -0.27378982907E+03  0.31009279219E+03  0.12509000000E+03 0.  0.
<mgrwt>
<rscale>  2 0.46131415E+03</rscale>
<asrwt>0</asrwt>
<pdfrwt beam="1">  1       21 0.11415608E-01 0.46131415E+03</pdfrwt>
<pdfrwt beam="2">  1       21 0.10078982E+00 0.46131415E+03</pdfrwt>
<totfact> 0.47221660E+04</totfact>
</mgrwt>
</event>
<event>
 7    0  0.4725730E-002  0.4594208E+03  0.7546771E-02  0.1024949E+00
         21   -1    0    0  502  501  0.00000000000E+00  0.00000000000E+00  0.20451277365E+03  0.20451277365E+03  0.00000000000E+00 0.  1.
         21   -1    0    0  501  502 -0.00000000000E+00 -0.00000000000E+00 -0.25801258429E+03  0.25801258429E+03  0.00000000000E+00 0.  1.
      99926    2    1    2    0    0 -0.14210854715E-13 -0.71054273576E-14 -0.53499810646E+02  0.46252535794E+03  0.45942080601E+03 0.  0.
      99925    2    3    3    0    0 -0.10686511800E+03 -0.43031324474E+02 -0.55742355893E+02  0.29245365118E+03  0.26296402704E+03 0.  0.
         25    1    4    4    0    0 -0.23739483822E+02 -0.13874139329E+02 -0.55179869114E+02  0.13945745190E+03  0.12509000000E+03 0.  0.
         25    1    4    4    0    0 -0.83125634180E+02 -0.29157185145E+02 -0.56248677960E+00  0.15299619928E+03  0.12509000000E+03 0.  0.
         25    1    3    3    0    0  0.10686511800E+03  0.43031324474E+02  0.22425452476E+01  0.17007170676E+03  0.12509000000E+03 0.  0.
<mgrwt>
<rscale>  2 0.45942081E+03</rscale>
<asrwt>0</asrwt>
<pdfrwt beam="1">  1       21 0.30075408E-01 0.45942081E+03</pdfrwt>
<pdfrwt beam="2">  1       21 0.37943027E-01 0.45942081E+03</pdfrwt>
<totfact> 0.65651536E+04</totfact>
</mgrwt>
</event>
<event>
 7    0  0.4725730E-002  0.4698209E+03  0.7546771E-02  0.1021971E+00
         21   -1    0    0  502  501  0.00000000000E+00  0.00000000000E+00  0.30081055303E+03  0.30081055303E+03  0.00000000000E+00 0.  1.
         21   -1    0    0  501  502 -0.00000000000E+00 -0.00000000000E+00 -0.18344745631E+03  0.18344745631E+03  0.00000000000E+00 0.  1.
      99926    2    1    2    0    0  0.14210854715E-13  0.00000000000E+00  0.11736309672E+03  0.48425800934E+03  0.46982094796E+03 0.  0.
      99925    2    3    3    0    0  0.11805450415E+03 -0.42661642485E+02  0.89611876968E+02  0.30488543622E+03  0.26299802097E+03 0.  0.
         25    1    4    4    0    0  0.16338067992E+02 -0.75100998770E+01  0.36711664681E+02  0.13160010824E+03  0.12509000000E+03 0.  0.
         25    1    4    4    0    0  0.10171643616E+03 -0.35151542608E+02  0.52900212288E+02  0.17328532798E+03  0.12509000000E+03 0.  0.
         25    1    3    3    0    0 -0.11805450415E+03  0.42661642485E+02  0.27751219749E+02  0.17937257312E+03  0.12509000000E+03 0.  0.
<mgrwt>
<rscale>  2 0.46982095E+03</rscale>
<asrwt>0</asrwt>
<pdfrwt beam="1">  1       21 0.44236846E-01 0.46982095E+03</pdfrwt>
<pdfrwt beam="2">  1       21 0.26977567E-01 0.46982095E+03</pdfrwt>
<totfact> 0.59125269E+04</totfact>
</mgrwt>
</event>
<event>
 7    0  0.4725730E-002  0.4585864E+03  0.7546771E-02  0.1025192E+00
         21   -1    0    0  502  501  0.00000000000E+00  0.00000000000E+00  0.28914281381E+02  0.28914281381E+02  0.00000000000E+00 0. -1.
         21   -1    0    0  501  502 -0.00000000000E+00 -0.00000000000E+00 -0.18183187686E+04  0.18183187686E+04  0.00000000000E+00 0. -1.
      99926    2    1    2    0    0  0.00000000000E+00  0.00000000000E+00 -0.17894044872E+04  0.18472330499E+04  0.45858643903E+03 0.  0.
      99925    2    3    3    0    0 -0.27459386214E+02  0.11222660983E+03 -0.11812097161E+04  0.12156499458E+04  0.26305810636E+03 0.  0.
         25    1    4    4    0    0 -0.55528196468E+01  0.71808534302E+02 -0.45611449852E+03  0.47840907523E+03  0.12509000000E+03 0.  0.
         25    1    4    4    0    0 -0.21906566567E+02  0.40418075530E+02 -0.72509521763E+03  0.73724087055E+03  0.12509000000E+03 0.  0.
         25    1    3    3    0    0  0.27459386214E+02 -0.11222660983E+03 -0.60819477104E+03  0.63158310416E+03  0.12509000000E+03 0.  0.
<mgrwt>
<rscale>  2 0.45858644E+03</rscale>
<asrwt>0</asrwt>
<pdfrwt beam="1">  1       21 0.42521008E-02 0.45858644E+03</pdfrwt>
<pdfrwt beam="2">  1       21 0.26739978E+00 0.45858644E+03</pdfrwt>
<totfact> 0.15920836E+04</totfact>
</mgrwt>
</event>
<event>
 7    0  0.4725730E-002  0.4558078E+03  0.7546771E-02  0.1026004E+00
         21   -1    0    0  502  501  0.00000000000E+00  0.00000000000E+00  0.37608380223E+02  0.37608380223E+02  0.00000000000E+00 0.  1.
         21   -1    0    0  501  502 -0.00000000000E+00 -0.00000000000E+00 -0.13810801745E+04  0.13810801745E+04  0.00000000000E+00 0.  1.
      99926    2    1    2    0    0  0.00000000000E+00  0.71054273576E-14 -0.13434717943E+04  0.14186885547E+04  0.45580780301E+03 0.  0.
      99925    2    3    3    0    0 -0.93125140363E+02 -0.50893855117E+02 -0.71810080897E+03  0.77216024628E+03  0.26324930737E+03 0.  0.
         25    1    3    3    0    0  0.93125140363E+02  0.50893855117E+02 -0.62537098530E+03  0.64652830844E+03  0.12509000000E+03 0.  0.
         25    1    4    4    0    0 -0.17136693816E+02  0.19963589297E+01 -0.36695637639E+03  0.38807491802E+03  0.12509000000E+03 0.  0.
         25    1    4    4    0    0 -0.75988446547E+02 -0.52890214047E+02 -0.35114443258E+03  0.38408532826E+03  0.12509000000E+03 0.  0.
<mgrwt>
<rscale>  2 0.45580780E+03</rscale>
<asrwt>0</asrwt>
<pdfrwt beam="1">  1       21 0.55306449E-02 0.45580780E+03</pdfrwt>
<pdfrwt beam="2">  1       21 0.20310000E+00 0.45580780E+03</pdfrwt>
<totfact> 0.25676678E+04</totfact>
</mgrwt>
</event>
<event>
 7    0  0.4725730E-002  0.4588007E+03  0.7546771E-02  0.1025130E+00
         21   -1    0    0  502  501  0.00000000000E+00  0.00000000000E+00  0.66862618390E+02  0.66862618390E+02  0.00000000000E+00 0.  1.
         21   -1    0    0  501  502 -0.00000000000E+00 -0.00000000000E+00 -0.78705433967E+03  0.78705433967E+03  0.00000000000E+00 0.  1.
      99926    2    1    2    0    0  0.00000000000E+00  0.14210854715E-13 -0.72019172128E+03  0.85391695806E+03  0.45880067116E+03 0.  0.
      99925    2    3    3    0    0  0.68521074582E+02 -0.92902579369E+02 -0.48384282181E+03  0.56265361108E+03  0.26296232225E+03 0.  0.
         25    1    4    4    0    0  0.29208456317E+02 -0.68933166397E+02 -0.18582974645E+03  0.23618873410E+03  0.12509000000E+03 0.  0.
         25    1    4    4    0    0  0.39312618265E+02 -0.23969412972E+02 -0.29801307536E+03  0.32646487698E+03  0.12509000000E+03 0.  0.
         25    1    3    3    0    0 -0.68521074582E+02  0.92902579369E+02 -0.23634889946E+03  0.29126334698E+03  0.12509000000E+03 0.  0.
<mgrwt>
<rscale>  2 0.45880067E+03</rscale>
<asrwt>0</asrwt>
<pdfrwt beam="1">  1       21 0.98327388E-02 0.45880067E+03</pdfrwt>
<pdfrwt beam="2">  1       21 0.11574328E+00 0.45880067E+03</pdfrwt>
<totfact> 0.43939937E+04</totfact>
</mgrwt>
</event>
<event>
 7    0  0.4725730E-002  0.4649520E+03  0.7546771E-02  0.1023355E+00
         21   -1    0    0  502  501  0.00000000000E+00  0.00000000000E+00  0.65974144281E+02  0.65974144281E+02  0.00000000000E+00 0. -1.
         21   -1    0    0  501  502 -0.00000000000E+00 -0.00000000000E+00 -0.81918593496E+03  0.81918593496E+03  0.00000000000E+00 0. -1.
      99926    2    1    2    0    0  0.00000000000E+00  0.00000000000E+00 -0.75321179068E+03  0.88516007924E+03  0.46495200211E+03 0.  0.
      99925    2    3    3    0    0  0.76847490051E+02  0.72048802409E+02 -0.58651443348E+03  0.65163902312E+03  0.26369996040E+03 0.  0.
         25    1    4    4    0    0  0.55474490644E+02  0.50729673789E+02 -0.39322203380E+03  0.41943056026E+03  0.12509000000E+03 0.  0.
         25    1    4    4    0    0  0.21372999407E+02  0.21319128620E+02 -0.19329239968E+03  0.23220846286E+03  0.12509000000E+03 0.  0.
         25    1    3    3    0    0 -0.76847490051E+02 -0.72048802409E+02 -0.16669735720E+03  0.23352105612E+03  0.12509000000E+03 0.  0.
<mgrwt>
<rscale>  2 0.46495200E+03</rscale>
<asrwt>0</asrwt>
<pdfrwt beam="1">  1       21 0.97020818E-02 0.46495200E+03</pdfrwt>
<pdfrwt beam="2">  1       21 0.12046850E+00 0.46495200E+03</pdfrwt>
<totfact> 0.40621842E+04</totfact>
</mgrwt>
</event>
<event>
 7    0  0.4725730E-002  0.4577941E+03  0.7546771E-02  0.1025423E+00
         21   -1    0    0  502  501  0.00000000000E+00  0.00000000000E+00  0.12650893027E+04  0.12650893027E+04  0.00000000000E+00 0. -1.
         21   -1    0    0  501  502 -0.00000000000E+00 -0.00000000000E+00 -0.41415142706E+02  0.41415142706E+02  0.00000000000E+00 0. -1.
      99926    2    1    2    0    0  0.00000000000E+00  0.00000000000E+00  0.12236741600E+04  0.13065044454E+04  0.45779407601E+03 0.  0.
      99925    2    3    3    0    0  0.20113167007E+02 -0.97447262634E+02  0.93692332622E+03  0.97821485182E+03  0.26301800060E+03 0.  0.
         25    1    4    4    0    0  0.25582116888E+02 -0.32005447516E+02  0.33497158881E+03  0.35990591380E+03  0.12509000000E+03 0.  0.
         25    1    3    3    0    0 -0.20113167007E+02  0.97447262634E+02  0.28675083378E+03  0.32828959358E+03  0.12509000000E+03 0.  0.
         25    1    4    4    0    0 -0.54689498808E+01 -0.65441815117E+02  0.60195173741E+03  0.61830893803E+03  0.12509000000E+03 0.  0.
<mgrwt>
<rscale>  2 0.45779408E+03</rscale>
<asrwt>0</asrwt>
<pdfrwt beam="1">  1       21 0.18604252E+00 0.45779408E+03</pdfrwt>
<pdfrwt beam="2">  1       21 0.60904630E-02 0.45779408E+03</pdfrwt>
<totfact> 0.28306289E+04</totfact>
</mgrwt>
</event>
<event>
 7    0  0.4725730E-002  0.4542192E+03  0.7546771E-02  0.1026471E+00
         21   -1    0    0  502  501  0.00000000000E+00  0.00000000000E+00  0.46458396632E+03  0.46458396632E+03  0.00000000000E+00 0.  1.
         21   -1    0    0  501  502 -0.00000000000E+00 -0.00000000000E+00 -0.11102142943E+03  0.11102142943E+03  0.00000000000E+00 0.  1.
      99926    2    1    2    0    0 -0.71054273576E-14  0.00000000000E+00  0.35356253689E+03  0.57560539575E+03  0.45421922474E+03 0.  0.
      99925    2    3    3    0    0 -0.46493503632E+02 -0.53208537983E+01  0.35218132824E+03  0.44204127930E+03  0.26301872040E+03 0.  0.
         25    1    4    4    0    0 -0.49386608551E+02  0.20970970745E+01  0.13066536399E+03  0.18752167973E+03  0.12509000000E+03 0.  0.
         25    1    3    3    0    0  0.46493503632E+02  0.53208537983E+01  0.13812086516E+01  0.13356411645E+03  0.12509000000E+03 0.  0.
         25    1    4    4    0    0  0.28931049197E+01 -0.74179508729E+01  0.22151596425E+03  0.25451959957E+03  0.12509000000E+03 0.  0.
<mgrwt>
<rscale>  2 0.45421922E+03</rscale>
<asrwt>0</asrwt>
<pdfrwt beam="1">  1       21 0.68321171E-01 0.45421922E+03</pdfrwt>
<pdfrwt beam="2">  1       21 0.16326681E-01 0.45421922E+03</pdfrwt>
<totfact> 0.60578624E+04</totfact>
</mgrwt>
</event>
<event>
 7    0  0.4725730E-002  0.4431937E+03  0.7546771E-02  0.1029771E+00
         21   -1    0    0  502  501  0.00000000000E+00  0.00000000000E+00  0.26467288120E+03  0.26467288120E+03  0.00000000000E+00 0. -1.
         21   -1    0    0  501  502 -0.00000000000E+00 -0.00000000000E+00 -0.18553150415E+03  0.18553150415E+03  0.00000000000E+00 0. -1.
      99926    2    1    2    0    0  0.00000000000E+00 -0.71054273576E-14  0.79141377041E+02  0.45020438535E+03  0.44319367214E+03 0.  0.
      99925    2    3    3    0    0 -0.81975620661E+01 -0.41147068161E+02  0.14436556692E+03  0.30302427702E+03  0.26310076835E+03 0.  0.
         25    1    3    3    0    0  0.81975620661E+01  0.41147068161E+02 -0.65224189884E+02  0.14718010833E+03  0.12509000000E+03 0.  0.
         25    1    4    4    0    0 -0.24603164145E+02 -0.36325661802E+02  0.37897207211E+02  0.13787159173E+03  0.12509000000E+03 0.  0.
         25    1    4    4    0    0  0.16405602079E+02 -0.48214063589E+01  0.10646835971E+03  0.16515268529E+03  0.12509000000E+03 0.  0.
<mgrwt>
<rscale>  2 0.44319367E+03</rscale>
<asrwt>0</asrwt>
<pdfrwt beam="1">  1       21 0.38922483E-01 0.44319367E+03</pdfrwt>
<pdfrwt beam="2">  1       21 0.27284044E-01 0.44319367E+03</pdfrwt>
<totfact> 0.75788017E+04</totfact>
</mgrwt>
</event>
<event>
 6    0  0.4725730E-002  0.4534052E+03  0.7546771E-02  0.1026711E+00
         21   -1    0    0  502  501  0.00000000000E+00  0.00000000000E+00  0.65572217824E+03  0.65572217824E+03  0.00000000000E+00 0.  1.
         21   -1    0    0  501  502 -0.00000000000E+00 -0.00000000000E+00 -0.78377820559E+02  0.78377820559E+02  0.00000000000E+00 0.  1.
      99926    2    1    2    0    0 -0.71054273576E-14 -0.14210854715E-13  0.57734435768E+03  0.73409999880E+03  0.45340522813E+03 0.  0.
         25    1    3    3    0    0 -0.20820950101E+02 -0.71196130574E+02  0.14354212864E+03  0.20433857141E+03  0.12509000000E+03 0.  0.
         25    1    3    3    0    0  0.58260263539E+02  0.97813603884E+02  0.21477715742E+03  0.27338342097E+03  0.12509000000E+03 0.  0.
         25    1    3    3    0    0 -0.37439313438E+02 -0.26617473309E+02  0.21902507163E+03  0.25637800642E+03  0.12509000000E+03 0.  0.
<mgrwt>
<rscale>  2 0.45340523E+03</rscale>
<asrwt>0</asrwt>
<pdfrwt beam="1">  1       21 0.96429729E-01 0.45340523E+03</pdfrwt>
<pdfrwt beam="2">  1       21 0.11526150E-01 0.45340523E+03</pdfrwt>
<totfact> 0.51736050E+04</totfact>
</mgrwt>
</event>
<event>
 7    0  0.4725730E-002  0.4516061E+03  0.7546771E-02  0.1027244E+00
         21   -1    0    0  502  501  0.00000000000E+00  0.00000000000E+00  0.38416731971E+02  0.38416731971E+02  0.00000000000E+00 0.  1.
         21   -1    0    0  501  502 -0.00000000000E+00 -0.00000000000E+00 -0.13272087387E+04  0.13272087387E+04  0.00000000000E+00 0.  1.
      99926    2    1    2    0    0 -0.88817841970E-15  0.00000000000E+00 -0.12887920068E+04  0.13656254707E+04  0.45160612213E+03 0.  0.
      99925    2    3    3    0    0  0.54705124760E+01 -0.64989769532E+02 -0.10811009956E+04  0.11145544432E+04  0.26305635792E+03 0.  0.
         25    1    4    4    0    0 -0.34839494970E+01  0.15234464155E+01 -0.41329663181E+03  0.43182875397E+03  0.12509000000E+03 0.  0.
         25    1    4    4    0    0  0.89544619730E+01 -0.66513215948E+02 -0.66780436380E+03  0.68272568920E+03  0.12509000000E+03 0.  0.
         25    1    3    3    0    0 -0.54705124760E+01  0.64989769532E+02 -0.20769101114E+03  0.25107102752E+03  0.12509000000E+03 0.  0.
<mgrwt>
<rscale>  2 0.45160612E+03</rscale>
<asrwt>0</asrwt>
<pdfrwt beam="1">  1       21 0.56495185E-02 0.45160612E+03</pdfrwt>
<pdfrwt beam="2">  1       21 0.19517779E+00 0.45160612E+03</pdfrwt>
<totfact> 0.27993806E+04</totfact>
</mgrwt>
</event>
<event>
 7    0  0.4725730E-002  0.4518153E+03  0.7546771E-02  0.1027182E+00
         21   -1    0    0  502  501  0.00000000000E+00  0.00000000000E+00  0.88845536652E+02  0.88845536652E+02  0.00000000000E+00 0.  1.
         21   -1    0    0  501  502 -0.00000000000E+00 -0.00000000000E+00 -0.57441560203E+03  0.57441560203E+03  0.00000000000E+00 0.  1.
      99926    2    1    2    0    0  0.00000000000E+00  0.00000000000E+00 -0.48557006538E+03  0.66326113869E+03  0.45181528272E+03 0.  0.
      99925    2    3    3    0    0 -0.76822937462E+02 -0.68656839443E+02 -0.24970776451E+03  0.37708975927E+03  0.26311061090E+03 0.  0.
         25    1    4    4    0    0 -0.41054294847E+01 -0.49494085704E+02 -0.14236645443E+03  0.19591384463E+03  0.12509000000E+03 0.  0.
         25    1    3    3    0    0  0.76822937462E+02  0.68656839443E+02 -0.23586230087E+03  0.28617137941E+03  0.12509000000E+03 0.  0.
         25    1    4    4    0    0 -0.72717507977E+02 -0.19162753738E+02 -0.10734131008E+03  0.18117591465E+03  0.12509000000E+03 0.  0.
<mgrwt>
<rscale>  2 0.45181528E+03</rscale>
<asrwt>0</asrwt>
<pdfrwt beam="1">  1       21 0.13065520E-01 0.45181528E+03</pdfrwt>
<pdfrwt beam="2">  1       21 0.84472880E-01 0.45181528E+03</pdfrwt>
<totfact> 0.56344672E+04</totfact>
</mgrwt>
</event>
<event>
 7    0  0.4725730E-002  0.4541312E+03  0.7546771E-02  0.1026497E+00
         21   -1    0    0  502  501  0.00000000000E+00  0.00000000000E+00  0.16069006029E+03  0.16069006029E+03  0.00000000000E+00 0.  1.
         21   -1    0    0  501  502 -0.00000000000E+00 -0.00000000000E+00 -0.32085853604E+03  0.32085853604E+03  0.00000000000E+00 0.  1.
      99926    2    1    2    0    0  0.00000000000E+00  0.14210854715E-13 -0.16016847576E+03  0.48154859633E+03  0.45413115947E+03 0.  0.
      99925    2    3    3    0    0 -0.23194324558E+02  0.10912710648E+03 -0.11498545051E+03  0.30795217951E+03  0.26299465580E+03 0.  0.
         25    1    4    4    0    0 -0.40789443522E+02  0.83865913367E+02 -0.51282713886E+02  0.16423974845E+03  0.12509000000E+03 0.  0.
         25    1    4    4    0    0  0.17595118964E+02  0.25261193117E+02 -0.63702736622E+02  0.14371243106E+03  0.12509000000E+03 0.  0.
         25    1    3    3    0    0  0.23194324558E+02 -0.10912710648E+03 -0.45183025250E+02  0.17359641682E+03  0.12509000000E+03 0.  0.
<mgrwt>
<rscale>  2 0.45413116E+03</rscale>
<asrwt>0</asrwt>
<pdfrwt beam="1">  1       21 0.23630891E-01 0.45413116E+03</pdfrwt>
<pdfrwt beam="2">  1       21 0.47185079E-01 0.45413116E+03</pdfrwt>
<totfact> 0.67048774E+04</totfact>
</mgrwt>
</event>
<event>
 7    0  0.4725730E-002  0.4375796E+03  0.7546771E-02  0.1031492E+00
         21   -1    0    0  502  501  0.00000000000E+00  0.00000000000E+00  0.23279961656E+03  0.23279961656E+03  0.00000000000E+00 0.  1.
         21   -1    0    0  501  502 -0.00000000000E+00 -0.00000000000E+00 -0.20562305468E+03  0.20562305468E+03  0.00000000000E+00 0.  1.
      99926    2    1    2    0    0 -0.71054273576E-14  0.00000000000E+00  0.27176561877E+02  0.43842267125E+03  0.43757956208E+03 0.  0.
      99925    2    3    3    0    0  0.37572676688E+02 -0.59622191685E+02 -0.47997319763E+02  0.27635746105E+03  0.26287485958E+03 0.  0.
         25    1    3    3    0    0 -0.37572676688E+02  0.59622191685E+02  0.75173881640E+02  0.16206521020E+03  0.12509000000E+03 0.  0.
         25    1    4    4    0    0  0.37453728704E+02 -0.52129487641E+02  0.40699818918E+01  0.14065680975E+03  0.12509000000E+03 0.  0.
         25    1    4    4    0    0  0.11894798426E+00 -0.74927040434E+01 -0.52067301655E+02  0.13570065130E+03  0.12509000000E+03 0.  0.
<mgrwt>
<rscale>  2 0.43757956E+03</rscale>
<asrwt>0</asrwt>
<pdfrwt beam="1">  1       21 0.34235238E-01 0.43757956E+03</pdfrwt>
<pdfrwt beam="2">  1       21 0.30238684E-01 0.43757956E+03</pdfrwt>
<totfact> 0.80382827E+04</totfact>
</mgrwt>
</event>
<event>
 7    0  0.4725730E-002  0.4985392E+03  0.7546771E-02  0.1014161E+00
         21   -1    0    0  502  501  0.00000000000E+00  0.00000000000E+00  0.26917185536E+03  0.26917185536E+03  0.00000000000E+00 0. -1.
         21   -1    0    0  501  502 -0.00000000000E+00 -0.00000000000E+00 -0.23083891341E+03  0.23083891341E+03  0.00000000000E+00 0. -1.
      99926    2    1    2    0    0  0.00000000000E+00  0.00000000000E+00  0.38332941946E+02  0.50001076878E+03  0.49853922058E+03 0.  0.
      99925    2    3    3    0    0  0.77683927734E+02 -0.11906574161E+03 -0.25652525823E+02  0.30012807408E+03  0.26307292776E+03 0.  0.
         25    1    3    3    0    0 -0.77683927734E+02  0.11906574161E+03  0.63985467769E+02  0.19988269469E+03  0.12509000000E+03 0.  0.
         25    1    4    4    0    0  0.23927100118E+02 -0.75037845256E+02  0.21697812518E+02  0.14940377341E+03  0.12509000000E+03 0.  0.
         25    1    4    4    0    0  0.53756827616E+02 -0.44027896351E+02 -0.47350338341E+02  0.15072430067E+03  0.12509000000E+03 0.  0.
<mgrwt>
<rscale>  2 0.49853922E+03</rscale>
<asrwt>0</asrwt>
<pdfrwt beam="1">  1       21 0.39584097E-01 0.49853922E+03</pdfrwt>
<pdfrwt beam="2">  1       21 0.33946899E-01 0.49853922E+03</pdfrwt>
<totfact> 0.46850708E+04</totfact>
</mgrwt>
</event>
<event>
 7    0  0.4725730E-002  0.4614363E+03  0.7546771E-02  0.1024365E+00
         21   -1    0    0  502  501  0.00000000000E+00  0.00000000000E+00  0.48397617300E+02  0.48397617300E+02  0.00000000000E+00 0. -1.
         21   -1    0    0  501  502 -0.00000000000E+00 -0.00000000000E+00 -0.10998651932E+04  0.10998651932E+04  0.00000000000E+00 0. -1.
      99926    2    1    2    0    0  0.00000000000E+00  0.17763568394E-14 -0.10514675759E+04  0.11482628105E+04  0.46143625649E+03 0.  0.
      99925    2    3    3    0    0 -0.11013612896E+03 -0.87849285376E+01 -0.76889755338E+03  0.82008531645E+03  0.26292458386E+03 0.  0.
         25    1    3    3    0    0  0.11013612896E+03  0.87849285376E+01 -0.28257002251E+03  0.32817749403E+03  0.12509000000E+03 0.  0.
         25    1    4    4    0    0 -0.20667302009E+02 -0.27230592101E+02 -0.32353545013E+03  0.34855607599E+03  0.12509000000E+03 0.  0.
         25    1    4    4    0    0 -0.89468826947E+02  0.18445663563E+02 -0.44536210325E+03  0.47152924046E+03  0.12509000000E+03 0.  0.
<mgrwt>
<rscale>  2 0.46143626E+03</rscale>
<asrwt>0</asrwt>
<pdfrwt beam="1">  1       21 0.71172964E-02 0.46143626E+03</pdfrwt>
<pdfrwt beam="2">  1       21 0.16174489E+00 0.46143626E+03</pdfrwt>
<totfact> 0.32194849E+04</totfact>
</mgrwt>
</event>
<event>
 7    0  0.4725730E-002  0.4502239E+03  0.7546771E-02  0.1027655E+00
         21   -1    0    0  502  501  0.00000000000E+00  0.00000000000E+00  0.12800611509E+03  0.12800611509E+03  0.00000000000E+00 0.  1.
         21   -1    0    0  501  502 -0.00000000000E+00 -0.00000000000E+00 -0.39588258019E+03  0.39588258019E+03  0.00000000000E+00 0.  1.
      99926    2    1    2    0    0  0.00000000000E+00  0.00000000000E+00 -0.26787646510E+03  0.52388869528E+03  0.45022390483E+03 0.  0.
      99925    2    3    3    0    0  0.10242770278E+03  0.29825406350E+02 -0.19256304647E+03  0.34305560017E+03  0.26310763725E+03 0.  0.
         25    1    4    4    0    0  0.88465459713E+02 -0.50819525069E+01 -0.10398250466E+03  0.18523453560E+03  0.12509000000E+03 0.  0.
         25    1    3    3    0    0 -0.10242770278E+03 -0.29825406350E+02 -0.75313418626E+02  0.18083309511E+03  0.12509000000E+03 0.  0.
         25    1    4    4    0    0  0.13962243067E+02  0.34907358857E+02 -0.88580541818E+02  0.15782106457E+03  0.12509000000E+03 0.  0.
<mgrwt>
<rscale>  2 0.45022390E+03</rscale>
<asrwt>0</asrwt>
<pdfrwt beam="1">  1       21 0.18824429E-01 0.45022390E+03</pdfrwt>
<pdfrwt beam="2">  1       21 0.58218026E-01 0.45022390E+03</pdfrwt>
<totfact> 0.66088984E+04</totfact>
</mgrwt>
</event>
<event>
 7    0  0.4725730E-002  0.4582538E+03  0.7546771E-02  0.1025289E+00
         21   -1    0    0  502  501  0.00000000000E+00  0.00000000000E+00  0.41560144016E+02  0.41560144016E+02  0.00000000000E+00 0. -1.
         21   -1    0    0  501  502 -0.00000000000E+00 -0.00000000000E+00 -0.12632084904E+04  0.12632084904E+04  0.00000000000E+00 0. -1.
      99926    2    1    2    0    0  0.00000000000E+00  0.00000000000E+00 -0.12216483464E+04  0.13047686344E+04  0.45825375845E+03 0.  0.
      99925    2    3    3    0    0  0.32218860527E+01 -0.73273392142E+02 -0.10230275852E+04  0.10588477418E+04  0.26304701046E+03 0.  0.
         25    1    4    4    0    0  0.28082880917E+02 -0.64788648481E+02 -0.59842859374E+03  0.61542709323E+03  0.12509000000E+03 0.  0.
         25    1    3    3    0    0 -0.32218860527E+01  0.73273392142E+02 -0.19862076117E+03  0.24592089259E+03  0.12509000000E+03 0.  0.
         25    1    4    4    0    0 -0.24860994864E+02 -0.84847436613E+01 -0.42459899148E+03  0.44342064861E+03  0.12509000000E+03 0.  0.
<mgrwt>
<rscale>  2 0.45825376E+03</rscale>
<asrwt>0</asrwt>
<pdfrwt beam="1">  1       21 0.61117873E-02 0.45825376E+03</pdfrwt>
<pdfrwt beam="2">  1       21 0.18576591E+00 0.45825376E+03</pdfrwt>
<totfact> 0.28254762E+04</totfact>
</mgrwt>
</event>
<event>
 7    0  0.4725730E-002  0.4571962E+03  0.7546771E-02  0.1025598E+00
         21   -1    0    0  502  501  0.00000000000E+00  0.00000000000E+00  0.23932074354E+03  0.23932074354E+03  0.00000000000E+00 0.  1.
         21   -1    0    0  501  502 -0.00000000000E+00 -0.00000000000E+00 -0.21835588883E+03  0.21835588883E+03  0.00000000000E+00 0.  1.
      99926    2    1    2    0    0 -0.27755575616E-14  0.00000000000E+00  0.20964854706E+02  0.45767663237E+03  0.45719621027E+03 0.  0.
      99925    2    3    3    0    0 -0.87614984197E+00 -0.33600798046E+02  0.12354979472E+03  0.29244661305E+03  0.26292715425E+03 0.  0.
         25    1    4    4    0    0 -0.40749449668E+02 -0.18979199887E+02  0.64571367677E+02  0.14777583463E+03  0.12509000000E+03 0.  0.
         25    1    4    4    0    0  0.39873299826E+02 -0.14621598159E+02  0.58978427043E+02  0.14467077842E+03  0.12509000000E+03 0.  0.
         25    1    3    3    0    0  0.87614984197E+00  0.33600798046E+02 -0.10258494001E+03  0.16523001932E+03  0.12509000000E+03 0.  0.
<mgrwt>
<rscale>  2 0.45719621E+03</rscale>
<asrwt>0</asrwt>
<pdfrwt beam="1">  1       21 0.35194227E-01 0.45719621E+03</pdfrwt>
<pdfrwt beam="2">  1       21 0.32111160E-01 0.45719621E+03</pdfrwt>
<totfact> 0.67165473E+04</totfact>
</mgrwt>
</event>
<event>
 7    0  0.4725730E-002  0.4526121E+03  0.7546771E-02  0.1026946E+00
         21   -1    0    0  502  501  0.00000000000E+00  0.00000000000E+00  0.49552025332E+03  0.49552025332E+03  0.00000000000E+00 0.  1.
         21   -1    0    0  501  502 -0.00000000000E+00 -0.00000000000E+00 -0.10335484745E+03  0.10335484745E+03  0.00000000000E+00 0.  1.
      99926    2    1    2    0    0  0.71054273576E-14  0.00000000000E+00  0.39216540587E+03  0.59887510078E+03  0.45261206432E+03 0.  0.
      99925    2    3    3    0    0 -0.59180172760E+02  0.20299654906E+02  0.12624718872E+03  0.29841815686E+03  0.26306021144E+03 0.  0.
         25    1    3    3    0    0  0.59180172760E+02 -0.20299654906E+02  0.26591821715E+03  0.30045694392E+03  0.12509000000E+03 0.  0.
         25    1    4    4    0    0 -0.53634320204E+02  0.43303368260E+02  0.60170607920E+02  0.15498332866E+03  0.12509000000E+03 0.  0.
         25    1    4    4    0    0 -0.55458525563E+01 -0.23003713354E+02  0.66076580799E+02  0.14343482819E+03  0.12509000000E+03 0.  0.
<mgrwt>
<rscale>  2 0.45261206E+03</rscale>
<asrwt>0</asrwt>
<pdfrwt beam="1">  1       21 0.72870625E-01 0.45261206E+03</pdfrwt>
<pdfrwt beam="2">  1       21 0.15199242E-01 0.45261206E+03</pdfrwt>
<totfact> 0.59869208E+04</totfact>
</mgrwt>
</event>
<event>
 7    0  0.4725730E-002  0.4547253E+03  0.7546771E-02  0.1026322E+00
         21   -1    0    0  502  501  0.00000000000E+00  0.00000000000E+00  0.22196203863E+03  0.22196203863E+03  0.00000000000E+00 0.  1.
         21   -1    0    0  501  502 -0.00000000000E+00 -0.00000000000E+00 -0.23289464896E+03  0.23289464896E+03  0.00000000000E+00 0.  1.
      99926    2    1    2    0    0  0.00000000000E+00  0.00000000000E+00 -0.10932610331E+02  0.45485668759E+03  0.45472528440E+03 0.  0.
      99925    2    3    3    0    0 -0.72006609591E+02  0.73679529686E+02 -0.53125705565E+02  0.28740105076E+03  0.26298935048E+03 0.  0.
         25    1    4    4    0    0 -0.44192814193E+02  0.56854373786E+02 -0.63610964741E+02  0.15773169491E+03  0.12509000000E+03 0.  0.
         25    1    4    4    0    0 -0.27813795398E+02  0.16825155900E+02  0.10485259175E+02  0.12966935585E+03  0.12509000000E+03 0.  0.
         25    1    3    3    0    0  0.72006609591E+02 -0.73679529686E+02  0.42193095234E+02  0.16745563683E+03  0.12509000000E+03 0.  0.
<mgrwt>
<rscale>  2 0.45472528E+03</rscale>
<asrwt>0</asrwt>
<pdfrwt beam="1">  1       21 0.32641477E-01 0.45472528E+03</pdfrwt>
<pdfrwt beam="2">  1       21 0.34249213E-01 0.45472528E+03</pdfrwt>
<totfact> 0.68706776E+04</totfact>
</mgrwt>
</event>
<event>
 7    0  0.4725730E-002  0.4414279E+03  0.7546771E-02  0.1030310E+00
         21   -1    0    0  502  501  0.00000000000E+00  0.00000000000E+00  0.21224366175E+02  0.21224366175E+02  0.00000000000E+00 0. -1.
         21   -1    0    0  501  502 -0.00000000000E+00 -0.00000000000E+00 -0.22952225791E+04  0.22952225791E+04  0.00000000000E+00 0. -1.
      99926    2    1    2    0    0  0.00000000000E+00  0.35527136788E-14 -0.22739982129E+04  0.23164469452E+04  0.44142788526E+03 0.  0.
      99925    2    3    3    0    0 -0.89427543342E+01  0.13341877972E+02 -0.93133385674E+03  0.96787249051E+03  0.26293806614E+03 0.  0.
         25    1    4    4    0    0 -0.78330717868E+01  0.40916618172E+02 -0.39374867432E+03  0.41523614159E+03  0.12509000000E+03 0.  0.
         25    1    4    4    0    0 -0.11096825474E+01 -0.27574740200E+02 -0.53758518242E+03  0.55263634892E+03  0.12509000000E+03 0.  0.
         25    1    3    3    0    0  0.89427543342E+01 -0.13341877972E+02 -0.13426643561E+04  0.13485744547E+04  0.12509000000E+03 0.  0.
<mgrwt>
<rscale>  2 0.44142789E+03</rscale>
<asrwt>0</asrwt>
<pdfrwt beam="1">  1       21 0.31212306E-02 0.44142789E+03</pdfrwt>
<pdfrwt beam="2">  1       21 0.33753270E+00 0.44142789E+03</pdfrwt>
<totfact> 0.10234716E+04</totfact>
</mgrwt>
</event>
<event>
 7    0  0.4725730E-002  0.4553615E+03  0.7546771E-02  0.1026135E+00
         21   -1    0    0  502  501  0.00000000000E+00  0.00000000000E+00  0.13017088676E+03  0.13017088676E+03  0.00000000000E+00 0.  1.
         21   -1    0    0  501  502 -0.00000000000E+00 -0.00000000000E+00 -0.39823441291E+03  0.39823441291E+03  0.00000000000E+00 0.  1.
      99926    2    1    2    0    0  0.00000000000E+00  0.71054273576E-14 -0.26806352615E+03  0.52840529968E+03  0.45536151207E+03 0.  0.
      99925    2    3    3    0    0  0.10375597341E+03  0.33062562961E+02 -0.13162670856E+03  0.31364741651E+03  0.26304120664E+03 0.  0.
         25    1    4    4    0    0  0.23517668506E+02  0.20548404046E+02 -0.94795866021E+02  0.16002837859E+03  0.12509000000E+03 0.  0.
         25    1    3    3    0    0 -0.10375597341E+03 -0.33062562961E+02 -0.13643681759E+03  0.21475788317E+03  0.12509000000E+03 0.  0.
         25    1    4    4    0    0  0.80238304909E+02  0.12514158915E+02 -0.36830842538E+02  0.15361903792E+03  0.12509000000E+03 0.  0.
<mgrwt>
<rscale>  2 0.45536151E+03</rscale>
<asrwt>0</asrwt>
<pdfrwt beam="1">  1       21 0.19142778E-01 0.45536151E+03</pdfrwt>
<pdfrwt beam="2">  1       21 0.58563884E-01 0.45536151E+03</pdfrwt>
<totfact> 0.63133517E+04</totfact>
</mgrwt>
</event>
<event>
 7    0  0.4725730E-002  0.4547972E+03  0.7546771E-02  0.1026301E+00
         21   -1    0    0  502  501  0.00000000000E+00  0.00000000000E+00  0.42693372026E+03  0.42693372026E+03  0.00000000000E+00 0. -1.
         21   -1    0    0  501  502 -0.00000000000E+00 -0.00000000000E+00 -0.12111978284E+03  0.12111978284E+03  0.00000000000E+00 0. -1.
      99926    2    1    2    0    0  0.00000000000E+00  0.00000000000E+00  0.30581393741E+03  0.54805350310E+03  0.45479718331E+03 0.  0.
      99925    2    3    3    0    0 -0.20783661979E+02  0.79428878389E+02  0.28605135111E+03  0.39712645038E+03  0.26295082200E+03 0.  0.
         25    1    4    4    0    0 -0.66886002935E+01  0.58421936071E+02  0.20033052891E+03  0.24338793911E+03  0.12509000000E+03 0.  0.
         25    1    3    3    0    0  0.20783661979E+02 -0.79428878389E+02  0.19762586304E+02  0.15092705273E+03  0.12509000000E+03 0.  0.
         25    1    4    4    0    0 -0.14095061686E+02  0.21006942318E+02  0.85720822199E+02  0.15373851127E+03  0.12509000000E+03 0.  0.
<mgrwt>
<rscale>  2 0.45479718E+03</rscale>
<asrwt>0</asrwt>
<pdfrwt beam="1">  1       21 0.62784370E-01 0.45479718E+03</pdfrwt>
<pdfrwt beam="2">  1       21 0.17811733E-01 0.45479718E+03</pdfrwt>
<totfact> 0.62094908E+04</totfact>
</mgrwt>
</event>
<event>
 7    0  0.4725730E-002  0.4384001E+03  0.7546771E-02  0.1031239E+00
         21   -1    0    0  502  501  0.00000000000E+00  0.00000000000E+00  0.46504540075E+02  0.46504540075E+02  0.00000000000E+00 0. -1.
         21   -1    0    0  501  502 -0.00000000000E+00 -0.00000000000E+00 -0.10332035566E+04  0.10332035566E+04  0.00000000000E+00 0. -1.
      99926    2    1    2    0    0  0.00000000000E+00  0.00000000000E+00 -0.98669901657E+03  0.10797080967E+04  0.43840007393E+03 0.  0.
      99925    2    3    3    0    0  0.50174993401E+02 -0.44580639422E+01 -0.42663809287E+03  0.50364112956E+03  0.26286293158E+03 0.  0.
         25    1    4    4    0    0 -0.65304732207E+01  0.23317092618E+02 -0.21042676824E+03  0.24599444461E+03  0.12509000000E+03 0.  0.
         25    1    4    4    0    0  0.56705466621E+02 -0.27775156560E+02 -0.21621132464E+03  0.25764668496E+03  0.12509000000E+03 0.  0.
         25    1    3    3    0    0 -0.50174993401E+02  0.44580639422E+01 -0.56006092370E+03  0.57606696716E+03  0.12509000000E+03 0.  0.
<mgrwt>
<rscale>  2 0.43840007E+03</rscale>
<asrwt>0</asrwt>
<pdfrwt beam="1">  1       21 0.68389032E-02 0.43840007E+03</pdfrwt>
<pdfrwt beam="2">  1       21 0.15194169E+00 0.43840007E+03</pdfrwt>
<totfact> 0.41301619E+04</totfact>
</mgrwt>
</event>
<event>
 7    0  0.4725730E-002  0.4584387E+03  0.7546771E-02  0.1025235E+00
         21   -1    0    0  502  501  0.00000000000E+00  0.00000000000E+00  0.16897903157E+03  0.16897903157E+03  0.00000000000E+00 0.  1.
         21   -1    0    0  501  502 -0.00000000000E+00 -0.00000000000E+00 -0.31093504152E+03  0.31093504152E+03  0.00000000000E+00 0.  1.
      99926    2    1    2    0    0  0.00000000000E+00  0.00000000000E+00 -0.14195600994E+03  0.47991407309E+03  0.45843866415E+03 0.  0.
      99925    2    3    3    0    0  0.10539151667E+03  0.49047478411E+02 -0.84011543146E+02  0.29958632631E+03  0.26302281385E+03 0.  0.
         25    1    4    4    0    0  0.31528985487E+02  0.21623026732E+02 -0.76566301904E+02  0.15156364636E+03  0.12509000000E+03 0.  0.
         25    1    4    4    0    0  0.73862531186E+02  0.27424451679E+02 -0.74452412424E+01  0.14802267995E+03  0.12509000000E+03 0.  0.
         25    1    3    3    0    0 -0.10539151667E+03 -0.49047478411E+02 -0.57944466796E+02  0.18032774678E+03  0.12509000000E+03 0.  0.
<mgrwt>
<rscale>  2 0.45843866E+03</rscale>
<asrwt>0</asrwt>
<pdfrwt beam="1">  1       21 0.24849858E-01 0.45843866E+03</pdfrwt>
<pdfrwt beam="2">  1       21 0.45725741E-01 0.45843866E+03</pdfrwt>
<totfact> 0.64916467E+04</totfact>
</mgrwt>
</event>
<event>
 7    0  0.4725730E-002  0.4539219E+03  0.7546771E-02  0.1026559E+00
         21   -1    0    0  502  501  0.00000000000E+00  0.00000000000E+00  0.76288768576E+02  0.76288768576E+02  0.00000000000E+00 0. -1.
         21   -1    0    0  501  502 -0.00000000000E+00 -0.00000000000E+00 -0.67521430198E+03  0.67521430198E+03  0.00000000000E+00 0. -1.
      99926    2    1    2    0    0  0.00000000000E+00  0.35527136788E-14 -0.59892553341E+03  0.75150307056E+03  0.45392187708E+03 0.  0.
      99925    2    3    3    0    0 -0.72424641104E+02 -0.13490362675E+02 -0.51715341186E+03  0.58488522492E+03  0.26308887548E+03 0.  0.
         25    1    4    4    0    0 -0.56698034322E+02  0.19950310081E+02 -0.21656592962E+03  0.25721779087E+03  0.12509000000E+03 0.  0.
         25    1    4    4    0    0 -0.15726606783E+02 -0.33440672756E+02 -0.30058748224E+03  0.32766743404E+03  0.12509000000E+03 0.  0.
         25    1    3    3    0    0  0.72424641104E+02  0.13490362675E+02 -0.81772121548E+02  0.16661784564E+03  0.12509000000E+03 0.  0.
<mgrwt>
<rscale>  2 0.45392188E+03</rscale>
<asrwt>0</asrwt>
<pdfrwt beam="1">  1       21 0.11218937E-01 0.45392188E+03</pdfrwt>
<pdfrwt beam="2">  1       21 0.99296218E-01 0.45392188E+03</pdfrwt>
<totfact> 0.50621846E+04</totfact>
</mgrwt>
</event>
<event>
 7    0  0.4725730E-002  0.4693387E+03  0.7546771E-02  0.1022107E+00
         21   -1    0    0  502  501  0.00000000000E+00  0.00000000000E+00  0.82634979077E+02  0.82634979077E+02  0.00000000000E+00 0.  1.
         21   -1    0    0  501  502 -0.00000000000E+00 -0.00000000000E+00 -0.66642116219E+03  0.66642116219E+03  0.00000000000E+00 0.  1.
      99926    2    1    2    0    0  0.00000000000E+00 -0.71054273576E-14 -0.58378618311E+03  0.74905614126E+03  0.46933867854E+03 0.  0.
      99925    2    3    3    0    0 -0.11177574203E+03  0.46799844897E+02 -0.41852426840E+03  0.50896646939E+03  0.26305942624E+03 0.  0.
         25    1    4    4    0    0 -0.50533990433E+02  0.40196412828E+02 -0.14581758210E+03  0.20268130437E+03  0.12509000000E+03 0.  0.
         25    1    4    4    0    0 -0.61241751597E+02  0.66034320681E+01 -0.27270668630E+03  0.30628516501E+03  0.12509000000E+03 0.  0.
         25    1    3    3    0    0  0.11177574203E+03 -0.46799844897E+02 -0.16526191471E+03  0.24008967188E+03  0.12509000000E+03 0.  0.
<mgrwt>
<rscale>  2 0.46933868E+03</rscale>
<asrwt>0</asrwt>
<pdfrwt beam="1">  1       21 0.12152203E-01 0.46933868E+03</pdfrwt>
<pdfrwt beam="2">  1       21 0.98003110E-01 0.46933868E+03</pdfrwt>
<totfact> 0.45026004E+04</totfact>
</mgrwt>
</event>
<event>
 7    0  0.4725730E-002  0.4651402E+03  0.7546771E-02  0.1023301E+00
         21   -1    0    0  502  501  0.00000000000E+00  0.00000000000E+00  0.26260447077E+03  0.26260447077E+03  0.00000000000E+00 0. -1.
         21   -1    0    0  501  502 -0.00000000000E+00 -0.00000000000E+00 -0.20597081406E+03  0.20597081406E+03  0.00000000000E+00 0. -1.
      99926    2    1    2    0    0 -0.71054273576E-14  0.00000000000E+00  0.56633656711E+02  0.46857528483E+03  0.46514022239E+03 0.  0.
      99925    2    3    3    0    0  0.62367920998E+02  0.87680585620E+02 -0.20582059852E+02  0.28640114383E+03  0.26462114681E+03 0.  0.
         25    1    4    4    0    0  0.62667697106E+02  0.51852810474E+02 -0.40878089650E+02  0.15470772614E+03  0.12509000000E+03 0.  0.
         25    1    4    4    0    0 -0.29977610787E+00  0.35827775146E+02  0.20296029798E+02  0.13169341769E+03  0.12509000000E+03 0.  0.
         25    1    3    3    0    0 -0.62367920998E+02 -0.87680585620E+02  0.77215716562E+02  0.18217414100E+03  0.12509000000E+03 0.  0.
<mgrwt>
<rscale>  2 0.46514022E+03</rscale>
<asrwt>0</asrwt>
<pdfrwt beam="1">  1       21 0.38618305E-01 0.46514022E+03</pdfrwt>
<pdfrwt beam="2">  1       21 0.30289825E-01 0.46514022E+03</pdfrwt>
<totfact> 0.62362299E+04</totfact>
</mgrwt>
</event>
<event>
 7    0  0.4725730E-002  0.4325984E+03  0.7546771E-02  0.1033042E+00
         21   -1    0    0  502  501  0.00000000000E+00  0.00000000000E+00  0.58163245244E+03  0.58163245244E+03  0.00000000000E+00 0. -1.
         21   -1    0    0  501  502 -0.00000000000E+00 -0.00000000000E+00 -0.80437997544E+02  0.80437997544E+02  0.00000000000E+00 0. -1.
      99926    2    1    2    0    0  0.00000000000E+00  0.00000000000E+00  0.50119445490E+03  0.66207044999E+03  0.43259842709E+03 0.  0.
      99925    2    3    3    0    0 -0.42327521763E+02 -0.35657748370E+02  0.21216419482E+03  0.34230632839E+03  0.26286285926E+03 0.  0.
         25    1    4    4    0    0 -0.11762701322E+02  0.13013181750E+02  0.13336159274E+03  0.18368594546E+03  0.12509000000E+03 0.  0.
         25    1    3    3    0    0  0.42327521763E+02  0.35657748370E+02  0.28903026008E+03  0.31976412159E+03  0.12509000000E+03 0.  0.
         25    1    4    4    0    0 -0.30564820441E+02 -0.48670930119E+02  0.78802602084E+02  0.15862038294E+03  0.12509000000E+03 0.  0.
<mgrwt>
<rscale>  2 0.43259843E+03</rscale>
<asrwt>0</asrwt>
<pdfrwt beam="1">  1       21 0.85534182E-01 0.43259843E+03</pdfrwt>
<pdfrwt beam="2">  1       21 0.11829118E-01 0.43259843E+03</pdfrwt>
<totfact> 0.65894106E+04</totfact>
</mgrwt>
</event>
<event>
 7    0  0.4725730E-002  0.4599301E+03  0.7546771E-02  0.1024801E+00
         21   -1    0    0  502  501  0.00000000000E+00  0.00000000000E+00  0.69038910343E+03  0.69038910343E+03  0.00000000000E+00 0.  1.
         21   -1    0    0  501  502 -0.00000000000E+00 -0.00000000000E+00 -0.76600171507E+02  0.76600171507E+02  0.00000000000E+00 0.  1.
      99926    2    1    2    0    0  0.00000000000E+00  0.00000000000E+00  0.61378893192E+03  0.76698927494E+03  0.45993009786E+03 0.  0.
      99925    2    3    3    0    0 -0.64337229492E+01 -0.11510835618E+03  0.34486067554E+03  0.44877355937E+03  0.26301615083E+03 0.  0.
         25    1    3    3    0    0  0.64337229492E+01  0.11510835618E+03  0.26892825639E+03  0.31821571557E+03  0.12509000000E+03 0.  0.
         25    1    4    4    0    0 -0.79804211230E+01 -0.10122811524E+03  0.18546593669E+03  0.24567445982E+03  0.12509000000E+03 0.  0.
         25    1    4    4    0    0  0.15466981738E+01 -0.13880240947E+02  0.15939473885E+03  0.20309909954E+03  0.12509000000E+03 0.  0.
<mgrwt>
<rscale>  2 0.45993010E+03</rscale>
<asrwt>0</asrwt>
<pdfrwt beam="1">  1       21 0.10152781E+00 0.45993010E+03</pdfrwt>
<pdfrwt beam="2">  1       21 0.11264731E-01 0.45993010E+03</pdfrwt>
<totfact> 0.47536132E+04</totfact>
</mgrwt>
</event>
<event>
 7    0  0.4725730E-002  0.4569926E+03  0.7546771E-02  0.1025657E+00
         21   -1    0    0  502  501  0.00000000000E+00  0.00000000000E+00  0.29924573012E+03  0.29924573012E+03  0.00000000000E+00 0. -1.
         21   -1    0    0  501  502 -0.00000000000E+00 -0.00000000000E+00 -0.17447386116E+03  0.17447386116E+03  0.00000000000E+00 0. -1.
      99926    2    1    2    0    0  0.00000000000E+00  0.00000000000E+00  0.12477186896E+03  0.47371959128E+03  0.45699259499E+03 0.  0.
      99925    2    3    3    0    0  0.48432529343E+02 -0.27656739027E+02  0.18269433933E+03  0.32501476356E+03  0.26295773386E+03 0.  0.
         25    1    4    4    0    0 -0.73888662130E+01  0.12391168656E+02  0.79811717604E+02  0.14908237579E+03  0.12509000000E+03 0.  0.
         25    1    3    3    0    0 -0.48432529343E+02  0.27656739027E+02 -0.57922470374E+02  0.14870482772E+03  0.12509000000E+03 0.  0.
         25    1    4    4    0    0  0.55821395556E+02 -0.40047907684E+02  0.10288262173E+03  0.17593238777E+03  0.12509000000E+03 0.  0.
<mgrwt>
<rscale>  2 0.45699259E+03</rscale>
<asrwt>0</asrwt>
<pdfrwt beam="1">  1       21 0.44006725E-01 0.45699259E+03</pdfrwt>
<pdfrwt beam="2">  1       21 0.25657921E-01 0.45699259E+03</pdfrwt>
<totfact> 0.66108814E+04</totfact>
</mgrwt>
</event>
<event>
 7    0  0.4725730E-002  0.4349737E+03  0.7546771E-02  0.1032300E+00
         21   -1    0    0  502  501  0.00000000000E+00  0.00000000000E+00  0.32980747585E+03  0.32980747585E+03  0.00000000000E+00 0. -1.
         21   -1    0    0  501  502 -0.00000000000E+00 -0.00000000000E+00 -0.14341861260E+03  0.14341861260E+03  0.00000000000E+00 0. -1.
      99926    2    1    2    0    0  0.00000000000E+00  0.17763568394E-14  0.18638886325E+03  0.47322608846E+03  0.43497370317E+03 0.  0.
      99925    2    3    3    0    0  0.47495629914E+02 -0.13166610376E+02  0.20558909117E+03  0.33741242441E+03  0.26296592032E+03 0.  0.
         25    1    4    4    0    0  0.59357586870E+02  0.12373321266E+02  0.98773021227E+02  0.17052870732E+03  0.12509000000E+03 0.  0.
         25    1    4    4    0    0 -0.11861956955E+02 -0.25539931642E+02  0.10681606994E+03  0.16688371709E+03  0.12509000000E+03 0.  0.
         25    1    3    3    0    0 -0.47495629914E+02  0.13166610376E+02 -0.19200227923E+02  0.13581366405E+03  0.12509000000E+03 0.  0.
<mgrwt>
<rscale>  2 0.43497370E+03</rscale>
<asrwt>0</asrwt>
<pdfrwt beam="1">  1       21 0.48501099E-01 0.43497370E+03</pdfrwt>
<pdfrwt beam="2">  1       21 0.21090973E-01 0.43497370E+03</pdfrwt>
<totfact> 0.79032724E+04</totfact>
</mgrwt>
</event>
<event>
 7    0  0.4725730E-002  0.4634468E+03  0.7546771E-02  0.1023786E+00
         21   -1    0    0  502  501  0.00000000000E+00  0.00000000000E+00  0.48133286448E+02  0.48133286448E+02  0.00000000000E+00 0.  1.
         21   -1    0    0  501  502 -0.00000000000E+00 -0.00000000000E+00 -0.11155634652E+04  0.11155634652E+04  0.00000000000E+00 0.  1.
      99926    2    1    2    0    0  0.00000000000E+00  0.00000000000E+00 -0.10674301787E+04  0.11636967516E+04  0.46344680739E+03 0.  0.
      99925    2    3    3    0    0 -0.38456827646E+02 -0.11408055726E+03 -0.63615075396E+03  0.69878519932E+03  0.26290620359E+03 0.  0.
         25    1    4    4    0    0 -0.61571107938E+01 -0.84175361090E+02 -0.40639579800E+03  0.43350715584E+03  0.12509000000E+03 0.  0.
         25    1    3    3    0    0  0.38456827646E+02  0.11408055726E+03 -0.43127942478E+03  0.46491155232E+03  0.12509000000E+03 0.  0.
         25    1    4    4    0    0 -0.32299716852E+02 -0.29905196172E+02 -0.22975495595E+03  0.26527804348E+03  0.12509000000E+03 0.  0.
<mgrwt>
<rscale>  2 0.46344681E+03</rscale>
<asrwt>0</asrwt>
<pdfrwt beam="1">  1       21 0.70784246E-02 0.46344681E+03</pdfrwt>
<pdfrwt beam="2">  1       21 0.16405345E+00 0.46344681E+03</pdfrwt>
<totfact> 0.31222020E+04</totfact>
</mgrwt>
</event>
<event>
 7    0  0.4725730E-002  0.4573279E+03  0.7546771E-02  0.1025559E+00
         21   -1    0    0  502  501  0.00000000000E+00  0.00000000000E+00  0.60126623254E+02  0.60126623254E+02  0.00000000000E+00 0.  1.
         21   -1    0    0  501  502 -0.00000000000E+00 -0.00000000000E+00 -0.86961816607E+03  0.86961816607E+03  0.00000000000E+00 0.  1.
      99926    2    1    2    0    0  0.00000000000E+00  0.14210854715E-13 -0.80949154282E+03  0.92974478933E+03  0.45732790795E+03 0.  0.
      99925    2    3    3    0    0 -0.21148371490E+02 -0.11391656225E+03 -0.49871103849E+03  0.57526451239E+03  0.26228290551E+03 0.  0.
         25    1    4    4    0    0  0.88028672821E+00 -0.24926869709E+02 -0.27396616909E+03  0.30220372870E+03  0.12509000000E+03 0.  0.
         25    1    4    4    0    0 -0.22028658218E+02 -0.88989692540E+02 -0.22474486941E+03  0.27306078368E+03  0.12509000000E+03 0.  0.
         25    1    3    3    0    0  0.21148371490E+02  0.11391656225E+03 -0.31078050432E+03  0.35448027694E+03  0.12509000000E+03 0.  0.
<mgrwt>
<rscale>  2 0.45732791E+03</rscale>
<asrwt>0</asrwt>
<pdfrwt beam="1">  1       21 0.88421509E-02 0.45732791E+03</pdfrwt>
<pdfrwt beam="2">  1       21 0.12788502E+00 0.45732791E+03</pdfrwt>
<totfact> 0.41216498E+04</totfact>
</mgrwt>
</event>
<event>
 7    0  0.4725730E-002  0.4492901E+03  0.7546771E-02  0.1027934E+00
         21   -1    0    0  502  501  0.00000000000E+00  0.00000000000E+00  0.21674737734E+02  0.21674737734E+02  0.00000000000E+00 0. -1.
         21   -1    0    0  501  502 -0.00000000000E+00 -0.00000000000E+00 -0.23283051675E+04  0.23283051675E+04  0.00000000000E+00 0. -1.
      99926    2    1    2    0    0  0.71054273576E-14 -0.35527136788E-14 -0.23066304298E+04  0.23499799052E+04  0.44929012395E+03 0.  0.
      99925    2    3    3    0    0  0.55359615305E+02  0.24868073365E+02 -0.99392711307E+03  0.10299342190E+04  0.26304045547E+03 0.  0.
         25    1    4    4    0    0  0.52577213633E+02  0.33027461029E+02 -0.42509341520E+03  0.44744507632E+03  0.12509000000E+03 0.  0.
         25    1    3    3    0    0 -0.55359615305E+02 -0.24868073365E+02 -0.13127033167E+04  0.13200456863E+04  0.12509000000E+03 0.  0.
         25    1    4    4    0    0  0.27824016729E+01 -0.81593876631E+01 -0.56883369787E+03  0.58248914265E+03  0.12509000000E+03 0.  0.
<mgrwt>
<rscale>  2 0.44929012E+03</rscale>
<asrwt>0</asrwt>
<pdfrwt beam="1">  1       21 0.31874613E-02 0.44929012E+03</pdfrwt>
<pdfrwt beam="2">  1       21 0.34239783E+00 0.44929012E+03</pdfrwt>
<totfact> 0.91923378E+03</totfact>
</mgrwt>
</event>
<event>
 7    0  0.4725730E-002  0.4507365E+03  0.7546771E-02  0.1027503E+00
         21   -1    0    0  502  501  0.00000000000E+00  0.00000000000E+00  0.14652707920E+03  0.14652707920E+03  0.00000000000E+00 0. -1.
         21   -1    0    0  501  502 -0.00000000000E+00 -0.00000000000E+00 -0.34663119850E+03  0.34663119850E+03  0.00000000000E+00 0. -1.
      99926    2    1    2    0    0 -0.14210854715E-13  0.00000000000E+00 -0.20010411931E+03  0.49315827770E+03  0.45073653979E+03 0.  0.
      99925    2    3    3    0    0 -0.79383177148E+02  0.60995597241E+02 -0.78761184019E+02  0.29217626920E+03  0.26294770674E+03 0.  0.
         25    1    4    4    0    0 -0.52128127695E+02  0.60532945278E+02 -0.69294440090E+02  0.16380111931E+03  0.12509000000E+03 0.  0.
         25    1    3    3    0    0  0.79383177148E+02 -0.60995597241E+02 -0.12134293529E+03  0.20098200850E+03  0.12509000000E+03 0.  0.
         25    1    4    4    0    0 -0.27255049453E+02  0.46265196278E+00 -0.94667439287E+01  0.12837514989E+03  0.12509000000E+03 0.  0.
<mgrwt>
<rscale>  2 0.45073654E+03</rscale>
<asrwt>0</asrwt>
<pdfrwt beam="1">  1       21 0.21548100E-01 0.45073654E+03</pdfrwt>
<pdfrwt beam="2">  1       21 0.50975177E-01 0.45073654E+03</pdfrwt>
<totfact> 0.68027460E+04</totfact>
</mgrwt>
</event>
<event>
 7    0  0.4725730E-002  0.4629819E+03  0.7546771E-02  0.1023920E+00
         21   -1    0    0  502  501  0.00000000000E+00  0.00000000000E+00  0.42606891563E+02  0.42606891563E+02  0.00000000000E+00 0. -1.
         21   -1    0    0  501  502 -0.00000000000E+00 -0.00000000000E+00 -0.12577321709E+04  0.12577321709E+04  0.00000000000E+00 0. -1.
      99926    2    1    2    0    0  0.00000000000E+00  0.00000000000E+00 -0.12151252793E+04  0.13003390624E+04  0.46298189260E+03 0.  0.
      99925    2    3    3    0    0  0.22846930102E+02 -0.11675643409E+03 -0.70543804499E+03  0.76221023767E+03  0.26299726989E+03 0.  0.
         25    1    4    4    0    0  0.17429220875E+02 -0.64194903246E+02 -0.25458815236E+03  0.29135442122E+03  0.12509000000E+03 0.  0.
         25    1    3    3    0    0 -0.22846930102E+02  0.11675643409E+03 -0.50968723431E+03  0.53812882475E+03  0.12509000000E+03 0.  0.
         25    1    4    4    0    0  0.54177092267E+01 -0.52561530841E+02 -0.45084989263E+03  0.47085581645E+03  0.12509000000E+03 0.  0.
<mgrwt>
<rscale>  2 0.46298189E+03</rscale>
<asrwt>0</asrwt>
<pdfrwt beam="1">  1       21 0.62657194E-02 0.46298189E+03</pdfrwt>
<pdfrwt beam="2">  1       21 0.18496061E+00 0.46298189E+03</pdfrwt>
<totfact> 0.27365682E+04</totfact>
</mgrwt>
</event>
<event>
 6    0  0.4725730E-002  0.4528852E+03  0.7546771E-02  0.1026865E+00
         21   -1    0    0  502  501  0.00000000000E+00  0.00000000000E+00  0.12591554633E+03  0.12591554633E+03  0.00000000000E+00 0. -1.
         21   -1    0    0  501  502 -0.00000000000E+00 -0.00000000000E+00 -0.40722736528E+03  0.40722736528E+03  0.00000000000E+00 0. -1.
      99926    2    1    2    0    0 -0.71054273576E-14  0.00000000000E+00 -0.28131181895E+03  0.53314291161E+03  0.45288522246E+03 0.  0.
         25    1    3    3    0    0 -0.55863963373E+02  0.71212799008E+02 -0.17598037819E+03  0.23411246604E+03  0.12509000000E+03 0.  0.
         25    1    3    3    0    0  0.72126227053E+01 -0.59642683239E+02 -0.21669958683E+02  0.14045058490E+03  0.12509000000E+03 0.  0.
         25    1    3    3    0    0  0.48651340667E+02 -0.11570115769E+02 -0.83661482073E+02  0.15857986067E+03  0.12509000000E+03 0.  0.
<mgrwt>
<rscale>  2 0.45288522E+03</rscale>
<asrwt>0</asrwt>
<pdfrwt beam="1">  1       21 0.18516992E-01 0.45288522E+03</pdfrwt>
<pdfrwt beam="2">  1       21 0.59886376E-01 0.45288522E+03</pdfrwt>
<totfact> 0.64059961E+04</totfact>
</mgrwt>
</event>
<event>
 7    0  0.4725730E-002  0.4611863E+03  0.7546771E-02  0.1024438E+00
         21   -1    0    0  502  501  0.00000000000E+00  0.00000000000E+00  0.65586268557E+02  0.65586268557E+02  0.00000000000E+00 0. -1.
         21   -1    0    0  501  502 -0.00000000000E+00 -0.00000000000E+00 -0.81073677744E+03  0.81073677744E+03  0.00000000000E+00 0. -1.
      99926    2    1    2    0    0 -0.35527136788E-14 -0.14210854715E-13 -0.74515050889E+03  0.87632304600E+03  0.46118629648E+03 0.  0.
      99925    2    3    3    0    0 -0.28161894501E+02 -0.97498655185E+02 -0.58410224599E+03  0.64854435703E+03  0.26293586520E+03 0.  0.
         25    1    3    3    0    0  0.28161894501E+02  0.97498655185E+02 -0.16104826290E+03  0.22777868896E+03  0.12509000000E+03 0.  0.
         25    1    4    4    0    0 -0.44343210208E+02 -0.26673779449E+02 -0.24578497138E+03  0.28059859419E+03  0.12509000000E+03 0.  0.
         25    1    4    4    0    0  0.16181315706E+02 -0.70824875735E+02 -0.33831727461E+03  0.36794576285E+03  0.12509000000E+03 0.  0.
<mgrwt>
<rscale>  2 0.46118630E+03</rscale>
<asrwt>0</asrwt>
<pdfrwt beam="1">  1       21 0.96450398E-02 0.46118630E+03</pdfrwt>
<pdfrwt beam="2">  1       21 0.11922599E+00 0.46118630E+03</pdfrwt>
<totfact> 0.42191474E+04</totfact>
</mgrwt>
</event>
<event>
 7    0  0.4725730E-002  0.4501009E+03  0.7546771E-02  0.1027692E+00
         21   -1    0    0  502  501  0.00000000000E+00  0.00000000000E+00  0.21991475109E+02  0.21991475109E+02  0.00000000000E+00 0. -1.
         21   -1    0    0  501  502 -0.00000000000E+00 -0.00000000000E+00 -0.23030604770E+04  0.23030604770E+04  0.00000000000E+00 0. -1.
      99926    2    1    2    0    0  0.14210854715E-13  0.35527136788E-14 -0.22810690019E+04  0.23250519521E+04  0.45010086493E+03 0.  0.
      99925    2    3    3    0    0 -0.74251771507E+02 -0.29377598718E+02 -0.18212876815E+04  0.18419135252E+04  0.26302138056E+03 0.  0.
         25    1    3    3    0    0  0.74251771507E+02  0.29377598718E+02 -0.45978132036E+03  0.48313842688E+03  0.12509000000E+03 0.  0.
         25    1    4    4    0    0 -0.61357258865E+02 -0.46486212380E+02 -0.10581064805E+04  0.10682520832E+04  0.12509000000E+03 0.  0.
         25    1    4    4    0    0 -0.12894512642E+02  0.17108613662E+02 -0.76318120102E+03  0.77366144198E+03  0.12509000000E+03 0.  0.
<mgrwt>
<rscale>  2 0.45010086E+03</rscale>
<asrwt>0</asrwt>
<pdfrwt beam="1">  1       21 0.32340421E-02 0.45010086E+03</pdfrwt>
<pdfrwt beam="2">  1       21 0.33868519E+00 0.45010086E+03</pdfrwt>
<totfact> 0.94463475E+03</totfact>
</mgrwt>
</event>
<event>
 7    0  0.4725730E-002  0.4536555E+03  0.7546771E-02  0.1026638E+00
         21   -1    0    0  502  501  0.00000000000E+00  0.00000000000E+00  0.40230428629E+03  0.40230428629E+03  0.00000000000E+00 0. -1.
         21   -1    0    0  501  502 -0.00000000000E+00 -0.00000000000E+00 -0.12789032057E+03  0.12789032057E+03  0.00000000000E+00 0. -1.
      99926    2    1    2    0    0  0.14210854715E-13  0.71054273576E-14  0.27441396572E+03  0.53019460685E+03  0.45365548223E+03 0.  0.
      99925    2    3    3    0    0 -0.81199931885E+02 -0.38014904086E+02  0.94821302215E+02  0.29367907934E+03  0.26309268408E+03 0.  0.
         25    1    4    4    0    0 -0.21533201749E+02 -0.44674165530E+02  0.73413834510E+02  0.15328587359E+03  0.12509000000E+03 0.  0.
         25    1    3    3    0    0  0.81199931885E+02  0.38014904086E+02  0.17959266350E+03  0.23651552751E+03  0.12509000000E+03 0.  0.
         25    1    4    4    0    0 -0.59666730136E+02  0.66592614442E+01  0.21407467704E+02  0.14039320575E+03  0.12509000000E+03 0.  0.
<mgrwt>
<rscale>  2 0.45365548E+03</rscale>
<asrwt>0</asrwt>
<pdfrwt beam="1">  1       21 0.59162395E-01 0.45365548E+03</pdfrwt>
<pdfrwt beam="2">  1       21 0.18807400E-01 0.45365548E+03</pdfrwt>
<totfact> 0.63871267E+04</totfact>
</mgrwt>
</event>
<event>
 7    0  0.4725730E-002  0.4503283E+03  0.7546771E-02  0.1027624E+00
         21   -1    0    0  502  501  0.00000000000E+00  0.00000000000E+00  0.34687483556E+03  0.34687483556E+03  0.00000000000E+00 0.  1.
         21   -1    0    0  501  502 -0.00000000000E+00 -0.00000000000E+00 -0.14615901638E+03  0.14615901638E+03  0.00000000000E+00 0.  1.
      99926    2    1    2    0    0 -0.71054273576E-14  0.71054273576E-14  0.20071581919E+03  0.49303385194E+03  0.45032825704E+03 0.  0.
      99925    2    3    3    0    0 -0.43810578578E+02  0.35622206024E+02  0.22911940732E+03  0.35288186203E+03  0.26237682325E+03 0.  0.
         25    1    4    4    0    0 -0.25530489835E+02  0.27760407917E+02  0.16633608472E+03  0.21151275929E+03  0.12509000000E+03 0.  0.
         25    1    4    4    0    0 -0.18280088744E+02  0.78617981076E+01  0.62783322599E+02  0.14136910274E+03  0.12509000000E+03 0.  0.
         25    1    3    3    0    0  0.43810578578E+02 -0.35622206024E+02 -0.28403588134E+02  0.14015198991E+03  0.12509000000E+03 0.  0.
<mgrwt>
<rscale>  2 0.45032826E+03</rscale>
<asrwt>0</asrwt>
<pdfrwt beam="1">  1       21 0.51011005E-01 0.45032826E+03</pdfrwt>
<pdfrwt beam="2">  1       21 0.21493973E-01 0.45032826E+03</pdfrwt>
<totfact> 0.68259473E+04</totfact>
</mgrwt>
</event>
<event>
 7    0  0.4725730E-002  0.4090560E+03  0.7546771E-02  0.1040688E+00
         21   -1    0    0  502  501  0.00000000000E+00  0.00000000000E+00  0.17733235074E+03  0.17733235074E+03  0.00000000000E+00 0. -1.
         21   -1    0    0  501  502 -0.00000000000E+00 -0.00000000000E+00 -0.23589435324E+03  0.23589435324E+03  0.00000000000E+00 0. -1.
      99926    2    1    2    0    0  0.71054273576E-14  0.22204460493E-14 -0.58562002496E+02  0.41322670398E+03  0.40905598730E+03 0.  0.
      99925    2    3    3    0    0  0.34076750791E+02  0.22781976960E+01  0.12237950718E+02  0.26548856874E+03  0.26299809422E+03 0.  0.
         25    1    3    3    0    0 -0.34076750791E+02 -0.22781976960E+01 -0.70799953214E+02  0.14773813524E+03  0.12509000000E+03 0.  0.
         25    1    4    4    0    0  0.18642182412E+02  0.33829985384E+02 -0.17831107854E+02  0.13212666417E+03  0.12509000000E+03 0.  0.
         25    1    4    4    0    0  0.15434568379E+02 -0.31551787688E+02  0.30069058572E+02  0.13336190457E+03  0.12509000000E+03 0.  0.
<mgrwt>
<rscale>  2 0.40905599E+03</rscale>
<asrwt>0</asrwt>
<pdfrwt beam="1">  1       21 0.26078287E-01 0.40905599E+03</pdfrwt>
<pdfrwt beam="2">  1       21 0.34690346E-01 0.40905599E+03</pdfrwt>
<totfact> 0.10535287E+05</totfact>
</mgrwt>
</event>
<event>
 7    0  0.4725730E-002  0.4479436E+03  0.7546771E-02  0.1028337E+00
         21   -1    0    0  502  501  0.00000000000E+00  0.00000000000E+00  0.54316437109E+02  0.54316437109E+02  0.00000000000E+00 0.  1.
         21   -1    0    0  501  502 -0.00000000000E+00 -0.00000000000E+00 -0.92353929222E+03  0.92353929222E+03  0.00000000000E+00 0.  1.
      99926    2    1    2    0    0  0.00000000000E+00 -0.71054273576E-14 -0.86922285511E+03  0.97785572933E+03  0.44794358521E+03 0.  0.
      99925    2    3    3    0    0  0.71555491704E+02 -0.50444225956E+02 -0.42070152242E+03  0.50405861842E+03  0.26347772489E+03 0.  0.
         25    1    3    3    0    0 -0.71555491704E+02  0.50444225956E+02 -0.44852133269E+03  0.47379711091E+03  0.12509000000E+03 0.  0.
         25    1    4    4    0    0  0.65885181941E+02  0.24702875737E+01 -0.22621316300E+03  0.26677118048E+03  0.12509000000E+03 0.  0.
         25    1    4    4    0    0  0.56703097631E+01 -0.52914513529E+02 -0.19448835942E+03  0.23728743794E+03  0.12509000000E+03 0.  0.
<mgrwt>
<rscale>  2 0.44794359E+03</rscale>
<asrwt>0</asrwt>
<pdfrwt beam="1">  1       21 0.79877119E-02 0.44794359E+03</pdfrwt>
<pdfrwt beam="2">  1       21 0.13581459E+00 0.44794359E+03</pdfrwt>
<totfact> 0.42319455E+04</totfact>
</mgrwt>
</event>
<event>
 7    0  0.4725730E-002  0.4410960E+03  0.7546771E-02  0.1030411E+00
         21   -1    0    0  502  501  0.00000000000E+00  0.00000000000E+00  0.17695665469E+03  0.17695665469E+03  0.00000000000E+00 0. -1.
         21   -1    0    0  501  502 -0.00000000000E+00 -0.00000000000E+00 -0.27487764320E+03  0.27487764320E+03  0.00000000000E+00 0. -1.
      99926    2    1    2    0    0 -0.71054273576E-14  0.00000000000E+00 -0.97920988510E+02  0.45183429789E+03  0.44109603576E+03 0.  0.
      99925    2    3    3    0    0  0.47060450042E+02 -0.72623211223E+02 -0.11303853649E+03  0.29897859756E+03  0.26291001180E+03 0.  0.
         25    1    3    3    0    0 -0.47060450042E+02  0.72623211223E+02  0.15117547978E+02  0.15285570033E+03  0.12509000000E+03 0.  0.
         25    1    4    4    0    0  0.39290314424E+02 -0.27882911692E+01 -0.35370674996E+02  0.13583113091E+03  0.12509000000E+03 0.  0.
         25    1    4    4    0    0  0.77701356176E+01 -0.69834920054E+02 -0.77667861492E+02  0.16314746665E+03  0.12509000000E+03 0.  0.
<mgrwt>
<rscale>  2 0.44109604E+03</rscale>
<asrwt>0</asrwt>
<pdfrwt beam="1">  1       21 0.26023038E-01 0.44109604E+03</pdfrwt>
<pdfrwt beam="2">  1       21 0.40423182E-01 0.44109604E+03</pdfrwt>
<totfact> 0.76954129E+04</totfact>
</mgrwt>
</event>
<event>
 7    0  0.4725730E-002  0.4571234E+03  0.7546771E-02  0.1025619E+00
         21   -1    0    0  502  501  0.00000000000E+00  0.00000000000E+00  0.46841954203E+02  0.46841954203E+02  0.00000000000E+00 0.  1.
         21   -1    0    0  501  502 -0.00000000000E+00 -0.00000000000E+00 -0.11152492677E+04  0.11152492677E+04  0.00000000000E+00 0.  1.
      99926    2    1    2    0    0  0.00000000000E+00  0.88817841970E-15 -0.10684073135E+04  0.11620912219E+04  0.45712341932E+03 0.  0.
      99925    2    3    3    0    0 -0.51599243740E+02 -0.60978771855E+01 -0.41004462836E+03  0.48993900749E+03  0.26306647021E+03 0.  0.
         25    1    3    3    0    0  0.51599243740E+02  0.60978771855E+01 -0.65836268513E+03  0.67215221441E+03  0.12509000000E+03 0.  0.
         25    1    4    4    0    0 -0.61481461250E+02  0.15238629702E+02 -0.23197329312E+03  0.27105590334E+03  0.12509000000E+03 0.  0.
         25    1    4    4    0    0  0.98822175100E+01 -0.21336506887E+02 -0.17807133524E+03  0.21888310415E+03  0.12509000000E+03 0.  0.
<mgrwt>
<rscale>  2 0.45712342E+03</rscale>
<asrwt>0</asrwt>
<pdfrwt beam="1">  1       21 0.68885227E-02 0.45712342E+03</pdfrwt>
<pdfrwt beam="2">  1       21 0.16400725E+00 0.45712342E+03</pdfrwt>
<totfact> 0.32834525E+04</totfact>
</mgrwt>
</event>
<event>
 7    0  0.4725730E-002  0.4523824E+03  0.7546771E-02  0.1027014E+00
         21   -1    0    0  502  501  0.00000000000E+00  0.00000000000E+00  0.15873161888E+04  0.15873161888E+04  0.00000000000E+00 0. -1.
         21   -1    0    0  501  502 -0.00000000000E+00 -0.00000000000E+00 -0.32232052300E+02  0.32232052300E+02  0.00000000000E+00 0. -1.
      99926    2    1    2    0    0  0.71054273576E-14  0.14210854715E-13  0.15550841365E+04  0.16195482411E+04  0.45238239759E+03 0.  0.
      99925    2    3    3    0    0  0.61667881903E+02  0.90991607814E+02  0.93108909291E+03  0.97371565995E+03  0.26289329991E+03 0.  0.
         25    1    4    4    0    0  0.46017237648E+02  0.75011163703E+02  0.41727832487E+03  0.44442431228E+03  0.12509000000E+03 0.  0.
         25    1    4    4    0    0  0.15650644255E+02  0.15980444111E+02  0.51381076805E+03  0.52929134767E+03  0.12509000000E+03 0.  0.
         25    1    3    3    0    0 -0.61667881903E+02 -0.90991607814E+02  0.62399504356E+03  0.64583258112E+03  0.12509000000E+03 0.  0.
<mgrwt>
<rscale>  2 0.45238240E+03</rscale>
<asrwt>0</asrwt>
<pdfrwt beam="1">  1       21 0.23342880E+00 0.45238240E+03</pdfrwt>
<pdfrwt beam="2">  1       21 0.47400087E-02 0.45238240E+03</pdfrwt>
<totfact> 0.21423768E+04</totfact>
</mgrwt>
</event>
<event>
 7    0  0.4725730E-002  0.4557540E+03  0.7546771E-02  0.1026020E+00
         21   -1    0    0  502  501  0.00000000000E+00  0.00000000000E+00  0.29922034631E+02  0.29922034631E+02  0.00000000000E+00 0.  1.
         21   -1    0    0  501  502 -0.00000000000E+00 -0.00000000000E+00 -0.17354413910E+04  0.17354413910E+04  0.00000000000E+00 0.  1.
      99926    2    1    2    0    0  0.14210854715E-13  0.00000000000E+00 -0.17055193564E+04  0.17653634257E+04  0.45575404509E+03 0.  0.
      99925    2    3    3    0    0 -0.75904516469E+02 -0.51418792908E+02 -0.81088932713E+03  0.85738997602E+03  0.26300319816E+03 0.  0.
         25    1    3    3    0    0  0.75904516469E+02  0.51418792908E+02 -0.89463002927E+03  0.90797344964E+03  0.12509000000E+03 0.  0.
         25    1    4    4    0    0 -0.68974932828E+02 -0.22245863566E+01 -0.37996334899E+03  0.40593367047E+03  0.12509000000E+03 0.  0.
         25    1    4    4    0    0 -0.69295836407E+01 -0.49194206551E+02 -0.43092597814E+03  0.45145630555E+03  0.12509000000E+03 0.  0.
<mgrwt>
<rscale>  2 0.45575405E+03</rscale>
<asrwt>0</asrwt>
<pdfrwt beam="1">  1       21 0.44003002E-02 0.45575405E+03</pdfrwt>
<pdfrwt beam="2">  1       21 0.25521191E+00 0.45575405E+03</pdfrwt>
<totfact> 0.17829979E+04</totfact>
</mgrwt>
</event>
<event>
 7    0  0.4725730E-002  0.4214228E+03  0.7546771E-02  0.1036604E+00
         21   -1    0    0  502  501  0.00000000000E+00  0.00000000000E+00  0.61024676340E+02  0.61024676340E+02  0.00000000000E+00 0.  1.
         21   -1    0    0  501  502 -0.00000000000E+00 -0.00000000000E+00 -0.72756306695E+03  0.72756306695E+03  0.00000000000E+00 0.  1.
      99926    2    1    2    0    0  0.00000000000E+00  0.00000000000E+00 -0.66653839061E+03  0.78858774329E+03  0.42142283126E+03 0.  0.
      99925    2    3    3    0    0  0.62515068995E+02  0.41972889768E+02 -0.46889442632E+03  0.54286329996E+03  0.26299947165E+03 0.  0.
         25    1    3    3    0    0 -0.62515068995E+02 -0.41972889768E+02 -0.19764396429E+03  0.24572444333E+03  0.12509000000E+03 0.  0.
         25    1    4    4    0    0  0.60432046011E+02  0.47209622217E+02 -0.22332726140E+03  0.26721406100E+03  0.12509000000E+03 0.  0.
         25    1    4    4    0    0  0.20830229842E+01 -0.52367324486E+01 -0.24556716492E+03  0.27564923896E+03  0.12509000000E+03 0.  0.
<mgrwt>
<rscale>  2 0.42142283E+03</rscale>
<asrwt>0</asrwt>
<pdfrwt beam="1">  1       21 0.89742175E-02 0.42142283E+03</pdfrwt>
<pdfrwt beam="2">  1       21 0.10699456E+00 0.42142283E+03</pdfrwt>
<totfact> 0.63467166E+04</totfact>
</mgrwt>
</event>
<event>
 7    0  0.4725730E-002  0.4565076E+03  0.7546771E-02  0.1025799E+00
         21   -1    0    0  502  501  0.00000000000E+00  0.00000000000E+00  0.25898134717E+03  0.25898134717E+03  0.00000000000E+00 0. -1.
         21   -1    0    0  501  502 -0.00000000000E+00 -0.00000000000E+00 -0.20117201334E+03  0.20117201334E+03  0.00000000000E+00 0. -1.
      99926    2    1    2    0    0  0.14210854715E-13  0.00000000000E+00  0.57809333834E+02  0.46015336050E+03  0.45650760794E+03 0.  0.
      99925    2    3    3    0    0 -0.82207524008E+02  0.38529278815E+02 -0.34236261709E+02  0.28025760711E+03  0.26292512698E+03 0.  0.
         25    1    4    4    0    0 -0.49658066475E+02  0.50323363123E+02 -0.43522098895E+02  0.15013342611E+03  0.12509000000E+03 0.  0.
         25    1    3    3    0    0  0.82207524008E+02 -0.38529278815E+02  0.92045595543E+02  0.17989575339E+03  0.12509000000E+03 0.  0.
         25    1    4    4    0    0 -0.32549457533E+02 -0.11794084309E+02  0.92858371856E+01  0.13012418101E+03  0.12509000000E+03 0.  0.
<mgrwt>
<rscale>  2 0.45650761E+03</rscale>
<asrwt>0</asrwt>
<pdfrwt beam="1">  1       21 0.38085492E-01 0.45650761E+03</pdfrwt>
<pdfrwt beam="2">  1       21 0.29584119E-01 0.45650761E+03</pdfrwt>
<totfact> 0.67355898E+04</totfact>
</mgrwt>
</event>
<event>
 6    0  0.4725730E-002  0.4580206E+03  0.7546771E-02  0.1025357E+00
         21   -1    0    0  502  501  0.00000000000E+00  0.00000000000E+00  0.92014054750E+02  0.92014054750E+02  0.00000000000E+00 0. -1.
         21   -1    0    0  501  502 -0.00000000000E+00 -0.00000000000E+00 -0.56997497847E+03  0.56997497847E+03  0.00000000000E+00 0. -1.
      99926    2    1    2    0    0  0.00000000000E+00 -0.14210854715E-13 -0.47796092372E+03  0.66198903322E+03  0.45802056231E+03 0.  0.
         25    1    3    3    0    0  0.31224321363E+02  0.71428820218E+02 -0.26090271423E+03  0.29965775310E+03  0.12509000000E+03 0.  0.
         25    1    3    3    0    0 -0.56950081847E+02 -0.80114567359E+02 -0.94077823334E+02  0.18482370159E+03  0.12509000000E+03 0.  0.
         25    1    3    3    0    0  0.25725760484E+02  0.86857471410E+01 -0.12298038616E+03  0.17750757853E+03  0.12509000000E+03 0.  0.
<mgrwt>
<rscale>  2 0.45802056E+03</rscale>
<asrwt>0</asrwt>
<pdfrwt beam="1">  1       21 0.13531478E-01 0.45802056E+03</pdfrwt>
<pdfrwt beam="2">  1       21 0.83819851E-01 0.45802056E+03</pdfrwt>
<totfact> 0.53724317E+04</totfact>
</mgrwt>
</event>
<event>
 7    0  0.4725730E-002  0.4621927E+03  0.7546771E-02  0.1024147E+00
         21   -1    0    0  502  501  0.00000000000E+00  0.00000000000E+00  0.21170143279E+03  0.21170143279E+03  0.00000000000E+00 0.  1.
         21   -1    0    0  501  502 -0.00000000000E+00 -0.00000000000E+00 -0.25226807662E+03  0.25226807662E+03  0.00000000000E+00 0.  1.
      99926    2    1    2    0    0  0.17763568394E-14  0.00000000000E+00 -0.40566643831E+02  0.46396950941E+03  0.46219265795E+03 0.  0.
      99925    2    3    3    0    0  0.11948083363E+02  0.45362327606E+02 -0.13599465349E+03  0.29979122038E+03  0.26302040335E+03 0.  0.
         25    1    4    4    0    0 -0.78318006077E+01  0.40997972865E+02 -0.10694463729E+03  0.16978467076E+03  0.12509000000E+03 0.  0.
         25    1    4    4    0    0  0.19779883971E+02  0.43643547409E+01 -0.29050016194E+02  0.13000654962E+03  0.12509000000E+03 0.  0.
         25    1    3    3    0    0 -0.11948083363E+02 -0.45362327606E+02  0.95428009655E+02  0.16417828903E+03  0.12509000000E+03 0.  0.
<mgrwt>
<rscale>  2 0.46219266E+03</rscale>
<asrwt>0</asrwt>
<pdfrwt beam="1">  1       21 0.31132564E-01 0.46219266E+03</pdfrwt>
<pdfrwt beam="2">  1       21 0.37098246E-01 0.46219266E+03</pdfrwt>
<totfact> 0.64133394E+04</totfact>
</mgrwt>
</event>
<event>
 7    0  0.4725730E-002  0.4605518E+03  0.7546771E-02  0.1024621E+00
         21   -1    0    0  502  501  0.00000000000E+00  0.00000000000E+00  0.30991609149E+02  0.30991609149E+02  0.00000000000E+00 0.  1.
         21   -1    0    0  501  502 -0.00000000000E+00 -0.00000000000E+00 -0.17110114775E+04  0.17110114775E+04  0.00000000000E+00 0.  1.
      99926    2    1    2    0    0  0.17763568394E-14 -0.14210854715E-13 -0.16800198683E+04  0.17420030866E+04  0.46055183838E+03 0.  0.
      99925    2    3    3    0    0 -0.11689862690E+02  0.10831108120E+03 -0.12273030417E+04  0.12598537566E+04  0.26285126733E+03 0.  0.
         25    1    3    3    0    0  0.11689862690E+02 -0.10831108120E+03 -0.45271682664E+03  0.48214933000E+03  0.12509000000E+03 0.  0.
         25    1    4    4    0    0  0.89372803640E+01  0.13508821886E+02 -0.52827382091E+03  0.54312346774E+03  0.12509000000E+03 0.  0.
         25    1    4    4    0    0 -0.20627143054E+02  0.94802259316E+02 -0.69902922078E+03  0.71673028888E+03  0.12509000000E+03 0.  0.
<mgrwt>
<rscale>  2 0.46055184E+03</rscale>
<asrwt>0</asrwt>
<pdfrwt beam="1">  1       21 0.45575877E-02 0.46055184E+03</pdfrwt>
<pdfrwt beam="2">  1       21 0.25161944E+00 0.46055184E+03</pdfrwt>
<totfact> 0.17628789E+04</totfact>
</mgrwt>
</event>
<event>
 7    0  0.4725730E-002  0.4558482E+03  0.7546771E-02  0.1025992E+00
         21   -1    0    0  502  501  0.00000000000E+00  0.00000000000E+00  0.13916855932E+03  0.13916855932E+03  0.00000000000E+00 0. -1.
         21   -1    0    0  501  502 -0.00000000000E+00 -0.00000000000E+00 -0.37328393712E+03  0.37328393712E+03  0.00000000000E+00 0. -1.
      99926    2    1    2    0    0 -0.88817841970E-15  0.00000000000E+00 -0.23411537780E+03  0.51245249643E+03  0.45584816658E+03 0.  0.
      99925    2    3    3    0    0  0.69014690750E+01  0.10918130785E+03 -0.18292662785E+03  0.33856752158E+03  0.26305441877E+03 0.  0.
         25    1    3    3    0    0 -0.69014690750E+01 -0.10918130785E+03 -0.51188749950E+02  0.17388497485E+03  0.12509000000E+03 0.  0.
         25    1    4    4    0    0  0.36484629649E+01  0.22123457103E+02 -0.50879104693E+02  0.13689028465E+03  0.12509000000E+03 0.  0.
         25    1    4    4    0    0  0.32530061101E+01  0.87057850744E+02 -0.13204752316E+03  0.20167723693E+03  0.12509000000E+03 0.  0.
<mgrwt>
<rscale>  2 0.45584817E+03</rscale>
<asrwt>0</asrwt>
<pdfrwt beam="1">  1       21 0.20465965E-01 0.45584817E+03</pdfrwt>
<pdfrwt beam="2">  1       21 0.54894696E-01 0.45584817E+03</pdfrwt>
<totfact> 0.63972713E+04</totfact>
</mgrwt>
</event>
<event>
 7    0  0.4725730E-002  0.4639299E+03  0.7546771E-02  0.1023648E+00
         21   -1    0    0  502  501  0.00000000000E+00  0.00000000000E+00  0.34323592966E+03  0.34323592966E+03  0.00000000000E+00 0. -1.
         21   -1    0    0  501  502 -0.00000000000E+00 -0.00000000000E+00 -0.15676604288E+03  0.15676604288E+03  0.00000000000E+00 0. -1.
      99926    2    1    2    0    0  0.00000000000E+00  0.00000000000E+00  0.18646988678E+03  0.50000197254E+03  0.46392990189E+03 0.  0.
      99925    2    3    3    0    0 -0.66490312966E+02  0.10056162050E+03  0.98496277474E+02  0.30527019478E+03  0.26259241023E+03 0.  0.
         25    1    4    4    0    0 -0.15698465108E+02  0.43074273652E+02  0.93036376371E+01  0.13355111617E+03  0.12509000000E+03 0.  0.
         25    1    3    3    0    0  0.66490312966E+02 -0.10056162050E+03  0.87973609310E+02  0.19473177776E+03  0.12509000000E+03 0.  0.
         25    1    4    4    0    0 -0.50791847859E+02  0.57487346845E+02  0.89192639837E+02  0.17171907861E+03  0.12509000000E+03 0.  0.
<mgrwt>
<rscale>  2 0.46392990E+03</rscale>
<asrwt>0</asrwt>
<pdfrwt beam="1">  1       21 0.50475872E-01 0.46392990E+03</pdfrwt>
<pdfrwt beam="2">  1       21 0.23053830E-01 0.46392990E+03</pdfrwt>
<totfact> 0.60841708E+04</totfact>
</mgrwt>
</event>
<event>
 7    0  0.4725730E-002  0.4522852E+03  0.7546771E-02  0.1027043E+00
         21   -1    0    0  502  501  0.00000000000E+00  0.00000000000E+00  0.18449892641E+03  0.18449892641E+03  0.00000000000E+00 0.  1.
         21   -1    0    0  501  502 -0.00000000000E+00 -0.00000000000E+00 -0.27718578323E+03  0.27718578323E+03  0.00000000000E+00 0.  1.
      99926    2    1    2    0    0  0.14210854715E-13 -0.31086244690E-14 -0.92686856823E+02  0.46168470964E+03  0.45228521719E+03 0.  0.
      99925    2    3    3    0    0  0.65031748865E+02 -0.34968131234E+01  0.32798530049E+02  0.27291117739E+03  0.26298937451E+03 0.  0.
         25    1    3    3    0    0 -0.65031748865E+02  0.34968131234E+01 -0.12548538687E+03  0.18877353226E+03  0.12509000000E+03 0.  0.
         25    1    4    4    0    0  0.34433078373E+02 -0.40782589125E+02  0.56235579205E+01  0.13611755569E+03  0.12509000000E+03 0.  0.
         25    1    4    4    0    0  0.30598670492E+02  0.37285776002E+02  0.27174972129E+02  0.13679362170E+03  0.12509000000E+03 0.  0.
<mgrwt>
<rscale>  2 0.45228522E+03</rscale>
<asrwt>0</asrwt>
<pdfrwt beam="1">  1       21 0.27132195E-01 0.45228522E+03</pdfrwt>
<pdfrwt beam="2">  1       21 0.40762615E-01 0.45228522E+03</pdfrwt>
<totfact> 0.69545585E+04</totfact>
</mgrwt>
</event>
<event>
 7    0  0.4725730E-002  0.4604337E+03  0.7546771E-02  0.1024656E+00
         21   -1    0    0  502  501  0.00000000000E+00  0.00000000000E+00  0.48176283688E+03  0.48176283688E+03  0.00000000000E+00 0.  1.
         21   -1    0    0  501  502 -0.00000000000E+00 -0.00000000000E+00 -0.11001221513E+03  0.11001221513E+03  0.00000000000E+00 0.  1.
      99926    2    1    2    0    0  0.00000000000E+00  0.00000000000E+00  0.37175062175E+03  0.59177505201E+03  0.46043369491E+03 0.  0.
      99925    2    3    3    0    0 -0.62265707735E+02 -0.78472685474E+02  0.31342813540E+03  0.42123473056E+03  0.26299528788E+03 0.  0.
         25    1    4    4    0    0 -0.40199556282E+02 -0.37328416404E+02  0.99229150492E+02  0.16882934402E+03  0.12509000000E+03 0.  0.
         25    1    4    4    0    0 -0.22066151454E+02 -0.41144269070E+02  0.21419898491E+03  0.25240538654E+03  0.12509000000E+03 0.  0.
         25    1    3    3    0    0  0.62265707735E+02  0.78472685474E+02  0.58322486345E+02  0.17054032145E+03  0.12509000000E+03 0.  0.
<mgrwt>
<rscale>  2 0.46043369E+03</rscale>
<asrwt>0</asrwt>
<pdfrwt beam="1">  1       21 0.70847475E-01 0.46043369E+03</pdfrwt>
<pdfrwt beam="2">  1       21 0.16178267E-01 0.46043369E+03</pdfrwt>
<totfact> 0.56712421E+04</totfact>
</mgrwt>
</event>
<event>
 7    0  0.4725730E-002  0.4575488E+03  0.7546771E-02  0.1025495E+00
         21   -1    0    0  502  501  0.00000000000E+00  0.00000000000E+00  0.30914962650E+02  0.30914962650E+02  0.00000000000E+00 0.  1.
         21   -1    0    0  501  502 -0.00000000000E+00 -0.00000000000E+00 -0.16929576344E+04  0.16929576344E+04  0.00000000000E+00 0.  1.
      99926    2    1    2    0    0  0.88817841970E-15  0.00000000000E+00 -0.16620426718E+04  0.17238725971E+04  0.45754878226E+03 0.  0.
      99925    2    3    3    0    0 -0.59946532395E+01 -0.11444323933E+03 -0.98722191696E+03  0.10280538347E+04  0.26297220907E+03 0.  0.
         25    1    4    4    0    0  0.68927964265E+01 -0.58024667477E+02 -0.63476287610E+03  0.64960433315E+03  0.12509000000E+03 0.  0.
         25    1    3    3    0    0  0.59946532395E+01  0.11444323933E+03 -0.67482075481E+03  0.69581876241E+03  0.12509000000E+03 0.  0.
         25    1    4    4    0    0 -0.12887449666E+02 -0.56418571849E+02 -0.35245904086E+03  0.37844950151E+03  0.12509000000E+03 0.  0.
<mgrwt>
<rscale>  2 0.45754878E+03</rscale>
<asrwt>0</asrwt>
<pdfrwt beam="1">  1       21 0.45463175E-02 0.45754878E+03</pdfrwt>
<pdfrwt beam="2">  1       21 0.24896439E+00 0.45754878E+03</pdfrwt>
<totfact> 0.18402301E+04</totfact>
</mgrwt>
</event>
<event>
 7    0  0.4725730E-002  0.4539404E+03  0.7546771E-02  0.1026553E+00
         21   -1    0    0  502  501  0.00000000000E+00  0.00000000000E+00  0.33483086401E+03  0.33483086401E+03  0.00000000000E+00 0. -1.
         21   -1    0    0  501  502 -0.00000000000E+00 -0.00000000000E+00 -0.15385518098E+03  0.15385518098E+03  0.00000000000E+00 0. -1.
      99926    2    1    2    0    0  0.00000000000E+00  0.00000000000E+00  0.18097568302E+03  0.48868604499E+03  0.45394036252E+03 0.  0.
      99925    2    3    3    0    0  0.44237267292E+02  0.74606123940E+02  0.19066174710E+03  0.33615953095E+03  0.26292264812E+03 0.  0.
         25    1    4    4    0    0  0.59105916128E+02  0.36215885545E+02  0.78278312657E+02  0.16303405172E+03  0.12509000000E+03 0.  0.
         25    1    4    4    0    0 -0.14868648836E+02  0.38390238395E+02  0.11238343445E+03  0.17312547923E+03  0.12509000000E+03 0.  0.
         25    1    3    3    0    0 -0.44237267292E+02 -0.74606123940E+02 -0.96860640783E+01  0.15252651404E+03  0.12509000000E+03 0.  0.
<mgrwt>
<rscale>  2 0.45394036E+03</rscale>
<asrwt>0</asrwt>
<pdfrwt beam="1">  1       21 0.49239833E-01 0.45394036E+03</pdfrwt>
<pdfrwt beam="2">  1       21 0.22625762E-01 0.45394036E+03</pdfrwt>
<totfact> 0.66631801E+04</totfact>
</mgrwt>
</event>
<event>
 7    0  0.4725730E-002  0.4528037E+03  0.7546771E-02  0.1026889E+00
         21   -1    0    0  502  501  0.00000000000E+00  0.00000000000E+00  0.14122677801E+03  0.14122677801E+03  0.00000000000E+00 0.  1.
         21   -1    0    0  501  502 -0.00000000000E+00 -0.00000000000E+00 -0.36294674898E+03  0.36294674898E+03  0.00000000000E+00 0.  1.
      99926    2    1    2    0    0 -0.14210854715E-13  0.00000000000E+00 -0.22171997097E+03  0.50417352699E+03  0.45280371000E+03 0.  0.
      99925    2    3    3    0    0 -0.86775564317E+02 -0.20397712822E+02 -0.21328957481E+03  0.35034035459E+03  0.26324865827E+03 0.  0.
         25    1    4    4    0    0 -0.84327028633E+02 -0.19429806624E+01 -0.10460699145E+03  0.18358908925E+03  0.12509000000E+03 0.  0.
         25    1    3    3    0    0  0.86775564317E+02  0.20397712822E+02 -0.84303961573E+01  0.15383317240E+03  0.12509000000E+03 0.  0.
         25    1    4    4    0    0 -0.24485356843E+01 -0.18454732159E+02 -0.10868258336E+03  0.16675126534E+03  0.12509000000E+03 0.  0.
<mgrwt>
<rscale>  2 0.45280371E+03</rscale>
<asrwt>0</asrwt>
<pdfrwt beam="1">  1       21 0.20768644E-01 0.45280371E+03</pdfrwt>
<pdfrwt beam="2">  1       21 0.53374522E-01 0.45280371E+03</pdfrwt>
<totfact> 0.66123641E+04</totfact>
</mgrwt>
</event>
<event>
 7    0  0.4725730E-002  0.4545187E+03  0.7546771E-02  0.1026383E+00
         21   -1    0    0  502  501  0.00000000000E+00  0.00000000000E+00  0.19883693569E+03  0.19883693569E+03  0.00000000000E+00 0.  1.
         21   -1    0    0  501  502 -0.00000000000E+00 -0.00000000000E+00 -0.25974455839E+03  0.25974455839E+03  0.00000000000E+00 0.  1.
      99926    2    1    2    0    0  0.00000000000E+00 -0.35527136788E-14 -0.60907622705E+02  0.45858149408E+03  0.45451869952E+03 0.  0.
      99925    2    3    3    0    0  0.15244988970E+02  0.12993392108E+02  0.72940513235E+02  0.27428806088E+03  0.26365201297E+03 0.  0.
         25    1    3    3    0    0 -0.15244988970E+02 -0.12993392108E+02 -0.13384813594E+03  0.18429343320E+03  0.12509000000E+03 0.  0.
         25    1    4    4    0    0  0.11961663219E+02 -0.34911712812E+02  0.36534821550E+02  0.13544080022E+03  0.12509000000E+03 0.  0.
         25    1    4    4    0    0  0.32833257503E+01  0.47905104920E+02  0.36405691685E+02  0.13884726066E+03  0.12509000000E+03 0.  0.
<mgrwt>
<rscale>  2 0.45451870E+03</rscale>
<asrwt>0</asrwt>
<pdfrwt beam="1">  1       21 0.29240726E-01 0.45451870E+03</pdfrwt>
<pdfrwt beam="2">  1       21 0.38197729E-01 0.45451870E+03</pdfrwt>
<totfact> 0.68546790E+04</totfact>
</mgrwt>
</event>
<event>
 7    0  0.4725730E-002  0.4356499E+03  0.7546771E-02  0.1032090E+00
         21   -1    0    0  502  501  0.00000000000E+00  0.00000000000E+00  0.18039127842E+03  0.18039127842E+03  0.00000000000E+00 0.  1.
         21   -1    0    0  501  502 -0.00000000000E+00 -0.00000000000E+00 -0.26302661654E+03  0.26302661654E+03  0.00000000000E+00 0.  1.
      99926    2    1    2    0    0 -0.71054273576E-14  0.00000000000E+00 -0.82635338113E+02  0.44341789496E+03  0.43564989437E+03 0.  0.
      99925    2    3    3    0    0  0.34535736917E+02 -0.35249317769E+02 -0.13432850333E+03  0.29935220523E+03  0.26293034142E+03 0.  0.
         25    1    4    4    0    0  0.56726504852E+02 -0.90458537850E+01 -0.64061781554E+02  0.15182603130E+03  0.12509000000E+03 0.  0.
         25    1    4    4    0    0 -0.22190767935E+02 -0.26203463984E+02 -0.70266721778E+02  0.14752617393E+03  0.12509000000E+03 0.  0.
         25    1    3    3    0    0 -0.34535736917E+02  0.35249317769E+02  0.51693165218E+02  0.14406568973E+03  0.12509000000E+03 0.  0.
<mgrwt>
<rscale>  2 0.43564989E+03</rscale>
<asrwt>0</asrwt>
<pdfrwt beam="1">  1       21 0.26528130E-01 0.43564989E+03</pdfrwt>
<pdfrwt beam="2">  1       21 0.38680384E-01 0.43564989E+03</pdfrwt>
<totfact> 0.81231954E+04</totfact>
</mgrwt>
</event>
<event>
 7    0  0.4725730E-002  0.4557664E+03  0.7546771E-02  0.1026016E+00
         21   -1    0    0  502  501  0.00000000000E+00  0.00000000000E+00  0.10669560479E+04  0.10669560479E+04  0.00000000000E+00 0. -1.
         21   -1    0    0  501  502 -0.00000000000E+00 -0.00000000000E+00 -0.48671868921E+02  0.48671868921E+02  0.00000000000E+00 0. -1.
      99926    2    1    2    0    0  0.00000000000E+00  0.00000000000E+00  0.10182841790E+04  0.11156279168E+04  0.45576636518E+03 0.  0.
      99925    2    3    3    0    0  0.66491872031E+02 -0.24955878785E+02  0.85861655959E+03  0.90072044437E+03  0.26273743085E+03 0.  0.
         25    1    4    4    0    0  0.34624497088E+02 -0.52773391157E+02  0.43895558357E+03  0.46077478127E+03  0.12509000000E+03 0.  0.
         25    1    4    4    0    0  0.31867374943E+02  0.27817512372E+02  0.41966097603E+03  0.43994566310E+03  0.12509000000E+03 0.  0.
         25    1    3    3    0    0 -0.66491872031E+02  0.24955878785E+02  0.15966761937E+03  0.21490747243E+03  0.12509000000E+03 0.  0.
<mgrwt>
<rscale>  2 0.45576637E+03</rscale>
<asrwt>0</asrwt>
<pdfrwt beam="1">  1       21 0.15690529E+00 0.45576637E+03</pdfrwt>
<pdfrwt beam="2">  1       21 0.71576285E-02 0.45576637E+03</pdfrwt>
<totfact> 0.34742827E+04</totfact>
</mgrwt>
</event>
<event>
 7    0  0.4725730E-002  0.4550575E+03  0.7546771E-02  0.1026225E+00
         21   -1    0    0  502  501  0.00000000000E+00  0.00000000000E+00  0.52644035650E+02  0.52644035650E+02  0.00000000000E+00 0. -1.
         21   -1    0    0  501  502 -0.00000000000E+00 -0.00000000000E+00 -0.98338446912E+03  0.98338446912E+03  0.00000000000E+00 0. -1.
      99926    2    1    2    0    0  0.00000000000E+00  0.00000000000E+00 -0.93074043347E+03  0.10360285048E+04  0.45505747791E+03 0.  0.
      99925    2    3    3    0    0  0.30998738497E+02  0.92393147044E+02 -0.71682223729E+03  0.76974685282E+03  0.26301840647E+03 0.  0.
         25    1    4    4    0    0  0.29756847880E+02  0.65237260544E+02 -0.28569041369E+03  0.32001232903E+03  0.12509000000E+03 0.  0.
         25    1    4    4    0    0  0.12418906163E+01  0.27155886500E+02 -0.43113182360E+03  0.44973452378E+03  0.12509000000E+03 0.  0.
         25    1    3    3    0    0 -0.30998738497E+02 -0.92393147044E+02 -0.21391819618E+03  0.26628165195E+03  0.12509000000E+03 0.  0.
<mgrwt>
<rscale>  2 0.45505748E+03</rscale>
<asrwt>0</asrwt>
<pdfrwt beam="1">  1       21 0.77417706E-02 0.45505748E+03</pdfrwt>
<pdfrwt beam="2">  1       21 0.14461535E+00 0.45505748E+03</pdfrwt>
<totfact> 0.37777314E+04</totfact>
</mgrwt>
</event>
<event>
 7    0  0.4725730E-002  0.4504260E+03  0.7546771E-02  0.1027595E+00
         21   -1    0    0  502  501  0.00000000000E+00  0.00000000000E+00  0.54212625073E+03  0.54212625073E+03  0.00000000000E+00 0. -1.
         21   -1    0    0  501  502 -0.00000000000E+00 -0.00000000000E+00 -0.93559210475E+02  0.93559210475E+02  0.00000000000E+00 0. -1.
      99926    2    1    2    0    0  0.00000000000E+00  0.00000000000E+00  0.44856704025E+03  0.63568546120E+03  0.45042603831E+03 0.  0.
      99925    2    3    3    0    0 -0.29614852393E+02  0.10419954017E+03  0.26969160062E+03  0.39200839076E+03  0.26306355759E+03 0.  0.
         25    1    3    3    0    0  0.29614852393E+02 -0.10419954017E+03  0.17887543964E+03  0.24367707044E+03  0.12509000000E+03 0.  0.
         25    1    4    4    0    0 -0.55332238865E+01  0.31584794029E+02  0.17489912256E+03  0.21740613366E+03  0.12509000000E+03 0.  0.
         25    1    4    4    0    0 -0.24081628506E+02  0.72614746142E+02  0.94792478054E+02  0.17460225710E+03  0.12509000000E+03 0.  0.
<mgrwt>
<rscale>  2 0.45042604E+03</rscale>
<asrwt>0</asrwt>
<pdfrwt beam="1">  1       21 0.79724447E-01 0.45042604E+03</pdfrwt>
<pdfrwt beam="2">  1       21 0.13758708E-01 0.45042604E+03</pdfrwt>
<totfact> 0.58621486E+04</totfact>
</mgrwt>
</event>
<event>
 7    0  0.4725730E-002  0.4527629E+03  0.7546771E-02  0.1026901E+00
         21   -1    0    0  502  501  0.00000000000E+00  0.00000000000E+00  0.12253482750E+03  0.12253482750E+03  0.00000000000E+00 0.  1.
         21   -1    0    0  501  502 -0.00000000000E+00 -0.00000000000E+00 -0.41823667847E+03  0.41823667847E+03  0.00000000000E+00 0.  1.
      99926    2    1    2    0    0  0.00000000000E+00  0.00000000000E+00 -0.29570185098E+03  0.54077150597E+03  0.45276289270E+03 0.  0.
      99925    2    3    3    0    0  0.50635606021E+02 -0.75602871762E+02 -0.26264971856E+03  0.38259530557E+03  0.26289643279E+03 0.  0.
         25    1    4    4    0    0  0.18046006495E+02 -0.56946061074E+02 -0.86818162999E+02  0.16356470814E+03  0.12509000000E+03 0.  0.
         25    1    4    4    0    0  0.32589599525E+02 -0.18656810688E+02 -0.17583155556E+03  0.21903059743E+03  0.12509000000E+03 0.  0.
         25    1    3    3    0    0 -0.50635606021E+02  0.75602871762E+02 -0.33052132420E+02  0.15817620040E+03  0.12509000000E+03 0.  0.
<mgrwt>
<rscale>  2 0.45276289E+03</rscale>
<asrwt>0</asrwt>
<pdfrwt beam="1">  1       21 0.18019828E-01 0.45276289E+03</pdfrwt>
<pdfrwt beam="2">  1       21 0.61505392E-01 0.45276289E+03</pdfrwt>
<totfact> 0.63598980E+04</totfact>
</mgrwt>
</event>
<event>
 7    0  0.4725730E-002  0.4587597E+03  0.7546771E-02  0.1025142E+00
         21   -1    0    0  502  501  0.00000000000E+00  0.00000000000E+00  0.66973736431E+02  0.66973736431E+02  0.00000000000E+00 0.  1.
         21   -1    0    0  501  502 -0.00000000000E+00 -0.00000000000E+00 -0.78560822980E+03  0.78560822980E+03  0.00000000000E+00 0.  1.
      99926    2    1    2    0    0 -0.14210854715E-13 -0.44408920985E-15 -0.71863449337E+03  0.85258196623E+03  0.45875971279E+03 0.  0.
      99925    2    3    3    0    0  0.81860835586E+02  0.34488213614E+01 -0.29459641810E+03  0.40295001880E+03  0.26242823271E+03 0.  0.
         25    1    4    4    0    0  0.37155438523E+02 -0.17393754260E+02 -0.95238649461E+02  0.16248377688E+03  0.12509000000E+03 0.  0.
         25    1    3    3    0    0 -0.81860835586E+02 -0.34488213614E+01 -0.42403807527E+03  0.44963194743E+03  0.12509000000E+03 0.  0.
         25    1    4    4    0    0  0.44705397063E+02  0.20842575622E+02 -0.19935776864E+03  0.24046624192E+03  0.12509000000E+03 0.  0.
<mgrwt>
<rscale>  2 0.45875971E+03</rscale>
<asrwt>0</asrwt>
<pdfrwt beam="1">  1       21 0.98490784E-02 0.45875971E+03</pdfrwt>
<pdfrwt beam="2">  1       21 0.11553063E+00 0.45875971E+03</pdfrwt>
<totfact> 0.44011643E+04</totfact>
</mgrwt>
</event>
<event>
 7    0  0.4725730E-002  0.4550059E+03  0.7546771E-02  0.1026240E+00
         21   -1    0    0  502  501  0.00000000000E+00  0.00000000000E+00  0.43026557219E+03  0.43026557219E+03  0.00000000000E+00 0. -1.
         21   -1    0    0  501  502 -0.00000000000E+00 -0.00000000000E+00 -0.12029219312E+03  0.12029219312E+03  0.00000000000E+00 0. -1.
      99926    2    1    2    0    0  0.00000000000E+00  0.00000000000E+00  0.30997337907E+03  0.55055776531E+03  0.45500588701E+03 0.  0.
      99925    2    3    3    0    0 -0.36950453024E+02 -0.74795708437E+02  0.10235909983E+03  0.29421633085E+03  0.26291848555E+03 0.  0.
         25    1    3    3    0    0  0.36950453024E+02  0.74795708437E+02  0.20761427923E+03  0.25634143446E+03  0.12509000000E+03 0.  0.
         25    1    4    4    0    0  0.13477240061E+02 -0.23232912974E+02  0.71494985712E+02  0.14656208694E+03  0.12509000000E+03 0.  0.
         25    1    4    4    0    0 -0.50427693084E+02 -0.51562795463E+02  0.30864114121E+02  0.14765424392E+03  0.12509000000E+03 0.  0.
<mgrwt>
<rscale>  2 0.45500589E+03</rscale>
<asrwt>0</asrwt>
<pdfrwt beam="1">  1       21 0.63274348E-01 0.45500589E+03</pdfrwt>
<pdfrwt beam="2">  1       21 0.17690029E-01 0.45500589E+03</pdfrwt>
<totfact> 0.61826790E+04</totfact>
</mgrwt>
</event>
<event>
 7    0  0.4725730E-002  0.4428955E+03  0.7546771E-02  0.1029862E+00
         21   -1    0    0  502  501  0.00000000000E+00  0.00000000000E+00  0.21054235096E+02  0.21054235096E+02  0.00000000000E+00 0.  1.
         21   -1    0    0  501  502 -0.00000000000E+00 -0.00000000000E+00 -0.23291805645E+04  0.23291805645E+04  0.00000000000E+00 0.  1.
      99926    2    1    2    0    0  0.71054273576E-14 -0.35527136788E-14 -0.23081263294E+04  0.23502347996E+04  0.44289554158E+03 0.  0.
      99925    2    3    3    0    0 -0.42245967833E+02 -0.99162430081E+01 -0.98338650002E+03  0.10188948065E+04  0.26308661033E+03 0.  0.
         25    1    4    4    0    0 -0.18497291010E+02 -0.36254486234E+02 -0.39551694125E+03  0.41681854141E+03  0.12509000000E+03 0.  0.
         25    1    4    4    0    0 -0.23748676823E+02  0.26338243226E+02 -0.58786955877E+03  0.60207626505E+03  0.12509000000E+03 0.  0.
         25    1    3    3    0    0  0.42245967833E+02  0.99162430081E+01 -0.13247398294E+04  0.13313399932E+04  0.12509000000E+03 0.  0.
<mgrwt>
<rscale>  2 0.44289554E+03</rscale>
<asrwt>0</asrwt>
<pdfrwt beam="1">  1       21 0.30962102E-02 0.44289554E+03</pdfrwt>
<pdfrwt beam="2">  1       21 0.34252664E+00 0.44289554E+03</pdfrwt>
<totfact> 0.96658805E+03</totfact>
</mgrwt>
</event>
<event>
 7    0  0.4725730E-002  0.4555523E+03  0.7546771E-02  0.1026079E+00
         21   -1    0    0  502  501  0.00000000000E+00  0.00000000000E+00  0.42519480652E+02  0.42519480652E+02  0.00000000000E+00 0. -1.
         21   -1    0    0  501  502 -0.00000000000E+00 -0.00000000000E+00 -0.12201932595E+04  0.12201932595E+04  0.00000000000E+00 0. -1.
      99926    2    1    2    0    0 -0.71054273576E-14 -0.35527136788E-14 -0.11776737789E+04  0.12627127402E+04  0.45555234031E+03 0.  0.
      99925    2    3    3    0    0  0.50399122711E+02  0.21119556483E+02 -0.46417277447E+03  0.53627120872E+03  0.26295310896E+03 0.  0.
         25    1    3    3    0    0 -0.50399122711E+02 -0.21119556483E+02 -0.71350100441E+03  0.72644153146E+03  0.12509000000E+03 0.  0.
         25    1    4    4    0    0 -0.13601588923E+02  0.11746021869E+02 -0.19262902593E+03  0.23038320681E+03  0.12509000000E+03 0.  0.
         25    1    4    4    0    0  0.64000711635E+02  0.93735346135E+01 -0.27154374854E+03  0.30588800191E+03  0.12509000000E+03 0.  0.
<mgrwt>
<rscale>  2 0.45555234E+03</rscale>
<asrwt>0</asrwt>
<pdfrwt beam="1">  1       21 0.62528651E-02 0.45555234E+03</pdfrwt>
<pdfrwt beam="2">  1       21 0.17944018E+00 0.45555234E+03</pdfrwt>
<totfact> 0.30087548E+04</totfact>
</mgrwt>
</event>
<event>
 7    0  0.4725730E-002  0.4535077E+03  0.7546771E-02  0.1026681E+00
         21   -1    0    0  502  501  0.00000000000E+00  0.00000000000E+00  0.52197959304E+02  0.52197959304E+02  0.00000000000E+00 0.  1.
         21   -1    0    0  501  502 -0.00000000000E+00 -0.00000000000E+00 -0.98504432685E+03  0.98504432685E+03  0.00000000000E+00 0.  1.
      99926    2    1    2    0    0  0.00000000000E+00  0.00000000000E+00 -0.93284636754E+03  0.10372422862E+04  0.45350767881E+03 0.  0.
      99925    2    3    3    0    0  0.47108547512E+02 -0.75340136128E+02 -0.43254966067E+03  0.51394537773E+03  0.26295492195E+03 0.  0.
         25    1    4    4    0    0  0.32690233830E+02 -0.42344929427E+02 -0.14797097232E+03  0.20100910722E+03  0.12509000000E+03 0.  0.
         25    1    4    4    0    0  0.14418313682E+02 -0.32995206701E+02 -0.28457868835E+03  0.31293627051E+03  0.12509000000E+03 0.  0.
         25    1    3    3    0    0 -0.47108547512E+02  0.75340136128E+02 -0.50029670687E+03  0.52329690842E+03  0.12509000000E+03 0.  0.
<mgrwt>
<rscale>  2 0.45350768E+03</rscale>
<asrwt>0</asrwt>
<pdfrwt beam="1">  1       21 0.76761715E-02 0.45350768E+03</pdfrwt>
<pdfrwt beam="2">  1       21 0.14485944E+00 0.45350768E+03</pdfrwt>
<totfact> 0.38192009E+04</totfact>
</mgrwt>
</event>
<event>
 7    0  0.4725730E-002  0.4577501E+03  0.7546771E-02  0.1025436E+00
         21   -1    0    0  502  501  0.00000000000E+00  0.00000000000E+00  0.84751835496E+02  0.84751835496E+02  0.00000000000E+00 0.  1.
         21   -1    0    0  501  502 -0.00000000000E+00 -0.00000000000E+00 -0.61808435191E+03  0.61808435191E+03  0.00000000000E+00 0.  1.
      99926    2    1    2    0    0 -0.71054273576E-14 -0.14210854715E-13 -0.53333251642E+03  0.70283618741E+03  0.45775007729E+03 0.  0.
      99925    2    3    3    0    0 -0.60901583019E+02 -0.91605590148E+02 -0.27947143994E+03  0.39920229403E+03  0.26297832392E+03 0.  0.
         25    1    4    4    0    0 -0.53764713322E+02 -0.12152662018E+02 -0.13372791955E+03  0.19123021770E+03  0.12509000000E+03 0.  0.
         25    1    4    4    0    0 -0.71368696975E+01 -0.79452928131E+02 -0.14574352039E+03  0.20797207633E+03  0.12509000000E+03 0.  0.
         25    1    3    3    0    0  0.60901583019E+02  0.91605590148E+02 -0.25386107647E+03  0.30363389338E+03  0.12509000000E+03 0.  0.
<mgrwt>
<rscale>  2 0.45775008E+03</rscale>
<asrwt>0</asrwt>
<pdfrwt beam="1">  1       21 0.12463505E-01 0.45775008E+03</pdfrwt>
<pdfrwt beam="2">  1       21 0.90894762E-01 0.45775008E+03</pdfrwt>
<totfact> 0.51622956E+04</totfact>
</mgrwt>
</event>
<event>
 7    0  0.4725730E-002  0.4555068E+03  0.7546771E-02  0.1026092E+00
         21   -1    0    0  502  501  0.00000000000E+00  0.00000000000E+00  0.56535507549E+02  0.56535507549E+02  0.00000000000E+00 0. -1.
         21   -1    0    0  501  502 -0.00000000000E+00 -0.00000000000E+00 -0.91750506748E+03  0.91750506748E+03  0.00000000000E+00 0. -1.
      99926    2    1    2    0    0 -0.14210854715E-13  0.00000000000E+00 -0.86096955993E+03  0.97404057503E+03  0.45550681518E+03 0.  0.
      99925    2    3    3    0    0  0.70237537934E+02  0.79404066112E+02 -0.45235535994E+03  0.53375499727E+03  0.26273695589E+03 0.  0.
         25    1    4    4    0    0  0.33034074186E+02  0.61394287135E+02 -0.17072294811E+03  0.22283254175E+03  0.12509000000E+03 0.  0.
         25    1    4    4    0    0  0.37203463747E+02  0.18009778976E+02 -0.28163241183E+03  0.31092245552E+03  0.12509000000E+03 0.  0.
         25    1    3    3    0    0 -0.70237537934E+02 -0.79404066112E+02 -0.40861419998E+03  0.44028557775E+03  0.12509000000E+03 0.  0.
<mgrwt>
<rscale>  2 0.45550682E+03</rscale>
<asrwt>0</asrwt>
<pdfrwt beam="1">  1       21 0.83140459E-02 0.45550682E+03</pdfrwt>
<pdfrwt beam="2">  1       21 0.13492721E+00 0.45550682E+03</pdfrwt>
<totfact> 0.40023530E+04</totfact>
</mgrwt>
</event>
<event>
 7    0  0.4725730E-002  0.4272967E+03  0.7546771E-02  0.1034717E+00
         21   -1    0    0  502  501  0.00000000000E+00  0.00000000000E+00  0.62223233141E+03  0.62223233141E+03  0.00000000000E+00 0. -1.
         21   -1    0    0  501  502 -0.00000000000E+00 -0.00000000000E+00 -0.73357844936E+02  0.73357844936E+02  0.00000000000E+00 0. -1.
      99926    2    1    2    0    0 -0.35527136788E-14  0.00000000000E+00  0.54887448648E+03  0.69559017635E+03  0.42729672539E+03 0.  0.
      99925    2    3    3    0    0  0.25876907135E+02 -0.76666816501E+02  0.39603305691E+03  0.48215300581E+03  0.26283440371E+03 0.  0.
         25    1    4    4    0    0 -0.10942185038E+02 -0.71056395677E+01  0.20688129007E+03  0.24211071395E+03  0.12509000000E+03 0.  0.
         25    1    3    3    0    0 -0.25876907135E+02  0.76666816501E+02  0.15284142957E+03  0.21343717054E+03  0.12509000000E+03 0.  0.
         25    1    4    4    0    0  0.36819092174E+02 -0.69561176933E+02  0.18915176684E+03  0.24004229186E+03  0.12509000000E+03 0.  0.
<mgrwt>
<rscale>  2 0.42729673E+03</rscale>
<asrwt>0</asrwt>
<pdfrwt beam="1">  1       21 0.91504752E-01 0.42729673E+03</pdfrwt>
<pdfrwt beam="2">  1       21 0.10787919E-01 0.42729673E+03</pdfrwt>
<totfact> 0.66499191E+04</totfact>
</mgrwt>
</event>
<event>
 7    0  0.4725730E-002  0.4423565E+03  0.7546771E-02  0.1030026E+00
         21   -1    0    0  502  501  0.00000000000E+00  0.00000000000E+00  0.23846199419E+03  0.23846199419E+03  0.00000000000E+00 0.  1.
         21   -1    0    0  501  502 -0.00000000000E+00 -0.00000000000E+00 -0.20514724447E+03  0.20514724447E+03  0.00000000000E+00 0.  1.
      99926    2    1    2    0    0  0.00000000000E+00  0.00000000000E+00  0.33314749716E+02  0.44360923866E+03  0.44235651241E+03 0.  0.
      99925    2    3    3    0    0 -0.75798269680E+02 -0.41920914469E+02  0.73009754379E+02  0.28636439056E+03  0.26300456116E+03 0.  0.
         25    1    4    4    0    0 -0.51561962489E+02  0.15387994693E+02  0.23778789501E+02  0.13823301084E+03  0.12509000000E+03 0.  0.
         25    1    4    4    0    0 -0.24236307191E+02 -0.57308909162E+02  0.49230964878E+02  0.14813137972E+03  0.12509000000E+03 0.  0.
         25    1    3    3    0    0  0.75798269680E+02  0.41920914469E+02 -0.39695004663E+02  0.15724484809E+03  0.12509000000E+03 0.  0.
<mgrwt>
<rscale>  2 0.44235651E+03</rscale>
<asrwt>0</asrwt>
<pdfrwt beam="1">  1       21 0.35067940E-01 0.44235651E+03</pdfrwt>
<pdfrwt beam="2">  1       21 0.30168712E-01 0.44235651E+03</pdfrwt>
<totfact> 0.76853686E+04</totfact>
</mgrwt>
</event>
<event>
 7    0  0.4725730E-002  0.4559573E+03  0.7546771E-02  0.1025960E+00
         21   -1    0    0  502  501  0.00000000000E+00  0.00000000000E+00  0.23028094929E+03  0.23028094929E+03  0.00000000000E+00 0.  1.
         21   -1    0    0  501  502 -0.00000000000E+00 -0.00000000000E+00 -0.22569937057E+03  0.22569937057E+03  0.00000000000E+00 0.  1.
      99926    2    1    2    0    0 -0.35527136788E-14  0.00000000000E+00  0.45815787151E+01  0.45598031986E+03  0.45595730199E+03 0.  0.
      99925    2    3    3    0    0  0.13147623419E+02  0.24257385817E+02 -0.10766685613E+03  0.28566150119E+03  0.26315216241E+03 0.  0.
         25    1    3    3    0    0 -0.13147623419E+02 -0.24257385817E+02  0.11224843485E+03  0.17031881867E+03  0.12509000000E+03 0.  0.
         25    1    4    4    0    0 -0.30663914016E+02  0.18098469001E+02 -0.70173220306E+02  0.14778233707E+03  0.12509000000E+03 0.  0.
         25    1    4    4    0    0  0.43811537435E+02  0.61589168160E+01 -0.37493635825E+02  0.13787916411E+03  0.12509000000E+03 0.  0.
<mgrwt>
<rscale>  2 0.45595730E+03</rscale>
<asrwt>0</asrwt>
<pdfrwt beam="1">  1       21 0.33864846E-01 0.45595730E+03</pdfrwt>
<pdfrwt beam="2">  1       21 0.33191084E-01 0.45595730E+03</pdfrwt>
<totfact> 0.67953501E+04</totfact>
</mgrwt>
</event>
<event>
 7    0  0.4725730E-002  0.4551189E+03  0.7546771E-02  0.1026206E+00
         21   -1    0    0  502  501  0.00000000000E+00  0.00000000000E+00  0.51335117859E+03  0.51335117859E+03  0.00000000000E+00 0.  1.
         21   -1    0    0  501  502 -0.00000000000E+00 -0.00000000000E+00 -0.10087303892E+03  0.10087303892E+03  0.00000000000E+00 0.  1.
      99926    2    1    2    0    0  0.00000000000E+00  0.00000000000E+00  0.41247813968E+03  0.61422421751E+03  0.45511885663E+03 0.  0.
      99925    2    3    3    0    0 -0.10852829099E+03 -0.31379829449E+02  0.24372518782E+03  0.37571184780E+03  0.26266774024E+03 0.  0.
         25    1    3    3    0    0  0.10852829099E+03  0.31379829449E+02  0.16875295186E+03  0.23851236970E+03  0.12509000000E+03 0.  0.
         25    1    4    4    0    0 -0.18825063540E+02 -0.15810605247E+01  0.83765296127E+02  0.15172677979E+03  0.12509000000E+03 0.  0.
         25    1    4    4    0    0 -0.89703227447E+02 -0.29798768924E+02  0.15995989169E+03  0.22398506802E+03  0.12509000000E+03 0.  0.
<mgrwt>
<rscale>  2 0.45511886E+03</rscale>
<asrwt>0</asrwt>
<pdfrwt beam="1">  1       21 0.75492819E-01 0.45511886E+03</pdfrwt>
<pdfrwt beam="2">  1       21 0.14834271E-01 0.45511886E+03</pdfrwt>
<totfact> 0.57756928E+04</totfact>
</mgrwt>
</event>
<event>
 7    0  0.4725730E-002  0.4503701E+03  0.7546771E-02  0.1027612E+00
         21   -1    0    0  502  501  0.00000000000E+00  0.00000000000E+00  0.35003112242E+03  0.35003112242E+03  0.00000000000E+00 0.  1.
         21   -1    0    0  501  502 -0.00000000000E+00 -0.00000000000E+00 -0.14486799451E+03  0.14486799451E+03  0.00000000000E+00 0.  1.
      99926    2    1    2    0    0  0.00000000000E+00  0.00000000000E+00  0.20516312791E+03  0.49489911693E+03  0.45037009990E+03 0.  0.
      99925    2    3    3    0    0 -0.64809684022E+02 -0.44106507393E+02  0.46809810397E+02  0.27840671428E+03  0.26300848098E+03 0.  0.
         25    1    3    3    0    0  0.64809684022E+02  0.44106507393E+02  0.15835331751E+03  0.21649240265E+03  0.12509000000E+03 0.  0.
         25    1    4    4    0    0 -0.37862920073E+02 -0.36200188347E+02  0.62355506539E+02  0.14926410033E+03  0.12509000000E+03 0.  0.
         25    1    4    4    0    0 -0.26946763948E+02 -0.79063190464E+01 -0.15545696142E+02  0.12914261395E+03  0.12509000000E+03 0.  0.
<mgrwt>
<rscale>  2 0.45037010E+03</rscale>
<asrwt>0</asrwt>
<pdfrwt beam="1">  1       21 0.51475165E-01 0.45037010E+03</pdfrwt>
<pdfrwt beam="2">  1       21 0.21304117E-01 0.45037010E+03</pdfrwt>
<totfact> 0.68099203E+04</totfact>
</mgrwt>
</event>
<event>
 7    0  0.4725730E-002  0.4508297E+03  0.7546771E-02  0.1027475E+00
         21   -1    0    0  502  501  0.00000000000E+00  0.00000000000E+00  0.11402200205E+03  0.11402200205E+03  0.00000000000E+00 0. -1.
         21   -1    0    0  501  502 -0.00000000000E+00 -0.00000000000E+00 -0.44563195286E+03  0.44563195286E+03  0.00000000000E+00 0. -1.
      99926    2    1    2    0    0  0.00000000000E+00 -0.17763568394E-14 -0.33160995081E+03  0.55965395491E+03  0.45082966824E+03 0.  0.
      99925    2    3    3    0    0  0.77653366038E+02 -0.11883868672E+02 -0.11513261679E+03  0.29758294194E+03  0.26292359402E+03 0.  0.
         25    1    4    4    0    0  0.27257288626E+02  0.26663057605E+02 -0.32348451415E+02  0.13471380342E+03  0.12509000000E+03 0.  0.
         25    1    3    3    0    0 -0.77653366038E+02  0.11883868672E+02 -0.21647733402E+03  0.26207101297E+03  0.12509000000E+03 0.  0.
         25    1    4    4    0    0  0.50396077412E+02 -0.38546926277E+02 -0.82784165372E+02  0.16286913851E+03  0.12509000000E+03 0.  0.
<mgrwt>
<rscale>  2 0.45082967E+03</rscale>
<asrwt>0</asrwt>
<pdfrwt beam="1">  1       21 0.16767942E-01 0.45082967E+03</pdfrwt>
<pdfrwt beam="2">  1       21 0.65534109E-01 0.45082967E+03</pdfrwt>
<totfact> 0.63295258E+04</totfact>
</mgrwt>
</event>
<event>
 7    0  0.4725730E-002  0.4466488E+03  0.7546771E-02  0.1028726E+00
         21   -1    0    0  502  501  0.00000000000E+00  0.00000000000E+00  0.36847651254E+03  0.36847651254E+03  0.00000000000E+00 0. -1.
         21   -1    0    0  501  502 -0.00000000000E+00 -0.00000000000E+00 -0.13535130780E+03  0.13535130780E+03  0.00000000000E+00 0. -1.
      99926    2    1    2    0    0  0.00000000000E+00  0.71054273576E-14  0.23312520474E+03  0.50382782034E+03  0.44664875625E+03 0.  0.
      99925    2    3    3    0    0 -0.80015213895E+02  0.45071116079E+02  0.89794145810E+02  0.29258118601E+03  0.26288195417E+03 0.  0.
         25    1    3    3    0    0  0.80015213895E+02 -0.45071116079E+02  0.14333105893E+03  0.21124663432E+03  0.12509000000E+03 0.  0.
         25    1    4    4    0    0 -0.13790373884E+02  0.75954936354E+01  0.11642441482E+02  0.12661327134E+03  0.12509000000E+03 0.  0.
         25    1    4    4    0    0 -0.66224840012E+02  0.37475622444E+02  0.78151704329E+02  0.16596791468E+03  0.12509000000E+03 0.  0.
<mgrwt>
<rscale>  2 0.44664876E+03</rscale>
<asrwt>0</asrwt>
<pdfrwt beam="1">  1       21 0.54187722E-01 0.44664876E+03</pdfrwt>
<pdfrwt beam="2">  1       21 0.19904604E-01 0.44664876E+03</pdfrwt>
<totfact> 0.69495792E+04</totfact>
</mgrwt>
</event>
<event>
 7    0  0.4725730E-002  0.4571459E+03  0.7546771E-02  0.1025612E+00
         21   -1    0    0  502  501  0.00000000000E+00  0.00000000000E+00  0.29256942725E+03  0.29256942725E+03  0.00000000000E+00 0. -1.
         21   -1    0    0  501  502 -0.00000000000E+00 -0.00000000000E+00 -0.17857505207E+03  0.17857505207E+03  0.00000000000E+00 0. -1.
      99926    2    1    2    0    0  0.00000000000E+00  0.00000000000E+00  0.11399437518E+03  0.47114447932E+03  0.45714593165E+03 0.  0.
      99925    2    3    3    0    0  0.10334308693E+03  0.33207016278E+02  0.11446806861E+03  0.30552373173E+03  0.26164730531E+03 0.  0.
         25    1    4    4    0    0  0.90590732344E+02  0.22110235621E+02  0.76113963209E+02  0.17359834907E+03  0.12509000000E+03 0.  0.
         25    1    4    4    0    0  0.12752354587E+02  0.11096780657E+02  0.38354105403E+02  0.13192538266E+03  0.12509000000E+03 0.  0.
         25    1    3    3    0    0 -0.10334308693E+03 -0.33207016278E+02 -0.47369343643E+00  0.16562074759E+03  0.12509000000E+03 0.  0.
<mgrwt>
<rscale>  2 0.45714593E+03</rscale>
<asrwt>0</asrwt>
<pdfrwt beam="1">  1       21 0.43024916E-01 0.45714593E+03</pdfrwt>
<pdfrwt beam="2">  1       21 0.26261037E-01 0.45714593E+03</pdfrwt>
<totfact> 0.66216283E+04</totfact>
</mgrwt>
</event>
<event>
 7    0  0.4725730E-002  0.4504750E+03  0.7546771E-02  0.1027580E+00
         21   -1    0    0  502  501  0.00000000000E+00  0.00000000000E+00  0.11267492229E+03  0.11267492229E+03  0.00000000000E+00 0.  1.
         21   -1    0    0  501  502 -0.00000000000E+00 -0.00000000000E+00 -0.45025037255E+03  0.45025037255E+03  0.00000000000E+00 0.  1.
      99926    2    1    2    0    0 -0.71054273576E-14  0.00000000000E+00 -0.33757545026E+03  0.56292529484E+03  0.45047497483E+03 0.  0.
      99925    2    3    3    0    0 -0.42496036896E+02 -0.33976966676E+02 -0.95785860082E+02  0.28531034309E+03  0.26318570148E+03 0.  0.
         25    1    4    4    0    0 -0.47856001606E+02  0.63111540497E+01 -0.26588434947E+02  0.13669118672E+03  0.12509000000E+03 0.  0.
         25    1    4    4    0    0  0.53599647098E+01 -0.40288120726E+02 -0.69197425135E+02  0.14861915636E+03  0.12509000000E+03 0.  0.
         25    1    3    3    0    0  0.42496036896E+02  0.33976966676E+02 -0.24178959018E+03  0.27761495175E+03  0.12509000000E+03 0.  0.
<mgrwt>
<rscale>  2 0.45047497E+03</rscale>
<asrwt>0</asrwt>
<pdfrwt beam="1">  1       21 0.16569842E-01 0.45047497E+03</pdfrwt>
<pdfrwt beam="2">  1       21 0.66213290E-01 0.45047497E+03</pdfrwt>
<totfact> 0.63253998E+04</totfact>
</mgrwt>
</event>
<event>
 7    0  0.4725730E-002  0.4526413E+03  0.7546771E-02  0.1026937E+00
         21   -1    0    0  502  501  0.00000000000E+00  0.00000000000E+00  0.11867205214E+03  0.11867205214E+03  0.00000000000E+00 0.  1.
         21   -1    0    0  501  502 -0.00000000000E+00 -0.00000000000E+00 -0.43161831635E+03  0.43161831635E+03  0.00000000000E+00 0.  1.
      99926    2    1    2    0    0  0.00000000000E+00  0.00000000000E+00 -0.31294626421E+03  0.55029036849E+03  0.45264127669E+03 0.  0.
      99925    2    3    3    0    0  0.10522469564E+03 -0.24702262723E+02 -0.16695955117E+03  0.32974090274E+03  0.26300405483E+03 0.  0.
         25    1    4    4    0    0  0.47623222575E+02 -0.21966789250E+02 -0.37542274436E+02  0.14073891298E+03  0.12509000000E+03 0.  0.
         25    1    3    3    0    0 -0.10522469564E+03  0.24702262723E+02 -0.14598671305E+03  0.22054946575E+03  0.12509000000E+03 0.  0.
         25    1    4    4    0    0  0.57601473062E+02 -0.27354734726E+01 -0.12941727673E+03  0.18900198975E+03  0.12509000000E+03 0.  0.
<mgrwt>
<rscale>  2 0.45264128E+03</rscale>
<asrwt>0</asrwt>
<pdfrwt beam="1">  1       21 0.17451772E-01 0.45264128E+03</pdfrwt>
<pdfrwt beam="2">  1       21 0.63473282E-01 0.45264128E+03</pdfrwt>
<totfact> 0.63015093E+04</totfact>
</mgrwt>
</event>
<event>
 7    0  0.4725730E-002  0.4485747E+03  0.7546771E-02  0.1028148E+00
         21   -1    0    0  502  501  0.00000000000E+00  0.00000000000E+00  0.19153795046E+03  0.19153795046E+03  0.00000000000E+00 0. -1.
         21   -1    0    0  501  502 -0.00000000000E+00 -0.00000000000E+00 -0.26263628388E+03  0.26263628388E+03  0.00000000000E+00 0. -1.
      99926    2    1    2    0    0  0.00000000000E+00  0.00000000000E+00 -0.71098333427E+02  0.45417423434E+03  0.44857470071E+03 0.  0.
      99925    2    3    3    0    0 -0.49136521300E+02 -0.90845728588E+02 -0.16740795794E+02  0.28309064621E+03  0.26304508283E+03 0.  0.
         25    1    3    3    0    0  0.49136521300E+02  0.90845728588E+02 -0.54357537633E+02  0.17108358813E+03  0.12509000000E+03 0.  0.
         25    1    4    4    0    0 -0.57888475037E+02 -0.44089015011E+02  0.15174469926E+02  0.14550838266E+03  0.12509000000E+03 0.  0.
         25    1    4    4    0    0  0.87519537366E+01 -0.46756713577E+02 -0.31915265720E+02  0.13758226355E+03  0.12509000000E+03 0.  0.
<mgrwt>
<rscale>  2 0.44857470E+03</rscale>
<asrwt>0</asrwt>
<pdfrwt beam="1">  1       21 0.28167346E-01 0.44857470E+03</pdfrwt>
<pdfrwt beam="2">  1       21 0.38622983E-01 0.44857470E+03</pdfrwt>
<totfact> 0.72238255E+04</totfact>
</mgrwt>
</event>
<event>
 7    0  0.4725730E-002  0.4524626E+03  0.7546771E-02  0.1026990E+00
         21   -1    0    0  502  501  0.00000000000E+00  0.00000000000E+00  0.26456904064E+03  0.26456904064E+03  0.00000000000E+00 0. -1.
         21   -1    0    0  501  502 -0.00000000000E+00 -0.00000000000E+00 -0.19344893400E+03  0.19344893400E+03  0.00000000000E+00 0. -1.
      99926    2    1    2    0    0  0.88817841970E-15 -0.14210854715E-13  0.71120106638E+02  0.45801797464E+03  0.45246259020E+03 0.  0.
      99925    2    3    3    0    0 -0.71361411474E+01  0.10470799511E+03  0.89363281423E+01  0.28329242082E+03  0.26298298231E+03 0.  0.
         25    1    4    4    0    0  0.24661121935E+01  0.93855591110E+01  0.81038462871E+01  0.12572728763E+03  0.12509000000E+03 0.  0.
         25    1    3    3    0    0  0.71361411474E+01 -0.10470799511E+03  0.62183778495E+02  0.17472555382E+03  0.12509000000E+03 0.  0.
         25    1    4    4    0    0 -0.96022533409E+01  0.95322435995E+02  0.83248185525E+00  0.15756513320E+03  0.12509000000E+03 0.  0.
<mgrwt>
<rscale>  2 0.45246259E+03</rscale>
<asrwt>0</asrwt>
<pdfrwt beam="1">  1       21 0.38907212E-01 0.45246259E+03</pdfrwt>
<pdfrwt beam="2">  1       21 0.28448373E-01 0.45246259E+03</pdfrwt>
<totfact> 0.69725463E+04</totfact>
</mgrwt>
</event>
<event>
 7    0  0.4725730E-002  0.4532513E+03  0.7546771E-02  0.1026757E+00
         21   -1    0    0  502  501  0.00000000000E+00  0.00000000000E+00  0.26409296086E+03  0.26409296086E+03  0.00000000000E+00 0. -1.
         21   -1    0    0  501  502 -0.00000000000E+00 -0.00000000000E+00 -0.19447389090E+03  0.19447389090E+03  0.00000000000E+00 0. -1.
      99926    2    1    2    0    0  0.00000000000E+00 -0.88817841970E-15  0.69619069952E+02  0.45856685176E+03  0.45325130185E+03 0.  0.
      99925    2    3    3    0    0  0.97964966697E+02  0.57149079453E+01  0.96600521988E+02  0.29730525768E+03  0.26349375803E+03 0.  0.
         25    1    3    3    0    0 -0.97964966697E+02 -0.57149079453E+01 -0.26981452036E+02  0.16126159408E+03  0.12509000000E+03 0.  0.
         25    1    4    4    0    0  0.30751113219E+02 -0.15410162902E+02  0.80881180454E+02  0.15288027190E+03  0.12509000000E+03 0.  0.
         25    1    4    4    0    0  0.67213853478E+02  0.21125070847E+02  0.15719341534E+02  0.14442498577E+03  0.12509000000E+03 0.  0.
<mgrwt>
<rscale>  2 0.45325130E+03</rscale>
<asrwt>0</asrwt>
<pdfrwt beam="1">  1       21 0.38837200E-01 0.45325130E+03</pdfrwt>
<pdfrwt beam="2">  1       21 0.28599102E-01 0.45325130E+03</pdfrwt>
<totfact> 0.69245747E+04</totfact>
</mgrwt>
</event>
<event>
 7    0  0.4725730E-002  0.4240853E+03  0.7546771E-02  0.1035745E+00
         21   -1    0    0  502  501  0.00000000000E+00  0.00000000000E+00  0.11040442507E+03  0.11040442507E+03  0.00000000000E+00 0.  1.
         21   -1    0    0  501  502 -0.00000000000E+00 -0.00000000000E+00 -0.40724902516E+03  0.40724902516E+03  0.00000000000E+00 0.  1.
      99926    2    1    2    0    0  0.00000000000E+00  0.35527136788E-14 -0.29684460009E+03  0.51765345023E+03  0.42408534274E+03 0.  0.
      99925    2    3    3    0    0 -0.65640372720E+02 -0.31405411221E+02 -0.14966633730E+03  0.31124631003E+03  0.26301957076E+03 0.  0.
         25    1    3    3    0    0  0.65640372720E+02  0.31405411221E+02 -0.14717826279E+03  0.20640714019E+03  0.12509000000E+03 0.  0.
         25    1    4    4    0    0 -0.23134956129E+02 -0.52130269478E+02 -0.58557352238E+02  0.14942979218E+03  0.12509000000E+03 0.  0.
         25    1    4    4    0    0 -0.42505416591E+02  0.20724858257E+02 -0.91108985063E+02  0.16181651785E+03  0.12509000000E+03 0.  0.
<mgrwt>
<rscale>  2 0.42408534E+03</rscale>
<asrwt>0</asrwt>
<pdfrwt beam="1">  1       21 0.16235945E-01 0.42408534E+03</pdfrwt>
<pdfrwt beam="2">  1       21 0.59889563E-01 0.42408534E+03</pdfrwt>
<totfact> 0.82463561E+04</totfact>
</mgrwt>
</event>
<event>
 7    0  0.4725730E-002  0.4720795E+03  0.7546771E-02  0.1021335E+00
         21   -1    0    0  502  501  0.00000000000E+00  0.00000000000E+00  0.28222872448E+03  0.28222872448E+03  0.00000000000E+00 0.  1.
         21   -1    0    0  501  502 -0.00000000000E+00 -0.00000000000E+00 -0.19740999976E+03  0.19740999976E+03  0.00000000000E+00 0.  1.
      99926    2    1    2    0    0  0.00000000000E+00 -0.14210854715E-13  0.84818724721E+02  0.47963872423E+03  0.47207953749E+03 0.  0.
      99925    2    3    3    0    0 -0.42779911666E+02 -0.75661971259E+02  0.14882982307E+03  0.31441226283E+03  0.26296368579E+03 0.  0.
         25    1    4    4    0    0 -0.29980048923E+02 -0.45898579505E+02  0.12047829414E+03  0.18212086754E+03  0.12509000000E+03 0.  0.
         25    1    3    3    0    0  0.42779911666E+02  0.75661971259E+02 -0.64011098351E+02  0.16522646141E+03  0.12509000000E+03 0.  0.
         25    1    4    4    0    0 -0.12799862742E+02 -0.29763391754E+02  0.28351528934E+02  0.13229139529E+03  0.12509000000E+03 0.  0.
<mgrwt>
<rscale>  2 0.47207954E+03</rscale>
<asrwt>0</asrwt>
<pdfrwt beam="1">  1       21 0.41504225E-01 0.47207954E+03</pdfrwt>
<pdfrwt beam="2">  1       21 0.29030882E-01 0.47207954E+03</pdfrwt>
<totfact> 0.58396648E+04</totfact>
</mgrwt>
</event>
<event>
 7    0  0.4725730E-002  0.4518975E+03  0.7546771E-02  0.1027158E+00
         21   -1    0    0  502  501  0.00000000000E+00  0.00000000000E+00  0.93972829867E+03  0.93972829867E+03  0.00000000000E+00 0.  1.
         21   -1    0    0  501  502 -0.00000000000E+00 -0.00000000000E+00 -0.54327229808E+02  0.54327229808E+02  0.00000000000E+00 0.  1.
      99926    2    1    2    0    0  0.00000000000E+00  0.00000000000E+00  0.88540106886E+03  0.99405552848E+03  0.45189748943E+03 0.  0.
      99925    2    3    3    0    0 -0.79716862985E+02  0.39501739127E+02  0.41275434244E+03  0.49710723969E+03  0.26236290688E+03 0.  0.
         25    1    4    4    0    0 -0.92639119750E+01 -0.64250635606E+01  0.20537348252E+03  0.24073403774E+03  0.12509000000E+03 0.  0.
         25    1    3    3    0    0  0.79716862985E+02 -0.39501739127E+02  0.47264672642E+03  0.49694828879E+03  0.12509000000E+03 0.  0.
         25    1    4    4    0    0 -0.70452951010E+02  0.45926802688E+02  0.20738085993E+03  0.25637320194E+03  0.12509000000E+03 0.  0.
<mgrwt>
<rscale>  2 0.45189749E+03</rscale>
<asrwt>0</asrwt>
<pdfrwt beam="1">  1       21 0.13819533E+00 0.45189749E+03</pdfrwt>
<pdfrwt beam="2">  1       21 0.79892991E-02 0.45189749E+03</pdfrwt>
<totfact> 0.40368148E+04</totfact>
</mgrwt>
</event>
<event>
 7    0  0.4725730E-002  0.4580047E+03  0.7546771E-02  0.1025361E+00
         21   -1    0    0  502  501  0.00000000000E+00  0.00000000000E+00  0.69672593000E+03  0.69672593000E+03  0.00000000000E+00 0.  1.
         21   -1    0    0  501  502 -0.00000000000E+00 -0.00000000000E+00 -0.75269314200E+02  0.75269314200E+02  0.00000000000E+00 0.  1.
      99926    2    1    2    0    0  0.00000000000E+00  0.00000000000E+00  0.62145661580E+03  0.77199524420E+03  0.45800472896E+03 0.  0.
      99925    2    3    3    0    0 -0.46542987126E+02 -0.68367767644E+02  0.52691383158E+03  0.59472074673E+03  0.26308587835E+03 0.  0.
         25    1    3    3    0    0  0.46542987126E+02  0.68367767644E+02  0.94542784224E+02  0.17727449747E+03  0.12509000000E+03 0.  0.
         25    1    4    4    0    0 -0.29990318530E+02 -0.35221584490E+02  0.17953853134E+03  0.22365502801E+03  0.12509000000E+03 0.  0.
         25    1    4    4    0    0 -0.16552668597E+02 -0.33146183154E+02  0.34737530024E+03  0.37106571872E+03  0.12509000000E+03 0.  0.
<mgrwt>
<rscale>  2 0.45800473E+03</rscale>
<asrwt>0</asrwt>
<pdfrwt beam="1">  1       21 0.10245969E+00 0.45800473E+03</pdfrwt>
<pdfrwt beam="2">  1       21 0.11069017E-01 0.45800473E+03</pdfrwt>
<totfact> 0.48006795E+04</totfact>
</mgrwt>
</event>
<event>
 7    0  0.4725730E-002  0.4543572E+03  0.7546771E-02  0.1026431E+00
         21   -1    0    0  502  501  0.00000000000E+00  0.00000000000E+00  0.76155289498E+03  0.76155289498E+03  0.00000000000E+00 0. -1.
         21   -1    0    0  501  502 -0.00000000000E+00 -0.00000000000E+00 -0.67769561573E+02  0.67769561573E+02  0.00000000000E+00 0. -1.
      99926    2    1    2    0    0  0.53290705182E-14  0.00000000000E+00  0.69378333340E+03  0.82932245655E+03  0.45435715382E+03 0.  0.
      99925    2    3    3    0    0  0.85028396184E+01 -0.36578804875E+02  0.24065937062E+03  0.35775152763E+03  0.26202846336E+03 0.  0.
         25    1    3    3    0    0 -0.85028396184E+01  0.36578804875E+02  0.45312396279E+03  0.47157092892E+03  0.12509000000E+03 0.  0.
         25    1    4    4    0    0 -0.29662613628E+02 -0.24081669031E+02  0.14475155438E+03  0.19509053802E+03  0.12509000000E+03 0.  0.
         25    1    4    4    0    0  0.38165453246E+02 -0.12497135844E+02  0.95907816241E+02  0.16266098961E+03  0.12509000000E+03 0.  0.
<mgrwt>
<rscale>  2 0.45435715E+03</rscale>
<asrwt>0</asrwt>
<pdfrwt beam="1">  1       21 0.11199307E+00 0.45435715E+03</pdfrwt>
<pdfrwt beam="2">  1       21 0.99661125E-02 0.45435715E+03</pdfrwt>
<totfact> 0.46613664E+04</totfact>
</mgrwt>
</event>
<event>
 7    0  0.4725730E-002  0.4528356E+03  0.7546771E-02  0.1026880E+00
         21   -1    0    0  502  501  0.00000000000E+00  0.00000000000E+00  0.33517357670E+03  0.33517357670E+03  0.00000000000E+00 0. -1.
         21   -1    0    0  501  502 -0.00000000000E+00 -0.00000000000E+00 -0.15295063208E+03  0.15295063208E+03  0.00000000000E+00 0. -1.
      99926    2    1    2    0    0  0.00000000000E+00  0.00000000000E+00  0.18222294463E+03  0.48812420878E+03  0.45283555696E+03 0.  0.
      99925    2    3    3    0    0 -0.82628854396E+02  0.74003107475E+02  0.12131494754E+03  0.31018804128E+03  0.26305002749E+03 0.  0.
         25    1    4    4    0    0 -0.69320532778E+01  0.10794263223E+02  0.44934677910E+02  0.13353352710E+03  0.12509000000E+03 0.  0.
         25    1    4    4    0    0 -0.75696801119E+02  0.63208844252E+02  0.76380269631E+02  0.17665451418E+03  0.12509000000E+03 0.  0.
         25    1    3    3    0    0  0.82628854396E+02 -0.74003107475E+02  0.60907997085E+02  0.17793616750E+03  0.12509000000E+03 0.  0.
<mgrwt>
<rscale>  2 0.45283556E+03</rscale>
<asrwt>0</asrwt>
<pdfrwt beam="1">  1       21 0.49290232E-01 0.45283556E+03</pdfrwt>
<pdfrwt beam="2">  1       21 0.22492740E-01 0.45283556E+03</pdfrwt>
<totfact> 0.67261638E+04</totfact>
</mgrwt>
</event>
<event>
 7    0  0.4725730E-002  0.4547370E+03  0.7546771E-02  0.1026319E+00
         21   -1    0    0  502  501  0.00000000000E+00  0.00000000000E+00  0.53284258443E+02  0.53284258443E+02  0.00000000000E+00 0.  1.
         21   -1    0    0  501  502 -0.00000000000E+00 -0.00000000000E+00 -0.97020105957E+03  0.97020105957E+03  0.00000000000E+00 0.  1.
      99926    2    1    2    0    0  0.00000000000E+00 -0.71054273576E-14 -0.91691680113E+03  0.10234853180E+04  0.45473704050E+03 0.  0.
      99925    2    3    3    0    0  0.27115871286E+02  0.36583659120E+02 -0.80973843581E+03  0.85258082807E+03  0.26295265615E+03 0.  0.
         25    1    4    4    0    0 -0.12104734242E+01  0.35276702161E+02 -0.51489908195E+03  0.53105035887E+03  0.12509000000E+03 0.  0.
         25    1    4    4    0    0  0.28326344710E+02  0.13069569590E+01 -0.29483935386E+03  0.32153046920E+03  0.12509000000E+03 0.  0.
         25    1    3    3    0    0 -0.27115871286E+02 -0.36583659120E+02 -0.10717836532E+03  0.17090448994E+03  0.12509000000E+03 0.  0.
<mgrwt>
<rscale>  2 0.45473704E+03</rscale>
<asrwt>0</asrwt>
<pdfrwt beam="1">  1       21 0.78359200E-02 0.45473704E+03</pdfrwt>
<pdfrwt beam="2">  1       21 0.14267663E+00 0.45473704E+03</pdfrwt>
<totfact> 0.38344241E+04</totfact>
</mgrwt>
</event>
<event>
 7    0  0.4725730E-002  0.4608439E+03  0.7546771E-02  0.1024537E+00
         21   -1    0    0  502  501  0.00000000000E+00  0.00000000000E+00  0.65959016740E+02  0.65959016740E+02  0.00000000000E+00 0.  1.
         21   -1    0    0  501  502 -0.00000000000E+00 -0.00000000000E+00 -0.80495846873E+03  0.80495846873E+03  0.00000000000E+00 0.  1.
      99926    2    1    2    0    0  0.00000000000E+00 -0.17763568394E-14 -0.73899945199E+03  0.87091748548E+03  0.46084387428E+03 0.  0.
      99925    2    3    3    0    0  0.11690613180E+03 -0.38713681997E+01 -0.42463465883E+03  0.51293038735E+03  0.26287061008E+03 0.  0.
         25    1    4    4    0    0  0.26540552989E+02  0.16378025858E+02 -0.23057191146E+03  0.26416577208E+03  0.12509000000E+03 0.  0.
         25    1    3    3    0    0 -0.11690613180E+03  0.38713681997E+01 -0.31436479317E+03  0.35798709813E+03  0.12509000000E+03 0.  0.
         25    1    4    4    0    0  0.90365578809E+02 -0.20249394057E+02 -0.19406274737E+03  0.24876461527E+03  0.12509000000E+03 0.  0.
<mgrwt>
<rscale>  2 0.46084387E+03</rscale>
<asrwt>0</asrwt>
<pdfrwt beam="1">  1       21 0.96998561E-02 0.46084387E+03</pdfrwt>
<pdfrwt beam="2">  1       21 0.11837624E+00 0.46084387E+03</pdfrwt>
<totfact> 0.42534278E+04</totfact>
</mgrwt>
</event>
<event>
 7    0  0.4725730E-002  0.4539846E+03  0.7546771E-02  0.1026540E+00
         21   -1    0    0  502  501  0.00000000000E+00  0.00000000000E+00  0.18347021694E+04  0.18347021694E+04  0.00000000000E+00 0. -1.
         21   -1    0    0  501  502 -0.00000000000E+00 -0.00000000000E+00 -0.28083849652E+02  0.28083849652E+02  0.00000000000E+00 0. -1.
      99926    2    1    2    0    0  0.00000000000E+00  0.00000000000E+00  0.18066183198E+04  0.18627860191E+04  0.45398458072E+03 0.  0.
      99925    2    3    3    0    0 -0.52084412895E+02 -0.63501492787E+02  0.14524940685E+04  0.14783426304E+04  0.26270266120E+03 0.  0.
         25    1    3    3    0    0  0.52084412895E+02  0.63501492787E+02  0.35412425127E+03  0.38444338867E+03  0.12509000000E+03 0.  0.
         25    1    4    4    0    0  0.31504429525E+01 -0.26662415468E+01  0.70231461290E+03  0.71337953273E+03  0.12509000000E+03 0.  0.
         25    1    4    4    0    0 -0.55234855847E+02 -0.60835251240E+02  0.75017945562E+03  0.76496309769E+03  0.12509000000E+03 0.  0.
<mgrwt>
<rscale>  2 0.45398458E+03</rscale>
<asrwt>0</asrwt>
<pdfrwt beam="1">  1       21 0.26980906E+00 0.45398458E+03</pdfrwt>
<pdfrwt beam="2">  1       21 0.41299791E-02 0.45398458E+03</pdfrwt>
<totfact> 0.16209591E+04</totfact>
</mgrwt>
</event>
<event>
 7    0  0.4725730E-002  0.4545352E+03  0.7546771E-02  0.1026378E+00
         21   -1    0    0  502  501  0.00000000000E+00  0.00000000000E+00  0.75250714859E+03  0.75250714859E+03  0.00000000000E+00 0.  1.
         21   -1    0    0  501  502 -0.00000000000E+00 -0.00000000000E+00 -0.68637970854E+02  0.68637970854E+02  0.00000000000E+00 0.  1.
      99926    2    1    2    0    0  0.00000000000E+00  0.00000000000E+00  0.68386917773E+03  0.82114511944E+03  0.45453520758E+03 0.  0.
      99925    2    3    3    0    0  0.77663341704E+02  0.48454570013E+02  0.54941580755E+03  0.61595092641E+03  0.26297979801E+03 0.  0.
         25    1    4    4    0    0  0.17490516530E+02 -0.83455105509E+01  0.28749488753E+03  0.31412797419E+03  0.12509000000E+03 0.  0.
         25    1    3    3    0    0 -0.77663341704E+02 -0.48454570013E+02  0.13445337019E+03  0.20519419303E+03  0.12509000000E+03 0.  0.
         25    1    4    4    0    0  0.60172825174E+02  0.56800080564E+02  0.26192092002E+03  0.30182295222E+03  0.12509000000E+03 0.  0.
<mgrwt>
<rscale>  2 0.45453521E+03</rscale>
<asrwt>0</asrwt>
<pdfrwt beam="1">  1       21 0.11066281E+00 0.45453521E+03</pdfrwt>
<pdfrwt beam="2">  1       21 0.10093820E-01 0.45453521E+03</pdfrwt>
<totfact> 0.46929922E+04</totfact>
</mgrwt>
</event>
<event>
 7    0  0.4725730E-002  0.4578485E+03  0.7546771E-02  0.1025407E+00
         21   -1    0    0  502  501  0.00000000000E+00  0.00000000000E+00  0.88778652796E+02  0.88778652796E+02  0.00000000000E+00 0.  1.
         21   -1    0    0  501  502 -0.00000000000E+00 -0.00000000000E+00 -0.59030316337E+03  0.59030316337E+03  0.00000000000E+00 0.  1.
      99926    2    1    2    0    0  0.00000000000E+00  0.26645352591E-14 -0.50152451057E+03  0.67908181617E+03  0.45784853210E+03 0.  0.
      99925    2    3    3    0    0 -0.77429193218E+02 -0.68225606241E+01 -0.18755907517E+03  0.33229134626E+03  0.26305380594E+03 0.  0.
         25    1    4    4    0    0 -0.42742828692E+02  0.29938054851E+02 -0.12170767144E+03  0.18216339347E+03  0.12509000000E+03 0.  0.
         25    1    4    4    0    0 -0.34686364526E+02 -0.36760615475E+02 -0.65851403738E+02  0.15012795279E+03  0.12509000000E+03 0.  0.
         25    1    3    3    0    0  0.77429193218E+02  0.68225606241E+01 -0.31396543540E+03  0.34679046991E+03  0.12509000000E+03 0.  0.
<mgrwt>
<rscale>  2 0.45784853E+03</rscale>
<asrwt>0</asrwt>
<pdfrwt beam="1">  1       21 0.13055685E-01 0.45784853E+03</pdfrwt>
<pdfrwt beam="2">  1       21 0.86809286E-01 0.45784853E+03</pdfrwt>
<totfact> 0.52857551E+04</totfact>
</mgrwt>
</event>
<event>
 7    0  0.4725730E-002  0.4608348E+03  0.7546771E-02  0.1024539E+00
         21   -1    0    0  502  501  0.00000000000E+00  0.00000000000E+00  0.30796729149E+03  0.30796729149E+03  0.00000000000E+00 0.  1.
         21   -1    0    0  501  502 -0.00000000000E+00 -0.00000000000E+00 -0.17239551648E+03  0.17239551648E+03  0.00000000000E+00 0.  1.
      99926    2    1    2    0    0  0.00000000000E+00  0.00000000000E+00  0.13557177501E+03  0.48036280798E+03  0.46083480892E+03 0.  0.
      99925    2    3    3    0    0  0.21717029665E+02  0.76132924184E+02 -0.68979531303E+01  0.27490482430E+03  0.26316768256E+03 0.  0.
         25    1    4    4    0    0  0.22235074352E+02 -0.17237530154E+01 -0.10721108469E+02  0.12751399971E+03  0.12509000000E+03 0.  0.
         25    1    4    4    0    0 -0.51804468697E+00  0.77856677199E+02  0.38231553385E+01  0.14739082458E+03  0.12509000000E+03 0.  0.
         25    1    3    3    0    0 -0.21717029665E+02 -0.76132924184E+02  0.14246972814E+03  0.20545798368E+03  0.12509000000E+03 0.  0.
<mgrwt>
<rscale>  2 0.46083481E+03</rscale>
<asrwt>0</asrwt>
<pdfrwt beam="1">  1       21 0.45289308E-01 0.46083481E+03</pdfrwt>
<pdfrwt beam="2">  1       21 0.25352282E-01 0.46083481E+03</pdfrwt>
<totfact> 0.63673614E+04</totfact>
</mgrwt>
</event>
<event>
 7    0  0.4725730E-002  0.4592440E+03  0.7546771E-02  0.1025001E+00
         21   -1    0    0  502  501  0.00000000000E+00  0.00000000000E+00  0.35445537851E+03  0.35445537851E+03  0.00000000000E+00 0. -1.
         21   -1    0    0  501  502 -0.00000000000E+00 -0.00000000000E+00 -0.14875288313E+03  0.14875288313E+03  0.00000000000E+00 0. -1.
      99926    2    1    2    0    0 -0.35527136788E-14  0.00000000000E+00  0.20570249537E+03  0.50320826164E+03  0.45924398524E+03 0.  0.
      99925    2    3    3    0    0  0.18434104605E+02  0.10941306132E+03  0.16954333226E+03  0.33213509782E+03  0.26316866738E+03 0.  0.
         25    1    4    4    0    0 -0.77454383701E+01  0.34767043057E+02  0.11741169464E+03  0.17521915773E+03  0.12509000000E+03 0.  0.
         25    1    3    3    0    0 -0.18434104605E+02 -0.10941306132E+03  0.36159163115E+02  0.17107316382E+03  0.12509000000E+03 0.  0.
         25    1    4    4    0    0  0.26179542975E+02  0.74646018267E+02  0.52131637619E+02  0.15691594009E+03  0.12509000000E+03 0.  0.
<mgrwt>
<rscale>  2 0.45924399E+03</rscale>
<asrwt>0</asrwt>
<pdfrwt beam="1">  1       21 0.52125791E-01 0.45924399E+03</pdfrwt>
<pdfrwt beam="2">  1       21 0.21875424E-01 0.45924399E+03</pdfrwt>
<totfact> 0.62899990E+04</totfact>
</mgrwt>
</event>
<event>
 7    0  0.4725730E-002  0.4472046E+03  0.7546771E-02  0.1028559E+00
         21   -1    0    0  502  501  0.00000000000E+00  0.00000000000E+00  0.17513760355E+04  0.17513760355E+04  0.00000000000E+00 0. -1.
         21   -1    0    0  501  502 -0.00000000000E+00 -0.00000000000E+00 -0.28547826779E+02  0.28547826779E+02  0.00000000000E+00 0. -1.
      99926    2    1    2    0    0  0.35527136788E-14  0.00000000000E+00  0.17228282087E+04  0.17799238623E+04  0.44720456029E+03 0.  0.
      99925    2    3    3    0    0 -0.18782538089E+02 -0.97405661520E+02  0.12370750150E+04  0.12686076001E+04  0.26300190821E+03 0.  0.
         25    1    3    3    0    0  0.18782538089E+02  0.97405661520E+02  0.48575319372E+03  0.51131626216E+03  0.12509000000E+03 0.  0.
         25    1    4    4    0    0 -0.34301049246E+02 -0.81252719879E+02  0.62354414118E+03  0.64205402465E+03  0.12509000000E+03 0.  0.
         25    1    4    4    0    0  0.15518511157E+02 -0.16152941641E+02  0.61353087384E+03  0.62655357549E+03  0.12509000000E+03 0.  0.
<mgrwt>
<rscale>  2 0.44720456E+03</rscale>
<asrwt>0</asrwt>
<pdfrwt beam="1">  1       21 0.25755523E+00 0.44720456E+03</pdfrwt>
<pdfrwt beam="2">  1       21 0.41982110E-02 0.44720456E+03</pdfrwt>
<totfact> 0.18758144E+04</totfact>
</mgrwt>
</event>
<event>
 7    0  0.4725730E-002  0.4571098E+03  0.7546771E-02  0.1025623E+00
         21   -1    0    0  502  501  0.00000000000E+00  0.00000000000E+00  0.49879686640E+02  0.49879686640E+02  0.00000000000E+00 0.  1.
         21   -1    0    0  501  502 -0.00000000000E+00 -0.00000000000E+00 -0.10472670263E+04  0.10472670263E+04  0.00000000000E+00 0.  1.
      99926    2    1    2    0    0  0.00000000000E+00  0.00000000000E+00 -0.99738733968E+03  0.10971467130E+04  0.45710983845E+03 0.  0.
      99925    2    3    3    0    0  0.34919592418E+02  0.86849175759E+02 -0.79006906134E+03  0.83754984491E+03  0.26176031740E+03 0.  0.
         25    1    4    4    0    0 -0.19811793259E+02  0.49439611073E+02 -0.36285202263E+03  0.38748662006E+03  0.12509000000E+03 0.  0.
         25    1    3    3    0    0 -0.34919592418E+02 -0.86849175759E+02 -0.20731827835E+03  0.25959686805E+03  0.12509000000E+03 0.  0.
         25    1    4    4    0    0  0.54731385677E+02  0.37409564686E+02 -0.42721703871E+03  0.45006322486E+03  0.12509000000E+03 0.  0.
<mgrwt>
<rscale>  2 0.45710984E+03</rscale>
<asrwt>0</asrwt>
<pdfrwt beam="1">  1       21 0.73352489E-02 0.45710984E+03</pdfrwt>
<pdfrwt beam="2">  1       21 0.15400984E+00 0.45710984E+03</pdfrwt>
<totfact> 0.35013492E+04</totfact>
</mgrwt>
</event>
<event>
 7    0  0.4725730E-002  0.4570761E+03  0.7546771E-02  0.1025633E+00
         21   -1    0    0  502  501  0.00000000000E+00  0.00000000000E+00  0.12683113035E+04  0.12683113035E+04  0.00000000000E+00 0. -1.
         21   -1    0    0  501  502 -0.00000000000E+00 -0.00000000000E+00 -0.41180455247E+02  0.41180455247E+02  0.00000000000E+00 0. -1.
      99926    2    1    2    0    0 -0.13322676296E-14 -0.71054273576E-14  0.12271308483E+04  0.13094917588E+04  0.45707608502E+03 0.  0.
      99925    2    3    3    0    0 -0.34671450710E+01 -0.62516008070E+02  0.10475432106E+04  0.10818527901E+04  0.26294183570E+03 0.  0.
         25    1    4    4    0    0  0.32910794786E+02 -0.11005234408E+02  0.53303119399E+03  0.54861097097E+03  0.12509000000E+03 0.  0.
         25    1    4    4    0    0 -0.36377939857E+02 -0.51510773661E+02  0.51451201662E+03  0.53324181912E+03  0.12509000000E+03 0.  0.
         25    1    3    3    0    0  0.34671450710E+01  0.62516008070E+02  0.17958763765E+03  0.22763896867E+03  0.12509000000E+03 0.  0.
<mgrwt>
<rscale>  2 0.45707609E+03</rscale>
<asrwt>0</asrwt>
<pdfrwt beam="1">  1       21 0.18651634E+00 0.45707609E+03</pdfrwt>
<pdfrwt beam="2">  1       21 0.60559501E-02 0.45707609E+03</pdfrwt>
<totfact> 0.28379316E+04</totfact>
</mgrwt>
</event>
<event>
 7    0  0.4725730E-002  0.4585663E+03  0.7546771E-02  0.1025198E+00
         21   -1    0    0  502  501  0.00000000000E+00  0.00000000000E+00  0.46299127748E+03  0.46299127748E+03  0.00000000000E+00 0.  1.
         21   -1    0    0  501  502 -0.00000000000E+00 -0.00000000000E+00 -0.11354590385E+03  0.11354590385E+03  0.00000000000E+00 0.  1.
      99926    2    1    2    0    0  0.71054273576E-14  0.00000000000E+00  0.34944537363E+03  0.57653718133E+03  0.45856630089E+03 0.  0.
      99925    2    3    3    0    0 -0.46638941163E+02 -0.10127039959E+03  0.17439416912E+03  0.33421236427E+03  0.26239987336E+03 0.  0.
         25    1    4    4    0    0 -0.11046671044E+02 -0.40473014769E+02  0.40792597786E+02  0.13810010137E+03  0.12509000000E+03 0.  0.
         25    1    4    4    0    0 -0.35592270119E+02 -0.60797384823E+02  0.13360157134E+03  0.19611226289E+03  0.12509000000E+03 0.  0.
         25    1    3    3    0    0  0.46638941163E+02  0.10127039959E+03  0.17505120450E+03  0.24232481706E+03  0.12509000000E+03 0.  0.
<mgrwt>
<rscale>  2 0.45856630E+03</rscale>
<asrwt>0</asrwt>
<pdfrwt beam="1">  1       21 0.68086952E-01 0.45856630E+03</pdfrwt>
<pdfrwt beam="2">  1       21 0.16697927E-01 0.45856630E+03</pdfrwt>
<totfact> 0.58479733E+04</totfact>
</mgrwt>
</event>
<event>
 7    0  0.4725730E-002  0.5014002E+03  0.7546771E-02  0.1013414E+00
         21   -1    0    0  502  501  0.00000000000E+00  0.00000000000E+00  0.94545812443E+03  0.94545812443E+03  0.00000000000E+00 0. -1.
         21   -1    0    0  501  502 -0.00000000000E+00 -0.00000000000E+00 -0.66476273847E+02  0.66476273847E+02  0.00000000000E+00 0. -1.
      99926    2    1    2    0    0  0.14210854715E-13  0.71054273576E-14  0.87898185058E+03  0.10119343983E+04  0.50140017228E+03 0.  0.
      99925    2    3    3    0    0  0.10502005945E+03  0.55058806532E+02  0.72697647450E+03  0.78212180611E+03  0.26298106403E+03 0.  0.
         25    1    4    4    0    0  0.14981507459E+02  0.31709940391E+02  0.38405092735E+03  0.40542889485E+03  0.12509000000E+03 0.  0.
         25    1    3    3    0    0 -0.10502005945E+03 -0.55058806532E+02  0.15200537608E+03  0.22981259217E+03  0.12509000000E+03 0.  0.
         25    1    4    4    0    0  0.90038551992E+02  0.23348866140E+02  0.34292554716E+03  0.37669291125E+03  0.12509000000E+03 0.  0.
<mgrwt>
<rscale>  2 0.50140017E+03</rscale>
<asrwt>0</asrwt>
<pdfrwt beam="1">  1       21 0.13903795E+00 0.50140017E+03</pdfrwt>
<pdfrwt beam="2">  1       21 0.97759232E-02 0.50140017E+03</pdfrwt>
<totfact> 0.27360330E+04</totfact>
</mgrwt>
</event>
<event>
 7    0  0.4725730E-002  0.4551210E+03  0.7546771E-02  0.1026206E+00
         21   -1    0    0  502  501  0.00000000000E+00  0.00000000000E+00  0.90224076469E+02  0.90224076469E+02  0.00000000000E+00 0. -1.
         21   -1    0    0  501  502 -0.00000000000E+00 -0.00000000000E+00 -0.57394637831E+03  0.57394637831E+03  0.00000000000E+00 0. -1.
      99926    2    1    2    0    0 -0.14210854715E-13 -0.71054273576E-14 -0.48372230184E+03  0.66417045478E+03  0.45512100336E+03 0.  0.
      99925    2    3    3    0    0  0.69370532475E+02  0.49954538026E+02 -0.19583780255E+03  0.33885104301E+03  0.26298261880E+03 0.  0.
         25    1    4    4    0    0 -0.45869413608E+01  0.17727320132E+02 -0.73935552442E+02  0.14645569953E+03  0.12509000000E+03 0.  0.
         25    1    4    4    0    0  0.73957473836E+02  0.32227217894E+02 -0.12190225011E+03  0.19239534348E+03  0.12509000000E+03 0.  0.
         25    1    3    3    0    0 -0.69370532475E+02 -0.49954538026E+02 -0.28788449929E+03  0.32531941177E+03  0.12509000000E+03 0.  0.
<mgrwt>
<rscale>  2 0.45512100E+03</rscale>
<asrwt>0</asrwt>
<pdfrwt beam="1">  1       21 0.13268246E-01 0.45512100E+03</pdfrwt>
<pdfrwt beam="2">  1       21 0.84403880E-01 0.45512100E+03</pdfrwt>
<totfact> 0.54839218E+04</totfact>
</mgrwt>
</event>
<event>
 7    0  0.4725730E-002  0.4541286E+03  0.7546771E-02  0.1026498E+00
         21   -1    0    0  502  501  0.00000000000E+00  0.00000000000E+00  0.47618944301E+03  0.47618944301E+03  0.00000000000E+00 0. -1.
         21   -1    0    0  501  502 -0.00000000000E+00 -0.00000000000E+00 -0.10827243286E+03  0.10827243286E+03  0.00000000000E+00 0. -1.
      99926    2    1    2    0    0 -0.71054273576E-14 -0.71054273576E-14  0.36791701015E+03  0.58446187587E+03  0.45412856989E+03 0.  0.
      99925    2    3    3    0    0 -0.30943234521E+02 -0.59404457788E+02  0.34797705489E+03  0.44117376302E+03  0.26279247531E+03 0.  0.
         25    1    3    3    0    0  0.30943234521E+02  0.59404457788E+02  0.19939955262E+02  0.14328811285E+03  0.12509000000E+03 0.  0.
         25    1    4    4    0    0 -0.25589040166E+02 -0.19965688741E+02  0.23406214598E+03  0.26736870420E+03  0.12509000000E+03 0.  0.
         25    1    4    4    0    0 -0.53541943554E+01 -0.39438769047E+02  0.11391490891E+03  0.17380505882E+03  0.12509000000E+03 0.  0.
<mgrwt>
<rscale>  2 0.45412857E+03</rscale>
<asrwt>0</asrwt>
<pdfrwt beam="1">  1       21 0.70027859E-01 0.45412857E+03</pdfrwt>
<pdfrwt beam="2">  1       21 0.15922417E-01 0.45412857E+03</pdfrwt>
<totfact> 0.60057651E+04</totfact>
</mgrwt>
</event>
<event>
 7    0  0.4725730E-002  0.4517248E+03  0.7546771E-02  0.1027209E+00
         21   -1    0    0  502  501  0.00000000000E+00  0.00000000000E+00  0.58084592711E+03  0.58084592711E+03  0.00000000000E+00 0. -1.
         21   -1    0    0  501  502 -0.00000000000E+00 -0.00000000000E+00 -0.87826767788E+02  0.87826767788E+02  0.00000000000E+00 0. -1.
      99926    2    1    2    0    0 -0.17763568394E-14  0.14210854715E-13  0.49301915932E+03  0.66867269490E+03  0.45172478507E+03 0.  0.
      99925    2    3    3    0    0  0.83165099322E+01 -0.10761488289E+03  0.27828900355E+03  0.39773603209E+03  0.26286698988E+03 0.  0.
         25    1    3    3    0    0 -0.83165099322E+01  0.10761488289E+03  0.21473015578E+03  0.27093666281E+03  0.12509000000E+03 0.  0.
         25    1    4    4    0    0  0.35294045457E+02 -0.81870781764E+02  0.14785804085E+03  0.21320882462E+03  0.12509000000E+03 0.  0.
         25    1    4    4    0    0 -0.26977535524E+02 -0.25744101123E+02  0.13043096270E+03  0.18452720747E+03  0.12509000000E+03 0.  0.
<mgrwt>
<rscale>  2 0.45172479E+03</rscale>
<asrwt>0</asrwt>
<pdfrwt beam="1">  1       21 0.85418516E-01 0.45172479E+03</pdfrwt>
<pdfrwt beam="2">  1       21 0.12915701E-01 0.45172479E+03</pdfrwt>
<totfact> 0.56070773E+04</totfact>
</mgrwt>
</event>
<event>
 7    0  0.4725730E-002  0.4557747E+03  0.7546771E-02  0.1026014E+00
         21   -1    0    0  502  501  0.00000000000E+00  0.00000000000E+00  0.44820394915E+03  0.44820394915E+03  0.00000000000E+00 0. -1.
         21   -1    0    0  501  502 -0.00000000000E+00 -0.00000000000E+00 -0.11586835724E+03  0.11586835724E+03  0.00000000000E+00 0. -1.
      99926    2    1    2    0    0  0.00000000000E+00  0.00000000000E+00  0.33233559190E+03  0.56407230639E+03  0.45577474830E+03 0.  0.
      99925    2    3    3    0    0  0.17438847303E+02  0.92820244793E+01  0.34774654834E+03  0.43649772016E+03  0.26308236057E+03 0.  0.
         25    1    4    4    0    0  0.19085491545E+02 -0.16735635905E+02  0.11913212628E+03  0.17459756329E+03  0.12509000000E+03 0.  0.
         25    1    3    3    0    0 -0.17438847303E+02 -0.92820244793E+01 -0.15410956439E+02  0.12757458623E+03  0.12509000000E+03 0.  0.
         25    1    4    4    0    0 -0.16466442415E+01  0.26017660385E+02  0.22861442207E+03  0.26190015687E+03  0.12509000000E+03 0.  0.
<mgrwt>
<rscale>  2 0.45577475E+03</rscale>
<asrwt>0</asrwt>
<pdfrwt beam="1">  1       21 0.65912345E-01 0.45577475E+03</pdfrwt>
<pdfrwt beam="2">  1       21 0.17039464E-01 0.45577475E+03</pdfrwt>
<totfact> 0.60574046E+04</totfact>
</mgrwt>
</event>
<event>
 7    0  0.4725730E-002  0.4460425E+03  0.7546771E-02  0.1028909E+00
         21   -1    0    0  502  501  0.00000000000E+00  0.00000000000E+00  0.87498728507E+02  0.87498728507E+02  0.00000000000E+00 0.  1.
         21   -1    0    0  501  502 -0.00000000000E+00 -0.00000000000E+00 -0.56844812093E+03  0.56844812093E+03  0.00000000000E+00 0.  1.
      99926    2    1    2    0    0  0.00000000000E+00 -0.53290705182E-14 -0.48094939242E+03  0.65594684943E+03  0.44604254417E+03 0.  0.
      99925    2    3    3    0    0 -0.10038811904E+03  0.72716072374E+01 -0.34680462876E+03  0.44672692583E+03  0.26298449577E+03 0.  0.
         25    1    4    4    0    0 -0.68684218673E+02 -0.32556337546E+02 -0.17276959038E+03  0.22643823986E+03  0.12509000000E+03 0.  0.
         25    1    4    4    0    0 -0.31703900365E+02  0.39827944784E+02 -0.17403503838E+03  0.22028868597E+03  0.12509000000E+03 0.  0.
         25    1    3    3    0    0  0.10038811904E+03 -0.72716072374E+01 -0.13414476366E+03  0.20921992361E+03  0.12509000000E+03 0.  0.
<mgrwt>
<rscale>  2 0.44604254E+03</rscale>
<asrwt>0</asrwt>
<pdfrwt beam="1">  1       21 0.12867460E-01 0.44604254E+03</pdfrwt>
<pdfrwt beam="2">  1       21 0.83595316E-01 0.44604254E+03</pdfrwt>
<totfact> 0.59449382E+04</totfact>
</mgrwt>
</event>
<event>
 7    0  0.4725730E-002  0.4553770E+03  0.7546771E-02  0.1026131E+00
         21   -1    0    0  502  501  0.00000000000E+00  0.00000000000E+00  0.52078982475E+03  0.52078982475E+03  0.00000000000E+00 0.  1.
         21   -1    0    0  501  502 -0.00000000000E+00 -0.00000000000E+00 -0.99545065243E+02  0.99545065243E+02  0.00000000000E+00 0.  1.
      99926    2    1    2    0    0  0.00000000000E+00  0.00000000000E+00  0.42124475951E+03  0.62033488999E+03  0.45537701779E+03 0.  0.
      99925    2    3    3    0    0 -0.11050705162E+03  0.24989396376E+02  0.27556132492E+03  0.39738321451E+03  0.26295075013E+03 0.  0.
         25    1    4    4    0    0 -0.61445263219E+02 -0.13306854081E+02  0.95492063392E+02  0.16946632411E+03  0.12509000000E+03 0.  0.
         25    1    3    3    0    0  0.11050705162E+03 -0.24989396376E+02  0.14568343459E+03  0.22295167549E+03  0.12509000000E+03 0.  0.
         25    1    4    4    0    0 -0.49061788400E+02  0.38296250457E+02  0.18006926153E+03  0.22791689039E+03  0.12509000000E+03 0.  0.
<mgrwt>
<rscale>  2 0.45537702E+03</rscale>
<asrwt>0</asrwt>
<pdfrwt beam="1">  1       21 0.76586738E-01 0.45537702E+03</pdfrwt>
<pdfrwt beam="2">  1       21 0.14638980E-01 0.45537702E+03</pdfrwt>
<totfact> 0.57273044E+04</totfact>
</mgrwt>
</event>
<event>
 7    0  0.4725730E-002  0.4532306E+03  0.7546771E-02  0.1026763E+00
         21   -1    0    0  502  501  0.00000000000E+00  0.00000000000E+00  0.41762641678E+03  0.41762641678E+03  0.00000000000E+00 0.  1.
         21   -1    0    0  501  502 -0.00000000000E+00 -0.00000000000E+00 -0.12296754324E+03  0.12296754324E+03  0.00000000000E+00 0.  1.
      99926    2    1    2    0    0  0.00000000000E+00  0.00000000000E+00  0.29465887354E+03  0.54059396002E+03  0.45323060119E+03 0.  0.
      99925    2    3    3    0    0  0.45635440919E+02 -0.67503242566E+02  0.27644634010E+03  0.39019952628E+03  0.26304716332E+03 0.  0.
         25    1    4    4    0    0  0.48624299623E+02 -0.21999900340E+02  0.18090673373E+03  0.22632514782E+03  0.12509000000E+03 0.  0.
         25    1    3    3    0    0 -0.45635440919E+02  0.67503242566E+02  0.18212533439E+02  0.15039443374E+03  0.12509000000E+03 0.  0.
         25    1    4    4    0    0 -0.29888587042E+01 -0.45503342226E+02  0.95539606374E+02  0.16387437846E+03  0.12509000000E+03 0.  0.
<mgrwt>
<rscale>  2 0.45323060E+03</rscale>
<asrwt>0</asrwt>
<pdfrwt beam="1">  1       21 0.61415649E-01 0.45323060E+03</pdfrwt>
<pdfrwt beam="2">  1       21 0.18083462E-01 0.45323060E+03</pdfrwt>
<totfact> 0.63375150E+04</totfact>
</mgrwt>
</event>
<event>
 7    0  0.4725730E-002  0.4477605E+03  0.7546771E-02  0.1028392E+00
         21   -1    0    0  502  501  0.00000000000E+00  0.00000000000E+00  0.76164181499E+02  0.76164181499E+02  0.00000000000E+00 0.  1.
         21   -1    0    0  501  502 -0.00000000000E+00 -0.00000000000E+00 -0.65808332080E+03  0.65808332080E+03  0.00000000000E+00 0.  1.
      99926    2    1    2    0    0  0.14210854715E-13  0.00000000000E+00 -0.58191913930E+03  0.73424750230E+03  0.44776054979E+03 0.  0.
      99925    2    3    3    0    0 -0.84428375050E+02  0.64280703630E+02 -0.37799814981E+03  0.47253881420E+03  0.26296419964E+03 0.  0.
         25    1    4    4    0    0 -0.41755803880E+02  0.10021122691E+02 -0.12496080890E+03  0.18195241663E+03  0.12509000000E+03 0.  0.
         25    1    4    4    0    0 -0.42672571169E+02  0.54259580939E+02 -0.25303734092E+03  0.29058639757E+03  0.12509000000E+03 0.  0.
         25    1    3    3    0    0  0.84428375050E+02 -0.64280703630E+02 -0.20392098949E+03  0.26170868810E+03  0.12509000000E+03 0.  0.
<mgrwt>
<rscale>  2 0.44776055E+03</rscale>
<asrwt>0</asrwt>
<pdfrwt beam="1">  1       21 0.11200615E-01 0.44776055E+03</pdfrwt>
<pdfrwt beam="2">  1       21 0.96776961E-01 0.44776055E+03</pdfrwt>
<totfact> 0.54096790E+04</totfact>
</mgrwt>
</event>
<event>
 7    0  0.4725730E-002  0.4768928E+03  0.7546771E-02  0.1019993E+00
         21   -1    0    0  502  501  0.00000000000E+00  0.00000000000E+00  0.22783456219E+04  0.22783456219E+04  0.00000000000E+00 0. -1.
         21   -1    0    0  501  502 -0.00000000000E+00 -0.00000000000E+00 -0.24955245768E+02  0.24955245768E+02  0.00000000000E+00 0. -1.
      99926    2    1    2    0    0  0.00000000000E+00 -0.99920072216E-15  0.22533903762E+04  0.23033008677E+04  0.47689275499E+03 0.  0.
      99925    2    3    3    0    0 -0.62068043381E+02  0.42313249552E+00  0.82566214185E+03  0.86875981210E+03  0.26300763788E+03 0.  0.
         25    1    4    4    0    0 -0.41630560658E+02 -0.36669442736E+02  0.37709148377E+03  0.40115239852E+03  0.12509000000E+03 0.  0.
         25    1    4    4    0    0 -0.20437482723E+02  0.37092575231E+02  0.44857065809E+03  0.46760741358E+03  0.12509000000E+03 0.  0.
         25    1    3    3    0    0  0.62068043381E+02 -0.42313249552E+00  0.14277282343E+04  0.14345410556E+04  0.12509000000E+03 0.  0.
<mgrwt>
<rscale>  2 0.47689275E+03</rscale>
<asrwt>0</asrwt>
<pdfrwt beam="1">  1       21 0.33505068E+00 0.47689275E+03</pdfrwt>
<pdfrwt beam="2">  1       21 0.36698906E-02 0.47689275E+03</pdfrwt>
<totfact> 0.79239502E+03</totfact>
</mgrwt>
</event>
<event>
 7    0  0.4725730E-002  0.4573654E+03  0.7546771E-02  0.1025548E+00
         21   -1    0    0  502  501  0.00000000000E+00  0.00000000000E+00  0.46672454806E+03  0.46672454806E+03  0.00000000000E+00 0.  1.
         21   -1    0    0  501  502 -0.00000000000E+00 -0.00000000000E+00 -0.11204846253E+03  0.11204846253E+03  0.00000000000E+00 0.  1.
      99926    2    1    2    0    0 -0.71054273576E-14  0.00000000000E+00  0.35467608553E+03  0.57877301059E+03  0.45736535958E+03 0.  0.
      99925    2    3    3    0    0 -0.53334132695E+02 -0.62908014277E+02  0.32453665844E+03  0.42594028787E+03  0.26324729474E+03 0.  0.
         25    1    3    3    0    0  0.53334132695E+02  0.62908014277E+02  0.30139427091E+02  0.15283272273E+03  0.12509000000E+03 0.  0.
         25    1    4    4    0    0 -0.27137924811E+02 -0.15171186096E+02  0.21629359131E+03  0.25178772327E+03  0.12509000000E+03 0.  0.
         25    1    4    4    0    0 -0.26196207884E+02 -0.47736828181E+02  0.10824306713E+03  0.17415256459E+03  0.12509000000E+03 0.  0.
<mgrwt>
<rscale>  2 0.45736536E+03</rscale>
<asrwt>0</asrwt>
<pdfrwt beam="1">  1       21 0.68635962E-01 0.45736536E+03</pdfrwt>
<pdfrwt beam="2">  1       21 0.16477715E-01 0.45736536E+03</pdfrwt>
<totfact> 0.58895118E+04</totfact>
</mgrwt>
</event>
<event>
 7    0  0.4725730E-002  0.4507825E+03  0.7546771E-02  0.1027489E+00
         21   -1    0    0  502  501  0.00000000000E+00  0.00000000000E+00  0.32901927096E+02  0.32901927096E+02  0.00000000000E+00 0. -1.
         21   -1    0    0  501  502 -0.00000000000E+00 -0.00000000000E+00 -0.15440195380E+04  0.15440195380E+04  0.00000000000E+00 0. -1.
      99926    2    1    2    0    0  0.00000000000E+00  0.00000000000E+00 -0.15111176109E+04  0.15769214651E+04  0.45078251197E+03 0.  0.
      99925    2    3    3    0    0 -0.62382003948E+02  0.85970183498E+02 -0.86583331558E+03  0.91109737665E+03  0.26296142778E+03 0.  0.
         25    1    4    4    0    0 -0.62815115804E+02  0.40124795862E+02 -0.36844530362E+03  0.39617570329E+03  0.12509000000E+03 0.  0.
         25    1    4    4    0    0  0.43311185566E+00  0.45845387636E+02 -0.49738801196E+03  0.51492167336E+03  0.12509000000E+03 0.  0.
         25    1    3    3    0    0  0.62382003948E+02 -0.85970183498E+02 -0.64528429534E+03  0.66582408846E+03  0.12509000000E+03 0.  0.
<mgrwt>
<rscale>  2 0.45078251E+03</rscale>
<asrwt>0</asrwt>
<pdfrwt beam="1">  1       21 0.48385171E-02 0.45078251E+03</pdfrwt>
<pdfrwt beam="2">  1       21 0.22706177E+00 0.45078251E+03</pdfrwt>
<totfact> 0.22689364E+04</totfact>
</mgrwt>
</event>
<event>
 7    0  0.4725730E-002  0.4337779E+03  0.7546771E-02  0.1032673E+00
         21   -1    0    0  502  501  0.00000000000E+00  0.00000000000E+00  0.58014476118E+03  0.58014476118E+03  0.00000000000E+00 0.  1.
         21   -1    0    0  501  502 -0.00000000000E+00 -0.00000000000E+00 -0.81084609219E+02  0.81084609219E+02  0.00000000000E+00 0.  1.
      99926    2    1    2    0    0 -0.88817841970E-15  0.00000000000E+00  0.49906015196E+03  0.66122937040E+03  0.43377787519E+03 0.  0.
      99925    2    3    3    0    0 -0.75422689291E+01 -0.66268884652E+02  0.41659795696E+03  0.49722945394E+03  0.26312510566E+03 0.  0.
         25    1    3    3    0    0  0.75422689291E+01  0.66268884652E+02  0.82462194996E+02  0.16399991646E+03  0.12509000000E+03 0.  0.
         25    1    4    4    0    0  0.10697591586E+02 -0.13136995024E+01  0.15455262314E+03  0.19912354379E+03  0.12509000000E+03 0.  0.
         25    1    4    4    0    0 -0.18239860515E+02 -0.64955185150E+02  0.26204533383E+03  0.29810591016E+03  0.12509000000E+03 0.  0.
<mgrwt>
<rscale>  2 0.43377788E+03</rscale>
<asrwt>0</asrwt>
<pdfrwt beam="1">  1       21 0.85315404E-01 0.43377788E+03</pdfrwt>
<pdfrwt beam="2">  1       21 0.11924208E-01 0.43377788E+03</pdfrwt>
<totfact> 0.65314671E+04</totfact>
</mgrwt>
</event>
<event>
 7    0  0.4725730E-002  0.4580231E+03  0.7546771E-02  0.1025356E+00
         21   -1    0    0  502  501  0.00000000000E+00  0.00000000000E+00  0.61983081079E+03  0.61983081079E+03  0.00000000000E+00 0.  1.
         21   -1    0    0  501  502 -0.00000000000E+00 -0.00000000000E+00 -0.84613884924E+02  0.84613884924E+02  0.00000000000E+00 0.  1.
      99926    2    1    2    0    0  0.00000000000E+00  0.00000000000E+00  0.53521692587E+03  0.70444469572E+03  0.45802311250E+03 0.  0.
      99925    2    3    3    0    0  0.43340767644E+02  0.10742241918E+03  0.32467555043E+03  0.43353294412E+03  0.26290416943E+03 0.  0.
         25    1    4    4    0    0 -0.14813947267E+02  0.67834139865E+02  0.14687274042E+03  0.20503666390E+03  0.12509000000E+03 0.  0.
         25    1    4    4    0    0  0.58154714911E+02  0.39588279318E+02  0.17780281001E+03  0.22849628022E+03  0.12509000000E+03 0.  0.
         25    1    3    3    0    0 -0.43340767644E+02 -0.10742241918E+03  0.21054137544E+03  0.27091175160E+03  0.12509000000E+03 0.  0.
<mgrwt>
<rscale>  2 0.45802311E+03</rscale>
<asrwt>0</asrwt>
<pdfrwt beam="1">  1       21 0.91151588E-01 0.45802311E+03</pdfrwt>
<pdfrwt beam="2">  1       21 0.12443219E-01 0.45802311E+03</pdfrwt>
<totfact> 0.51427938E+04</totfact>
</mgrwt>
</event>
<event>
 7    0  0.4725730E-002  0.4503846E+03  0.7546771E-02  0.1027607E+00
         21   -1    0    0  502  501  0.00000000000E+00  0.00000000000E+00  0.14485786414E+03  0.14485786414E+03  0.00000000000E+00 0. -1.
         21   -1    0    0  501  502 -0.00000000000E+00 -0.00000000000E+00 -0.35007813927E+03  0.35007813927E+03  0.00000000000E+00 0. -1.
      99926    2    1    2    0    0  0.00000000000E+00  0.00000000000E+00 -0.20522027513E+03  0.49493600342E+03  0.45038459804E+03 0.  0.
      99925    2    3    3    0    0 -0.43540769305E+02 -0.26715015256E+02 -0.24220513880E+02  0.26906455258E+03  0.26305818659E+03 0.  0.
         25    1    3    3    0    0  0.43540769305E+02  0.26715015256E+02 -0.18099976125E+03  0.22587145084E+03  0.12509000000E+03 0.  0.
         25    1    4    4    0    0 -0.12647654786E+02  0.20200243591E+02  0.10009375442E+02  0.12773295859E+03  0.12509000000E+03 0.  0.
         25    1    4    4    0    0 -0.30893114519E+02 -0.46915258847E+02 -0.34229889323E+02  0.14133159399E+03  0.12509000000E+03 0.  0.
<mgrwt>
<rscale>  2 0.45038460E+03</rscale>
<asrwt>0</asrwt>
<pdfrwt beam="1">  1       21 0.21302628E-01 0.45038460E+03</pdfrwt>
<pdfrwt beam="2">  1       21 0.51482078E-01 0.45038460E+03</pdfrwt>
<totfact> 0.68088581E+04</totfact>
</mgrwt>
</event>
<event>
 7    0  0.4725730E-002  0.4599807E+03  0.7546771E-02  0.1024787E+00
         21   -1    0    0  502  501  0.00000000000E+00  0.00000000000E+00  0.12532578727E+03  0.12532578727E+03  0.00000000000E+00 0.  1.
         21   -1    0    0  501  502 -0.00000000000E+00 -0.00000000000E+00 -0.42206441598E+03  0.42206441598E+03  0.00000000000E+00 0.  1.
      99926    2    1    2    0    0 -0.14210854715E-13  0.71054273576E-14 -0.29673862871E+03  0.54739020324E+03  0.45998067442E+03 0.  0.
      99925    2    3    3    0    0 -0.69277561585E+02  0.59538110114E+02 -0.97271175465E+02  0.29484527635E+03  0.26292182929E+03 0.  0.
         25    1    3    3    0    0  0.69277561585E+02 -0.59538110114E+02 -0.19946745324E+03  0.25254492689E+03  0.12509000000E+03 0.  0.
         25    1    4    4    0    0 -0.71906853465E+02  0.15314593012E+02 -0.41631097221E+02  0.15094962302E+03  0.12509000000E+03 0.  0.
         25    1    4    4    0    0  0.26292918802E+01  0.44223517101E+02 -0.55640078244E+02  0.14389565333E+03  0.12509000000E+03 0.  0.
<mgrwt>
<rscale>  2 0.45998067E+03</rscale>
<asrwt>0</asrwt>
<pdfrwt beam="1">  1       21 0.18430263E-01 0.45998067E+03</pdfrwt>
<pdfrwt beam="2">  1       21 0.62068297E-01 0.45998067E+03</pdfrwt>
<totfact> 0.59653384E+04</totfact>
</mgrwt>
</event>
<event>
 7    0  0.4725730E-002  0.4547907E+03  0.7546771E-02  0.1026303E+00
         21   -1    0    0  502  501  0.00000000000E+00  0.00000000000E+00  0.18295459145E+04  0.18295459145E+04  0.00000000000E+00 0.  1.
         21   -1    0    0  501  502 -0.00000000000E+00 -0.00000000000E+00 -0.28263103244E+02  0.28263103244E+02  0.00000000000E+00 0.  1.
      99926    2    1    2    0    0  0.00000000000E+00 -0.14210854715E-13  0.18012828113E+04  0.18578090178E+04  0.45479069943E+03 0.  0.
      99925    2    3    3    0    0  0.54206960459E+02 -0.83374794682E+02  0.91644758490E+03  0.95865906537E+03  0.26317537271E+03 0.  0.
         25    1    3    3    0    0 -0.54206960459E+02  0.83374794682E+02  0.88483522640E+03  0.89914995241E+03  0.12509000000E+03 0.  0.
         25    1    4    4    0    0  0.10722717741E+02 -0.36753262074E+02  0.57051545203E+03  0.58532142286E+03  0.12509000000E+03 0.  0.
         25    1    4    4    0    0  0.43484242718E+02 -0.46621532608E+02  0.34593213287E+03  0.37333764252E+03  0.12509000000E+03 0.  0.
<mgrwt>
<rscale>  2 0.45479070E+03</rscale>
<asrwt>0</asrwt>
<pdfrwt beam="1">  1       21 0.26905079E+00 0.45479070E+03</pdfrwt>
<pdfrwt beam="2">  1       21 0.41563400E-02 0.45479070E+03</pdfrwt>
<totfact> 0.16199777E+04</totfact>
</mgrwt>
</event>
<event>
 7    0  0.4725730E-002  0.4803225E+03  0.7546771E-02  0.1019047E+00
         21   -1    0    0  502  501  0.00000000000E+00  0.00000000000E+00  0.52219446565E+03  0.52219446565E+03  0.00000000000E+00 0.  1.
         21   -1    0    0  501  502 -0.00000000000E+00 -0.00000000000E+00 -0.11045201785E+03  0.11045201785E+03  0.00000000000E+00 0.  1.
      99926    2    1    2    0    0  0.14210854715E-13  0.71054273576E-14  0.41174244779E+03  0.63264648350E+03  0.48032252681E+03 0.  0.
      99925    2    3    3    0    0  0.11229343965E+03  0.38134821705E+02  0.16727277667E+03  0.33351940446E+03  0.26304168894E+03 0.  0.
         25    1    4    4    0    0  0.65769927608E+02 -0.16674714689E+01  0.45385600150E+02  0.14844468545E+03  0.12509000000E+03 0.  0.
         25    1    4    4    0    0  0.46523512041E+02  0.39802293174E+02  0.12188717652E+03  0.18507471901E+03  0.12509000000E+03 0.  0.
         25    1    3    3    0    0 -0.11229343965E+03 -0.38134821705E+02  0.24446967112E+03  0.29912707904E+03  0.12509000000E+03 0.  0.
<mgrwt>
<rscale>  2 0.48032253E+03</rscale>
<asrwt>0</asrwt>
<pdfrwt beam="1">  1       21 0.76793303E-01 0.48032253E+03</pdfrwt>
<pdfrwt beam="2">  1       21 0.16242944E-01 0.48032253E+03</pdfrwt>
<totfact> 0.46660713E+04</totfact>
</mgrwt>
</event>
<event>
 7    0  0.4725730E-002  0.4581116E+03  0.7546771E-02  0.1025330E+00
         21   -1    0    0  502  501  0.00000000000E+00  0.00000000000E+00  0.68688408215E+02  0.68688408215E+02  0.00000000000E+00 0. -1.
         21   -1    0    0  501  502 -0.00000000000E+00 -0.00000000000E+00 -0.76383431161E+03  0.76383431161E+03  0.00000000000E+00 0. -1.
      99926    2    1    2    0    0  0.35527136788E-14  0.00000000000E+00 -0.69514590340E+03  0.83252271983E+03  0.45811161524E+03 0.  0.
      99925    2    3    3    0    0 -0.31418612809E+02 -0.10692759421E+03 -0.37758092907E+03  0.47347444919E+03  0.26304002813E+03 0.  0.
         25    1    3    3    0    0  0.31418612809E+02  0.10692759421E+03 -0.31756497432E+03  0.35904827064E+03  0.12509000000E+03 0.  0.
         25    1    4    4    0    0  0.80605574523E+01 -0.60703603061E+02 -0.13565849830E+03  0.19442385726E+03  0.12509000000E+03 0.  0.
         25    1    4    4    0    0 -0.39479170262E+02 -0.46223991148E+02 -0.24192243077E+03  0.27905059192E+03  0.12509000000E+03 0.  0.
<mgrwt>
<rscale>  2 0.45811162E+03</rscale>
<asrwt>0</asrwt>
<pdfrwt beam="1">  1       21 0.10101236E-01 0.45811162E+03</pdfrwt>
<pdfrwt beam="2">  1       21 0.11232858E+00 0.45811162E+03</pdfrwt>
<totfact> 0.45119941E+04</totfact>
</mgrwt>
</event>
<event>
 7    0  0.4725730E-002  0.4424044E+03  0.7546771E-02  0.1030012E+00
         21   -1    0    0  502  501  0.00000000000E+00  0.00000000000E+00  0.21673788258E+02  0.21673788258E+02  0.00000000000E+00 0. -1.
         21   -1    0    0  501  502 -0.00000000000E+00 -0.00000000000E+00 -0.22575850690E+04  0.22575850690E+04  0.00000000000E+00 0. -1.
      99926    2    1    2    0    0  0.00000000000E+00  0.00000000000E+00 -0.22359112807E+04  0.22792588572E+04  0.44240443379E+03 0.  0.
      99925    2    3    3    0    0 -0.82452923207E+02 -0.56812058880E+02 -0.14748141812E+04  0.15014784271E+04  0.26331445698E+03 0.  0.
         25    1    3    3    0    0  0.82452923207E+02  0.56812058880E+02 -0.76109709953E+03  0.77778043019E+03  0.12509000000E+03 0.  0.
         25    1    4    4    0    0 -0.80688050359E+02 -0.46353567784E+02 -0.84919662184E+03  0.86338961388E+03  0.12509000000E+03 0.  0.
         25    1    4    4    0    0 -0.17648728479E+01 -0.10458491096E+02 -0.62561755936E+03  0.63808881317E+03  0.12509000000E+03 0.  0.
<mgrwt>
<rscale>  2 0.44240443E+03</rscale>
<asrwt>0</asrwt>
<pdfrwt beam="1">  1       21 0.31873235E-02 0.44240443E+03</pdfrwt>
<pdfrwt beam="2">  1       21 0.33199763E+00 0.44240443E+03</pdfrwt>
<totfact> 0.10669135E+04</totfact>
</mgrwt>
</event>
<event>
 7    0  0.4725730E-002  0.4424954E+03  0.7546771E-02  0.1029984E+00
         21   -1    0    0  502  501  0.00000000000E+00  0.00000000000E+00  0.96874397117E+02  0.96874397117E+02  0.00000000000E+00 0. -1.
         21   -1    0    0  501  502 -0.00000000000E+00 -0.00000000000E+00 -0.50529917109E+03  0.50529917109E+03  0.00000000000E+00 0. -1.
      99926    2    1    2    0    0  0.00000000000E+00  0.00000000000E+00 -0.40842477397E+03  0.60217356820E+03  0.44249543529E+03 0.  0.
      99925    2    3    3    0    0 -0.92325912546E+02 -0.40218558261E+02 -0.24968840655E+03  0.37637199824E+03  0.26300185197E+03 0.  0.
         25    1    4    4    0    0 -0.89000461786E+02 -0.20870870380E+02 -0.13324153634E+03  0.20434649626E+03  0.12509000000E+03 0.  0.
         25    1    4    4    0    0 -0.33254507602E+01 -0.19347687881E+02 -0.11644687021E+03  0.17202550198E+03  0.12509000000E+03 0.  0.
         25    1    3    3    0    0  0.92325912546E+02  0.40218558261E+02 -0.15873636742E+03  0.22580156996E+03  0.12509000000E+03 0.  0.
<mgrwt>
<rscale>  2 0.44249544E+03</rscale>
<asrwt>0</asrwt>
<pdfrwt beam="1">  1       21 0.14246235E-01 0.44249544E+03</pdfrwt>
<pdfrwt beam="2">  1       21 0.74308699E-01 0.44249544E+03</pdfrwt>
<totfact> 0.64703700E+04</totfact>
</mgrwt>
</event>
<event>
 7    0  0.4725730E-002  0.4262770E+03  0.7546771E-02  0.1035043E+00
         21   -1    0    0  502  501  0.00000000000E+00  0.00000000000E+00  0.14412008913E+03  0.14412008913E+03  0.00000000000E+00 0.  1.
         21   -1    0    0  501  502 -0.00000000000E+00 -0.00000000000E+00 -0.31520942057E+03  0.31520942057E+03  0.00000000000E+00 0.  1.
      99926    2    1    2    0    0  0.71054273576E-14  0.00000000000E+00 -0.17108933145E+03  0.45932950970E+03  0.42627695123E+03 0.  0.
      99925    2    3    3    0    0  0.34678446220E+02 -0.71932657781E+02 -0.13688304389E+03  0.30703216863E+03  0.26297316020E+03 0.  0.
         25    1    4    4    0    0 -0.14252994587E+02 -0.59729950332E+02 -0.79757698337E+02  0.16056031068E+03  0.12509000000E+03 0.  0.
         25    1    4    4    0    0  0.48931440806E+02 -0.12202707450E+02 -0.57125345550E+02  0.14647185795E+03  0.12509000000E+03 0.  0.
         25    1    3    3    0    0 -0.34678446220E+02  0.71932657781E+02 -0.34206287559E+02  0.15229734107E+03  0.12509000000E+03 0.  0.
<mgrwt>
<rscale>  2 0.42627695E+03</rscale>
<asrwt>0</asrwt>
<pdfrwt beam="1">  1       21 0.21194131E-01 0.42627695E+03</pdfrwt>
<pdfrwt beam="2">  1       21 0.46354326E-01 0.42627695E+03</pdfrwt>
<totfact> 0.86293093E+04</totfact>
</mgrwt>
</event>
<event>
 7    0  0.4725730E-002  0.4566774E+03  0.7546771E-02  0.1025749E+00
         21   -1    0    0  502  501  0.00000000000E+00  0.00000000000E+00  0.42431693347E+03  0.42431693347E+03  0.00000000000E+00 0.  1.
         21   -1    0    0  501  502 -0.00000000000E+00 -0.00000000000E+00 -0.12287644126E+03  0.12287644126E+03  0.00000000000E+00 0.  1.
      99926    2    1    2    0    0  0.00000000000E+00  0.00000000000E+00  0.30144049220E+03  0.54719337473E+03  0.45667736862E+03 0.  0.
      99925    2    3    3    0    0 -0.67218583426E+02 -0.51226685617E+02  0.97803782050E+02  0.29370189736E+03  0.26372848434E+03 0.  0.
         25    1    4    4    0    0 -0.37425165430E+01 -0.36555484347E+02  0.76220491719E+02  0.15102112873E+03  0.12509000000E+03 0.  0.
         25    1    3    3    0    0  0.67218583426E+02  0.51226685617E+02  0.20363671015E+03  0.25349147737E+03  0.12509000000E+03 0.  0.
         25    1    4    4    0    0 -0.63476066883E+02 -0.14671201271E+02  0.21583290330E+02  0.14268076862E+03  0.12509000000E+03 0.  0.
<mgrwt>
<rscale>  2 0.45667737E+03</rscale>
<asrwt>0</asrwt>
<pdfrwt beam="1">  1       21 0.62399549E-01 0.45667737E+03</pdfrwt>
<pdfrwt beam="2">  1       21 0.18070065E-01 0.45667737E+03</pdfrwt>
<totfact> 0.61235573E+04</totfact>
</mgrwt>
</event>
<event>
 7    0  0.4725730E-002  0.4204338E+03  0.7546771E-02  0.1036925E+00
         21   -1    0    0  502  501  0.00000000000E+00  0.00000000000E+00  0.33117454979E+03  0.33117454979E+03  0.00000000000E+00 0. -1.
         21   -1    0    0  501  502 -0.00000000000E+00 -0.00000000000E+00 -0.13343760413E+03  0.13343760413E+03  0.00000000000E+00 0. -1.
      99926    2    1    2    0    0  0.00000000000E+00  0.00000000000E+00  0.19773694566E+03  0.46461215392E+03  0.42043376873E+03 0.  0.
      99925    2    3    3    0    0 -0.21984718162E+02  0.42523348063E+02  0.62976209210E+02  0.27461339826E+03  0.26297329259E+03 0.  0.
         25    1    3    3    0    0  0.21984718162E+02 -0.42523348063E+02  0.13476073645E+03  0.18999875566E+03  0.12509000000E+03 0.  0.
         25    1    4    4    0    0 -0.13620018179E+02  0.19998190323E+02  0.73005064885E+02  0.14684236483E+03  0.12509000000E+03 0.  0.
         25    1    4    4    0    0 -0.83646999827E+01  0.22525157739E+02 -0.10028855675E+02  0.12777103343E+03  0.12509000000E+03 0.  0.
<mgrwt>
<rscale>  2 0.42043377E+03</rscale>
<asrwt>0</asrwt>
<pdfrwt beam="1">  1       21 0.48702139E-01 0.42043377E+03</pdfrwt>
<pdfrwt beam="2">  1       21 0.19623177E-01 0.42043377E+03</pdfrwt>
<totfact> 0.90146869E+04</totfact>
</mgrwt>
</event>
<event>
 7    0  0.4725730E-002  0.4195971E+03  0.7546771E-02  0.1037197E+00
         21   -1    0    0  502  501  0.00000000000E+00  0.00000000000E+00  0.12519174449E+03  0.12519174449E+03  0.00000000000E+00 0.  1.
         21   -1    0    0  501  502 -0.00000000000E+00 -0.00000000000E+00 -0.35158421082E+03  0.35158421082E+03  0.00000000000E+00 0.  1.
      99926    2    1    2    0    0  0.00000000000E+00  0.71054273576E-14 -0.22639246632E+03  0.47677595531E+03  0.41959714341E+03 0.  0.
      99925    2    3    3    0    0 -0.42145632317E+02 -0.52115085306E+02 -0.10873302554E+03  0.29242984457E+03  0.26305913159E+03 0.  0.
         25    1    4    4    0    0 -0.26581581842E+02  0.27209944079E+01 -0.83263842954E+02  0.15262489950E+03  0.12509000000E+03 0.  0.
         25    1    4    4    0    0 -0.15564050474E+02 -0.54836079714E+02 -0.25469182588E+02  0.13980494507E+03  0.12509000000E+03 0.  0.
         25    1    3    3    0    0  0.42145632317E+02  0.52115085306E+02 -0.11765944078E+03  0.18434611074E+03  0.12509000000E+03 0.  0.
<mgrwt>
<rscale>  2 0.41959714E+03</rscale>
<asrwt>0</asrwt>
<pdfrwt beam="1">  1       21 0.18410551E-01 0.41959714E+03</pdfrwt>
<pdfrwt beam="2">  1       21 0.51703559E-01 0.41959714E+03</pdfrwt>
<totfact> 0.89583304E+04</totfact>
</mgrwt>
</event>
<event>
 7    0  0.4725730E-002  0.4692990E+03  0.7546771E-02  0.1022118E+00
         21   -1    0    0  502  501  0.00000000000E+00  0.00000000000E+00  0.31203666744E+02  0.31203666744E+02  0.00000000000E+00 0. -1.
         21   -1    0    0  501  502 -0.00000000000E+00 -0.00000000000E+00 -0.17645482861E+04  0.17645482861E+04  0.00000000000E+00 0. -1.
      99926    2    1    2    0    0  0.00000000000E+00  0.00000000000E+00 -0.17333446193E+04  0.17957519528E+04  0.46929895237E+03 0.  0.
      99925    2    3    3    0    0  0.10767046687E+03 -0.19552801196E+02 -0.83476044517E+03  0.88192687786E+03  0.26266856607E+03 0.  0.
         25    1    4    4    0    0  0.23520751640E+02  0.86668307502E+01 -0.44961469669E+03  0.46736412281E+03  0.12509000000E+03 0.  0.
         25    1    3    3    0    0 -0.10767046687E+03  0.19552801196E+02 -0.89858417416E+03  0.91382507496E+03  0.12509000000E+03 0.  0.
         25    1    4    4    0    0  0.84149715233E+02 -0.28219631946E+02 -0.38514574849E+03  0.41456275506E+03  0.12509000000E+03 0.  0.
<mgrwt>
<rscale>  2 0.46929895E+03</rscale>
<asrwt>0</asrwt>
<pdfrwt beam="1">  1       21 0.45887740E-02 0.46929895E+03</pdfrwt>
<pdfrwt beam="2">  1       21 0.25949242E+00 0.46929895E+03</pdfrwt>
<totfact> 0.15542886E+04</totfact>
</mgrwt>
</event>
<event>
 7    0  0.4725730E-002  0.4575951E+03  0.7546771E-02  0.1025481E+00
         21   -1    0    0  502  501  0.00000000000E+00  0.00000000000E+00  0.76367642919E+03  0.76367642919E+03  0.00000000000E+00 0. -1.
         21   -1    0    0  501  502 -0.00000000000E+00 -0.00000000000E+00 -0.68547776749E+02  0.68547776749E+02  0.00000000000E+00 0. -1.
      99926    2    1    2    0    0  0.00000000000E+00  0.00000000000E+00  0.69512865244E+03  0.83222420594E+03  0.45759511089E+03 0.  0.
      99925    2    3    3    0    0  0.88838898462E+02 -0.73758597563E+02  0.42661770063E+03  0.51429603805E+03  0.26299253159E+03 0.  0.
         25    1    4    4    0    0  0.27528523559E+02 -0.19424341004E+02  0.13822269614E+03  0.18944167034E+03  0.12509000000E+03 0.  0.
         25    1    4    4    0    0  0.61310374903E+02 -0.54334256559E+02  0.28839500449E+03  0.32485436771E+03  0.12509000000E+03 0.  0.
         25    1    3    3    0    0 -0.88838898462E+02  0.73758597563E+02  0.26851095182E+03  0.31792816789E+03  0.12509000000E+03 0.  0.
<mgrwt>
<rscale>  2 0.45759511E+03</rscale>
<asrwt>0</asrwt>
<pdfrwt beam="1">  1       21 0.11230535E+00 0.45759511E+03</pdfrwt>
<pdfrwt beam="2">  1       21 0.10080556E-01 0.45759511E+03</pdfrwt>
<totfact> 0.45315578E+04</totfact>
</mgrwt>
</event>
<event>
 7    0  0.4725730E-002  0.4594231E+03  0.7546771E-02  0.1024949E+00
         21   -1    0    0  502  501  0.00000000000E+00  0.00000000000E+00  0.70369734493E+02  0.70369734493E+02  0.00000000000E+00 0. -1.
         21   -1    0    0  501  502 -0.00000000000E+00 -0.00000000000E+00 -0.74985936353E+03  0.74985936353E+03  0.00000000000E+00 0. -1.
      99926    2    1    2    0    0 -0.22204460493E-14  0.00000000000E+00 -0.67948962903E+03  0.82022909802E+03  0.45942313533E+03 0.  0.
      99925    2    3    3    0    0 -0.92189524420E+00  0.41900477671E+02 -0.23041749900E+03  0.35218018392E+03  0.26302501436E+03 0.  0.
         25    1    4    4    0    0 -0.17781310431E+02  0.49736465399E+02 -0.88438711399E+02  0.16204568728E+03  0.12509000000E+03 0.  0.
         25    1    3    3    0    0  0.92189524420E+00 -0.41900477671E+02 -0.44907213003E+03  0.46804891410E+03  0.12509000000E+03 0.  0.
         25    1    4    4    0    0  0.16859415186E+02 -0.78359877284E+01 -0.14197878760E+03  0.19013449664E+03  0.12509000000E+03 0.  0.
<mgrwt>
<rscale>  2 0.45942314E+03</rscale>
<asrwt>0</asrwt>
<pdfrwt beam="1">  1       21 0.10348490E-01 0.45942314E+03</pdfrwt>
<pdfrwt beam="2">  1       21 0.11027344E+00 0.45942314E+03</pdfrwt>
<totfact> 0.45212157E+04</totfact>
</mgrwt>
</event>
<event>
 7    0  0.4725730E-002  0.4536031E+03  0.7546771E-02  0.1026653E+00
         21   -1    0    0  502  501  0.00000000000E+00  0.00000000000E+00  0.13363433493E+03  0.13363433493E+03  0.00000000000E+00 0.  1.
         21   -1    0    0  501  502 -0.00000000000E+00 -0.00000000000E+00 -0.38492306023E+03  0.38492306023E+03  0.00000000000E+00 0.  1.
      99926    2    1    2    0    0  0.00000000000E+00  0.00000000000E+00 -0.25128872530E+03  0.51855739516E+03  0.45360307386E+03 0.  0.
      99925    2    3    3    0    0 -0.21714459793E+02 -0.44373991542E+02 -0.43701981659E+02  0.27121081013E+03  0.26306818782E+03 0.  0.
         25    1    4    4    0    0 -0.82748472710E+01 -0.62725766678E+02 -0.29789392419E+02  0.14331054010E+03  0.12509000000E+03 0.  0.
         25    1    4    4    0    0 -0.13439612522E+02  0.18351775136E+02 -0.13912589240E+02  0.12790027003E+03  0.12509000000E+03 0.  0.
         25    1    3    3    0    0  0.21714459793E+02  0.44373991542E+02 -0.20758674364E+03  0.24734658503E+03  0.12509000000E+03 0.  0.
<mgrwt>
<rscale>  2 0.45360307E+03</rscale>
<asrwt>0</asrwt>
<pdfrwt beam="1">  1       21 0.19652108E-01 0.45360307E+03</pdfrwt>
<pdfrwt beam="2">  1       21 0.56606331E-01 0.45360307E+03</pdfrwt>
<totfact> 0.64699771E+04</totfact>
</mgrwt>
</event>
<event>
 7    0  0.4725730E-002  0.4514239E+03  0.7546771E-02  0.1027298E+00
         21   -1    0    0  502  501  0.00000000000E+00  0.00000000000E+00  0.29132847280E+03  0.29132847280E+03  0.00000000000E+00 0.  1.
         21   -1    0    0  501  502 -0.00000000000E+00 -0.00000000000E+00 -0.17487439528E+03  0.17487439528E+03  0.00000000000E+00 0.  1.
      99926    2    1    2    0    0  0.00000000000E+00  0.00000000000E+00  0.11645407752E+03  0.46620286808E+03  0.45142392718E+03 0.  0.
      99925    2    3    3    0    0 -0.24679205061E+02 -0.10629106077E+03  0.86363183219E+02  0.29750247454E+03  0.26294917794E+03 0.  0.
         25    1    3    3    0    0  0.24679205061E+02  0.10629106077E+03  0.30090894300E+02  0.16870039354E+03  0.12509000000E+03 0.  0.
         25    1    4    4    0    0 -0.14044350772E+02 -0.34007119723E+02  0.31231089374E+01  0.13042618560E+03  0.12509000000E+03 0.  0.
         25    1    4    4    0    0 -0.10634854289E+02 -0.72283941042E+02  0.83240074282E+02  0.16707628894E+03  0.12509000000E+03 0.  0.
<mgrwt>
<rscale>  2 0.45142393E+03</rscale>
<asrwt>0</asrwt>
<pdfrwt beam="1">  1       21 0.42842422E-01 0.45142393E+03</pdfrwt>
<pdfrwt beam="2">  1       21 0.25716823E-01 0.45142393E+03</pdfrwt>
<totfact> 0.69674851E+04</totfact>
</mgrwt>
</event>
<event>
 7    0  0.4725730E-002  0.4575401E+03  0.7546771E-02  0.1025497E+00
         21   -1    0    0  502  501  0.00000000000E+00  0.00000000000E+00  0.10284549294E+03  0.10284549294E+03  0.00000000000E+00 0. -1.
         21   -1    0    0  501  502 -0.00000000000E+00 -0.00000000000E+00 -0.50887718582E+03  0.50887718582E+03  0.00000000000E+00 0. -1.
      99926    2    1    2    0    0  0.00000000000E+00  0.00000000000E+00 -0.40603169288E+03  0.61172267876E+03  0.45754005299E+03 0.  0.
      99925    2    3    3    0    0 -0.59703244621E+02 -0.68665057191E+02 -0.15993915765E+03  0.32105377521E+03  0.26308862562E+03 0.  0.
         25    1    3    3    0    0  0.59703244621E+02  0.68665057191E+02 -0.24609253523E+03  0.29066890356E+03  0.12509000000E+03 0.  0.
         25    1    4    4    0    0 -0.39740604648E+02 -0.57237165106E+02 -0.46281618022E+02  0.15048224146E+03  0.12509000000E+03 0.  0.
         25    1    4    4    0    0 -0.19962639972E+02 -0.11427892085E+02 -0.11365753962E+03  0.17057153375E+03  0.12509000000E+03 0.  0.
<mgrwt>
<rscale>  2 0.45754005E+03</rscale>
<asrwt>0</asrwt>
<pdfrwt beam="1">  1       21 0.15124338E-01 0.45754005E+03</pdfrwt>
<pdfrwt beam="2">  1       21 0.74834878E-01 0.45754005E+03</pdfrwt>
<totfact> 0.56813985E+04</totfact>
</mgrwt>
</event>
<event>
 7    0  0.4725730E-002  0.4502918E+03  0.7546771E-02  0.1027635E+00
         21   -1    0    0  502  501  0.00000000000E+00  0.00000000000E+00  0.25503012761E+03  0.25503012761E+03  0.00000000000E+00 0.  1.
         21   -1    0    0  501  502 -0.00000000000E+00 -0.00000000000E+00 -0.19876347438E+03  0.19876347438E+03  0.00000000000E+00 0.  1.
      99926    2    1    2    0    0  0.00000000000E+00  0.71054273576E-14  0.56266653227E+02  0.45379360199E+03  0.45029179089E+03 0.  0.
      99925    2    3    3    0    0 -0.87736438396E+02  0.55838162225E+02  0.36377353227E+01  0.28281730515E+03  0.26297682785E+03 0.  0.
         25    1    4    4    0    0 -0.29843860852E+02 -0.11493191445E+02 -0.45744079062E+01  0.12919436051E+03  0.12509000000E+03 0.  0.
         25    1    4    4    0    0 -0.57892577544E+02  0.67331353670E+02  0.82121432289E+01  0.15362294463E+03  0.12509000000E+03 0.  0.
         25    1    3    3    0    0  0.87736438396E+02 -0.55838162225E+02  0.52628917904E+02  0.17097629685E+03  0.12509000000E+03 0.  0.
<mgrwt>
<rscale>  2 0.45029179E+03</rscale>
<asrwt>0</asrwt>
<pdfrwt beam="1">  1       21 0.37504431E-01 0.45029179E+03</pdfrwt>
<pdfrwt beam="2">  1       21 0.29229923E-01 0.45029179E+03</pdfrwt>
<totfact> 0.71274024E+04</totfact>
</mgrwt>
</event>
<event>
 7    0  0.4725730E-002  0.4562478E+03  0.7546771E-02  0.1025875E+00
         21   -1    0    0  502  501  0.00000000000E+00  0.00000000000E+00  0.30058338520E+03  0.30058338520E+03  0.00000000000E+00 0.  1.
         21   -1    0    0  501  502 -0.00000000000E+00 -0.00000000000E+00 -0.17313168781E+03  0.17313168781E+03  0.00000000000E+00 0.  1.
      99926    2    1    2    0    0  0.14210854715E-13  0.44408920985E-14  0.12745169738E+03  0.47371507301E+03  0.45624777833E+03 0.  0.
      99925    2    3    3    0    0  0.11420612983E+03  0.57356126391E+01  0.81643911757E+02  0.29815369153E+03  0.26297140168E+03 0.  0.
         25    1    4    4    0    0  0.33909792664E+02 -0.29920788489E+02  0.49668577476E+02  0.14198451786E+03  0.12509000000E+03 0.  0.
         25    1    4    4    0    0  0.80296337169E+02  0.35656401128E+02  0.31975334281E+02  0.15616917368E+03  0.12509000000E+03 0.  0.
         25    1    3    3    0    0 -0.11420612983E+03 -0.57356126391E+01  0.45807785628E+02  0.17556138148E+03  0.12509000000E+03 0.  0.
<mgrwt>
<rscale>  2 0.45624778E+03</rscale>
<asrwt>0</asrwt>
<pdfrwt beam="1">  1       21 0.44203439E-01 0.45624778E+03</pdfrwt>
<pdfrwt beam="2">  1       21 0.25460542E-01 0.45624778E+03</pdfrwt>
<totfact> 0.66499701E+04</totfact>
</mgrwt>
</event>
<event>
 7    0  0.4725730E-002  0.4598732E+03  0.7546771E-02  0.1024818E+00
         21   -1    0    0  502  501  0.00000000000E+00  0.00000000000E+00  0.19789261573E+03  0.19789261573E+03  0.00000000000E+00 0.  1.
         21   -1    0    0  501  502 -0.00000000000E+00 -0.00000000000E+00 -0.26716929233E+03  0.26716929233E+03  0.00000000000E+00 0.  1.
      99926    2    1    2    0    0  0.35527136788E-14  0.00000000000E+00 -0.69276676596E+02  0.46506190807E+03  0.45987315687E+03 0.  0.
      99925    2    3    3    0    0 -0.31738299485E+02 -0.10782394039E+03 -0.78756212661E+02  0.29662589208E+03  0.26296588571E+03 0.  0.
         25    1    3    3    0    0  0.31738299485E+02  0.10782394039E+03  0.94795360644E+01  0.16843601598E+03  0.12509000000E+03 0.  0.
         25    1    4    4    0    0 -0.14107965221E+02 -0.12088591590E+02 -0.22586174515E+02  0.12846327144E+03  0.12509000000E+03 0.  0.
         25    1    4    4    0    0 -0.17630334264E+02 -0.95735348804E+02 -0.56170038146E+02  0.16816262065E+03  0.12509000000E+03 0.  0.
<mgrwt>
<rscale>  2 0.45987316E+03</rscale>
<asrwt>0</asrwt>
<pdfrwt beam="1">  1       21 0.29101855E-01 0.45987316E+03</pdfrwt>
<pdfrwt beam="2">  1       21 0.39289602E-01 0.45987316E+03</pdfrwt>
<totfact> 0.65240756E+04</totfact>
</mgrwt>
</event>
<event>
 7    0  0.4725730E-002  0.4540074E+03  0.7546771E-02  0.1026534E+00
         21   -1    0    0  502  501  0.00000000000E+00  0.00000000000E+00  0.55148149055E+03  0.55148149055E+03  0.00000000000E+00 0. -1.
         21   -1    0    0  501  502 -0.00000000000E+00 -0.00000000000E+00 -0.93440449217E+02  0.93440449217E+02  0.00000000000E+00 0. -1.
      99926    2    1    2    0    0  0.00000000000E+00  0.00000000000E+00  0.45804104134E+03  0.64492193977E+03  0.45400739294E+03 0.  0.
      99925    2    3    3    0    0 -0.39919370037E+02 -0.10491792719E+03  0.28840933940E+03  0.40612547842E+03  0.26297648111E+03 0.  0.
         25    1    3    3    0    0  0.39919370037E+02  0.10491792719E+03  0.16963170194E+03  0.23879646135E+03  0.12509000000E+03 0.  0.
         25    1    4    4    0    0  0.20289940445E+02 -0.47601357758E+02  0.12641757872E+03  0.18522009409E+03  0.12509000000E+03 0.  0.
         25    1    4    4    0    0 -0.60209310483E+02 -0.57316569435E+02  0.16199176068E+03  0.22090538433E+03  0.12509000000E+03 0.  0.
<mgrwt>
<rscale>  2 0.45400739E+03</rscale>
<asrwt>0</asrwt>
<pdfrwt beam="1">  1       21 0.81100217E-01 0.45400739E+03</pdfrwt>
<pdfrwt beam="2">  1       21 0.13741243E-01 0.45400739E+03</pdfrwt>
<totfact> 0.56435687E+04</totfact>
</mgrwt>
</event>
<event>
 7    0  0.4725730E-002  0.4594866E+03  0.7546771E-02  0.1024930E+00
         21   -1    0    0  502  501  0.00000000000E+00  0.00000000000E+00  0.27690662729E+02  0.27690662729E+02  0.00000000000E+00 0.  1.
         21   -1    0    0  501  502 -0.00000000000E+00 -0.00000000000E+00 -0.19061296664E+04  0.19061296664E+04  0.00000000000E+00 0.  1.
      99926    2    1    2    0    0 -0.35527136788E-14  0.14210854715E-13 -0.18784390037E+04  0.19338203292E+04  0.45948664272E+03 0.  0.
      99925    2    3    3    0    0  0.30225260599E+02  0.10941009515E+03 -0.13023336557E+04  0.13334629227E+04  0.26299482953E+03 0.  0.
         25    1    3    3    0    0 -0.30225260599E+02 -0.10941009515E+03 -0.57610534804E+03  0.60035740642E+03  0.12509000000E+03 0.  0.
         25    1    4    4    0    0  0.37856610927E+02  0.46198961318E+02 -0.79852183189E+03  0.81046412081E+03  0.12509000000E+03 0.  0.
         25    1    4    4    0    0 -0.76313503276E+01  0.63211133836E+02 -0.50381182376E+03  0.52299880192E+03  0.12509000000E+03 0.  0.
<mgrwt>
<rscale>  2 0.45948664E+03</rscale>
<asrwt>0</asrwt>
<pdfrwt beam="1">  1       21 0.40721545E-02 0.45948664E+03</pdfrwt>
<pdfrwt beam="2">  1       21 0.28031331E+00 0.45948664E+03</pdfrwt>
<totfact> 0.14315546E+04</totfact>
</mgrwt>
</event>
<event>
 7    0  0.4725730E-002  0.4580110E+03  0.7546771E-02  0.1025360E+00
         21   -1    0    0  502  501  0.00000000000E+00  0.00000000000E+00  0.19254714197E+04  0.19254714197E+04  0.00000000000E+00 0. -1.
         21   -1    0    0  501  502 -0.00000000000E+00 -0.00000000000E+00 -0.27236719573E+02  0.27236719573E+02  0.00000000000E+00 0. -1.
      99926    2    1    2    0    0  0.35527136788E-14  0.00000000000E+00  0.18982347001E+04  0.19527081393E+04  0.45801102653E+03 0.  0.
      99925    2    3    3    0    0  0.22160587875E+02 -0.35158107048E+02  0.73035083958E+03  0.77740928197E+03  0.26310769407E+03 0.  0.
         25    1    4    4    0    0 -0.23118942010E+02 -0.20019062785E+02  0.29367048554E+03  0.32066354725E+03  0.12509000000E+03 0.  0.
         25    1    3    3    0    0 -0.22160587875E+02  0.35158107048E+02  0.11678838605E+04  0.11752988573E+04  0.12509000000E+03 0.  0.
         25    1    4    4    0    0  0.45279529885E+02 -0.15139044263E+02  0.43668035404E+03  0.45674573473E+03  0.12509000000E+03 0.  0.
<mgrwt>
<rscale>  2 0.45801103E+03</rscale>
<asrwt>0</asrwt>
<pdfrwt beam="1">  1       21 0.28315747E+00 0.45801103E+03</pdfrwt>
<pdfrwt beam="2">  1       21 0.40054013E-02 0.45801103E+03</pdfrwt>
<totfact> 0.14163692E+04</totfact>
</mgrwt>
</event>
<event>
 7    0  0.4725730E-002  0.4515327E+03  0.7546771E-02  0.1027266E+00
         21   -1    0    0  502  501  0.00000000000E+00  0.00000000000E+00  0.94337944023E+02  0.94337944023E+02  0.00000000000E+00 0. -1.
         21   -1    0    0  501  502 -0.00000000000E+00 -0.00000000000E+00 -0.54029624400E+03  0.54029624400E+03  0.00000000000E+00 0. -1.
      99926    2    1    2    0    0  0.00000000000E+00  0.00000000000E+00 -0.44595829997E+03  0.63463418802E+03  0.45153266470E+03 0.  0.
      99925    2    3    3    0    0 -0.97062666605E+02 -0.35052213029E+02 -0.22875457624E+03  0.36357186200E+03  0.26307037803E+03 0.  0.
         25    1    4    4    0    0 -0.24322499066E+02 -0.74863846201E+01 -0.14849716979E+03  0.19582274498E+03  0.12509000000E+03 0.  0.
         25    1    4    4    0    0 -0.72740167539E+02 -0.27565828409E+02 -0.80257406448E+02  0.16774911701E+03  0.12509000000E+03 0.  0.
         25    1    3    3    0    0  0.97062666605E+02  0.35052213029E+02 -0.21720372373E+03  0.27106232602E+03  0.12509000000E+03 0.  0.
<mgrwt>
<rscale>  2 0.45153266E+03</rscale>
<asrwt>0</asrwt>
<pdfrwt beam="1">  1       21 0.13873227E-01 0.45153266E+03</pdfrwt>
<pdfrwt beam="2">  1       21 0.79455331E-01 0.45153266E+03</pdfrwt>
<totfact> 0.58171189E+04</totfact>
</mgrwt>
</event>
<event>
 7    0  0.4725730E-002  0.4531633E+03  0.7546771E-02  0.1026783E+00
         21   -1    0    0  502  501  0.00000000000E+00  0.00000000000E+00  0.71712509687E+02  0.71712509687E+02  0.00000000000E+00 0.  1.
         21   -1    0    0  501  502 -0.00000000000E+00 -0.00000000000E+00 -0.71590370016E+03  0.71590370016E+03  0.00000000000E+00 0.  1.
      99926    2    1    2    0    0  0.17763568394E-14  0.00000000000E+00 -0.64419119048E+03  0.78761620985E+03  0.45316333052E+03 0.  0.
      99925    2    3    3    0    0  0.15670080378E+02 -0.99276733768E+02 -0.32156177643E+03  0.42728487872E+03  0.26280976054E+03 0.  0.
         25    1    3    3    0    0 -0.15670080378E+02  0.99276733768E+02 -0.32262941405E+03  0.36033133113E+03  0.12509000000E+03 0.  0.
         25    1    4    4    0    0  0.27872324615E+02 -0.87327912518E+02 -0.17369185377E+03  0.23285059362E+03  0.12509000000E+03 0.  0.
         25    1    4    4    0    0 -0.12202244237E+02 -0.11948821250E+02 -0.14786992266E+03  0.19443428510E+03  0.12509000000E+03 0.  0.
<mgrwt>
<rscale>  2 0.45316333E+03</rscale>
<asrwt>0</asrwt>
<pdfrwt beam="1">  1       21 0.10545958E-01 0.45316333E+03</pdfrwt>
<pdfrwt beam="2">  1       21 0.10527995E+00 0.45316333E+03</pdfrwt>
<totfact> 0.49073252E+04</totfact>
</mgrwt>
</event>
<event>
 7    0  0.4725730E-002  0.4203838E+03  0.7546771E-02  0.1036941E+00
         21   -1    0    0  502  501  0.00000000000E+00  0.00000000000E+00  0.59124483879E+02  0.59124483879E+02  0.00000000000E+00 0. -1.
         21   -1    0    0  501  502 -0.00000000000E+00 -0.00000000000E+00 -0.74724767698E+03  0.74724767698E+03  0.00000000000E+00 0. -1.
      99926    2    1    2    0    0  0.35527136788E-14  0.00000000000E+00 -0.68812319310E+03  0.80637216086E+03  0.42038379242E+03 0.  0.
      99925    2    3    3    0    0  0.23635151550E+02  0.41525257471E+02 -0.33354029892E+03  0.42734774959E+03  0.26285737706E+03 0.  0.
         25    1    4    4    0    0  0.37880958426E+01  0.18450219434E+02 -0.10231115057E+03  0.16269554357E+03  0.12509000000E+03 0.  0.
         25    1    3    3    0    0 -0.23635151550E+02 -0.41525257471E+02 -0.35458289418E+03  0.37902441127E+03  0.12509000000E+03 0.  0.
         25    1    4    4    0    0  0.19847055707E+02  0.23075038037E+02 -0.23122914835E+03  0.26465220602E+03  0.12509000000E+03 0.  0.
<mgrwt>
<rscale>  2 0.42038379E+03</rscale>
<asrwt>0</asrwt>
<pdfrwt beam="1">  1       21 0.86947773E-02 0.42038379E+03</pdfrwt>
<pdfrwt beam="2">  1       21 0.10988936E+00 0.42038379E+03</pdfrwt>
<totfact> 0.62875337E+04</totfact>
</mgrwt>
</event>
<event>
 7    0  0.4725730E-002  0.4485697E+03  0.7546771E-02  0.1028149E+00
         21   -1    0    0  502  501  0.00000000000E+00  0.00000000000E+00  0.66803423959E+02  0.66803423959E+02  0.00000000000E+00 0.  1.
         21   -1    0    0  501  502 -0.00000000000E+00 -0.00000000000E+00 -0.75301084678E+03  0.75301084678E+03  0.00000000000E+00 0.  1.
      99926    2    1    2    0    0  0.00000000000E+00  0.00000000000E+00 -0.68620742282E+03  0.81981427074E+03  0.44856973970E+03 0.  0.
      99925    2    3    3    0    0  0.63346361230E+02 -0.15827908740E+02 -0.27925410667E+03  0.38909186152E+03  0.26295690984E+03 0.  0.
         25    1    3    3    0    0 -0.63346361230E+02  0.15827908740E+02 -0.40695331615E+03  0.43072240921E+03  0.12509000000E+03 0.  0.
         25    1    4    4    0    0  0.34241052090E+02 -0.11764101469E+02 -0.82706580434E+02  0.15426837096E+03  0.12509000000E+03 0.  0.
         25    1    4    4    0    0  0.29105309139E+02 -0.40638072712E+01 -0.19654752624E+03  0.23482349056E+03  0.12509000000E+03 0.  0.
<mgrwt>
<rscale>  2 0.44856974E+03</rscale>
<asrwt>0</asrwt>
<pdfrwt beam="1">  1       21 0.98240332E-02 0.44856974E+03</pdfrwt>
<pdfrwt beam="2">  1       21 0.11073689E+00 0.44856974E+03</pdfrwt>
<totfact> 0.49260153E+04</totfact>
</mgrwt>
</event>
<event>
 7    0  0.4725730E-002  0.4519508E+03  0.7546771E-02  0.1027142E+00
         21   -1    0    0  502  501  0.00000000000E+00  0.00000000000E+00  0.56306784121E+03  0.56306784121E+03  0.00000000000E+00 0.  1.
         21   -1    0    0  501  502 -0.00000000000E+00 -0.00000000000E+00 -0.90690460354E+02  0.90690460354E+02  0.00000000000E+00 0.  1.
      99926    2    1    2    0    0 -0.14210854715E-13 -0.71054273576E-14  0.47237738086E+03  0.65375830156E+03  0.45195080144E+03 0.  0.
      99925    2    3    3    0    0 -0.91061768854E+02 -0.57029436059E+02  0.26224449924E+03  0.38664795291E+03  0.26302064516E+03 0.  0.
         25    1    4    4    0    0 -0.80222955778E+02 -0.35024948097E+02  0.17467784487E+03  0.23199639483E+03  0.12509000000E+03 0.  0.
         25    1    4    4    0    0 -0.10838813076E+02 -0.22004487962E+02  0.87566654369E+02  0.15465155808E+03  0.12509000000E+03 0.  0.
         25    1    3    3    0    0  0.91061768854E+02  0.57029436059E+02  0.21013288161E+03  0.26711034866E+03  0.12509000000E+03 0.  0.
<mgrwt>
<rscale>  2 0.45195080E+03</rscale>
<asrwt>0</asrwt>
<pdfrwt beam="1">  1       21 0.82804092E-01 0.45195080E+03</pdfrwt>
<pdfrwt beam="2">  1       21 0.13336833E-01 0.45195080E+03</pdfrwt>
<totfact> 0.56840296E+04</totfact>
</mgrwt>
</event>
<event>
 7    0  0.4725730E-002  0.4528814E+03  0.7546771E-02  0.1026866E+00
         21   -1    0    0  502  501  0.00000000000E+00  0.00000000000E+00  0.34768467931E+03  0.34768467931E+03  0.00000000000E+00 0. -1.
         21   -1    0    0  501  502 -0.00000000000E+00 -0.00000000000E+00 -0.14747673393E+03  0.14747673393E+03  0.00000000000E+00 0. -1.
      99926    2    1    2    0    0  0.14210854715E-13 -0.71054273576E-14  0.20020794538E+03  0.49516141324E+03  0.45288144560E+03 0.  0.
      99925    2    3    3    0    0  0.93004878998E+02 -0.52874936320E+02  0.15890281794E+03  0.32545788333E+03  0.26311036062E+03 0.  0.
         25    1    4    4    0    0  0.30819163572E+02 -0.49968609695E+02  0.45422991953E+02  0.14545596961E+03  0.12509000000E+03 0.  0.
         25    1    3    3    0    0 -0.93004878998E+02  0.52874936320E+02  0.41305127443E+02  0.16970352990E+03  0.12509000000E+03 0.  0.
         25    1    4    4    0    0  0.62185715426E+02 -0.29063266255E+01  0.11347982599E+03  0.18000191372E+03  0.12509000000E+03 0.  0.
<mgrwt>
<rscale>  2 0.45288145E+03</rscale>
<asrwt>0</asrwt>
<pdfrwt beam="1">  1       21 0.51130099E-01 0.45288145E+03</pdfrwt>
<pdfrwt beam="2">  1       21 0.21687755E-01 0.45288145E+03</pdfrwt>
<totfact> 0.66727112E+04</totfact>
</mgrwt>
</event>
