<event>
 7    0  0.4766352E-002  0.4586603E+03  0.7546771E-02  0.1025170E+00
         21   -1    0    0  502  501  0.00000000000E+00  0.00000000000E+00  0.60920071994E+03  0.60920071994E+03  0.00000000000E+00 0.  1.
         21   -1    0    0  501  502 -0.00000000000E+00 -0.00000000000E+00 -0.86330020700E+02  0.86330020700E+02  0.00000000000E+00 0.  1.
      99926    2    1    2    0    0 -0.14210854715E-13 -0.71054273576E-14  0.52287069924E+03  0.69553074064E+03  0.45866026975E+03 0.  0.
      99925    2    3    3    0    0 -0.93140125969E+02 -0.55209628861E+02  0.39339359997E+03  0.48544739165E+03  0.26301608199E+03 0.  0.
         25    1    4    4    0    0 -0.54127825546E+02 -0.60901938467E+02  0.16863679817E+03  0.22522154738E+03  0.12509000000E+03 0.  0.
         25    1    3    3    0    0  0.93140125969E+02  0.55209628861E+02  0.12947709927E+03  0.21008334898E+03  0.12509000000E+03 0.  0.
         25    1    4    4    0    0 -0.39012300423E+02  0.56923096055E+01  0.22475680180E+03  0.26022584428E+03  0.12509000000E+03 0.  0.
<mgrwt>
<rscale>  2 0.45866027E+03</rscale>
<asrwt>0</asrwt>
<pdfrwt beam="1">  1       21 0.89588339E-01 0.45866027E+03</pdfrwt>
<pdfrwt beam="2">  1       21 0.12695592E-01 0.45866027E+03</pdfrwt>
<totfact> 0.51642359E+04</totfact>
</mgrwt>
</event>
<event>
 7    0  0.4766352E-002  0.4555579E+03  0.7546771E-02  0.1026077E+00
         21   -1    0    0  502  501  0.00000000000E+00  0.00000000000E+00  0.31104924511E+03  0.31104924511E+03  0.00000000000E+00 0. -1.
         21   -1    0    0  501  502 -0.00000000000E+00 -0.00000000000E+00 -0.16680077411E+03  0.16680077411E+03  0.00000000000E+00 0. -1.
      99926    2    1    2    0    0  0.00000000000E+00  0.00000000000E+00  0.14424847100E+03  0.47785001921E+03  0.45555792110E+03 0.  0.
      99925    2    3    3    0    0  0.50517130487E+02  0.52776958378E+02  0.18215680992E+03  0.32811045174E+03  0.26294101492E+03 0.  0.
         25    1    4    4    0    0  0.40332503326E+02  0.54102622066E+02  0.64524684211E+02  0.15609211227E+03  0.12509000000E+03 0.  0.
         25    1    4    4    0    0  0.10184627161E+02 -0.13256636877E+01  0.11763212571E+03  0.17201833947E+03  0.12509000000E+03 0.  0.
         25    1    3    3    0    0 -0.50517130487E+02 -0.52776958378E+02 -0.37908338925E+02  0.14973956748E+03  0.12509000000E+03 0.  0.
<mgrwt>
<rscale>  2 0.45555792E+03</rscale>
<asrwt>0</asrwt>
<pdfrwt beam="1">  1       21 0.45742536E-01 0.45555792E+03</pdfrwt>
<pdfrwt beam="2">  1       21 0.24529526E-01 0.45555792E+03</pdfrwt>
<totfact> 0.66561704E+04</totfact>
</mgrwt>
</event>
<event>
 7    0  0.4766352E-002  0.4656129E+03  0.7546771E-02  0.1023166E+00
         21   -1    0    0  502  501  0.00000000000E+00  0.00000000000E+00  0.47834401628E+03  0.47834401628E+03  0.00000000000E+00 0.  1.
         21   -1    0    0  501  502 -0.00000000000E+00 -0.00000000000E+00 -0.11330516468E+03  0.11330516468E+03  0.00000000000E+00 0.  1.
      99926    2    1    2    0    0  0.14210854715E-13  0.35527136788E-14  0.36503885160E+03  0.59164918095E+03  0.46561291879E+03 0.  0.
      99925    2    3    3    0    0 -0.11987904320E+03 -0.20760149822E+02  0.25796829501E+03  0.38692111495E+03  0.26145427735E+03 0.  0.
         25    1    4    4    0    0 -0.82477785227E+02  0.10368732343E+02  0.16793914078E+03  0.22530237187E+03  0.12509000000E+03 0.  0.
         25    1    3    3    0    0  0.11987904320E+03  0.20760149822E+02  0.10707055660E+03  0.20472806600E+03  0.12509000000E+03 0.  0.
         25    1    4    4    0    0 -0.37401257974E+02 -0.31128882165E+02  0.90029154231E+02  0.16161874308E+03  0.12509000000E+03 0.  0.
<mgrwt>
<rscale>  2 0.46561292E+03</rscale>
<asrwt>0</asrwt>
<pdfrwt beam="1">  1       21 0.70344707E-01 0.46561292E+03</pdfrwt>
<pdfrwt beam="2">  1       21 0.16662524E-01 0.46561292E+03</pdfrwt>
<totfact> 0.54479686E+04</totfact>
</mgrwt>
</event>
<event>
 7    0  0.4766352E-002  0.4558961E+03  0.7546771E-02  0.1025978E+00
         21   -1    0    0  502  501  0.00000000000E+00  0.00000000000E+00  0.46620183060E+02  0.46620183060E+02  0.00000000000E+00 0. -1.
         21   -1    0    0  501  502 -0.00000000000E+00 -0.00000000000E+00 -0.11145453712E+04  0.11145453712E+04  0.00000000000E+00 0. -1.
      99926    2    1    2    0    0  0.00000000000E+00  0.00000000000E+00 -0.10679251881E+04  0.11611655542E+04  0.45589608129E+03 0.  0.
      99925    2    3    3    0    0  0.37553154548E+02  0.72809313344E+02 -0.87399063386E+03  0.91627873352E+03  0.26267023795E+03 0.  0.
         25    1    4    4    0    0  0.50863495509E+02  0.61472838765E+02 -0.49876346703E+03  0.52036382390E+03  0.12509000000E+03 0.  0.
         25    1    3    3    0    0 -0.37553154548E+02 -0.72809313344E+02 -0.19393455427E+03  0.24488682072E+03  0.12509000000E+03 0.  0.
         25    1    4    4    0    0 -0.13310340961E+02  0.11336474580E+02 -0.37522716684E+03  0.39591490963E+03  0.12509000000E+03 0.  0.
<mgrwt>
<rscale>  2 0.45589608E+03</rscale>
<asrwt>0</asrwt>
<pdfrwt beam="1">  1       21 0.68559093E-02 0.45589608E+03</pdfrwt>
<pdfrwt beam="2">  1       21 0.16390373E+00 0.45589608E+03</pdfrwt>
<totfact> 0.33179453E+04</totfact>
</mgrwt>
</event>
<event>
 7    0  0.4766352E-002  0.4528249E+03  0.7546771E-02  0.1026883E+00
         21   -1    0    0  502  501  0.00000000000E+00  0.00000000000E+00  0.46623909409E+02  0.46623909409E+02  0.00000000000E+00 0. -1.
         21   -1    0    0  501  502 -0.00000000000E+00 -0.00000000000E+00 -0.10994914003E+04  0.10994914003E+04  0.00000000000E+00 0. -1.
      99926    2    1    2    0    0  0.71054273576E-14 -0.14210854715E-13 -0.10528674909E+04  0.11461153097E+04  0.45282485553E+03 0.  0.
      99925    2    3    3    0    0 -0.46770683041E+02  0.10063921297E+03 -0.65152657319E+03  0.71133054882E+03  0.26303711932E+03 0.  0.
         25    1    3    3    0    0  0.46770683041E+02 -0.10063921297E+03 -0.40134091773E+03  0.43478476092E+03  0.12509000000E+03 0.  0.
         25    1    4    4    0    0 -0.58083516385E+02  0.62434010842E+02 -0.29877413860E+03  0.33494058366E+03  0.12509000000E+03 0.  0.
         25    1    4    4    0    0  0.11312833344E+02  0.38205202130E+02 -0.35275243458E+03  0.37638996516E+03  0.12509000000E+03 0.  0.
<mgrwt>
<rscale>  2 0.45282486E+03</rscale>
<asrwt>0</asrwt>
<pdfrwt beam="1">  1       21 0.68564572E-02 0.45282486E+03</pdfrwt>
<pdfrwt beam="2">  1       21 0.16168991E+00 0.45282486E+03</pdfrwt>
<totfact> 0.34493399E+04</totfact>
</mgrwt>
</event>
<event>
 7    0  0.4766352E-002  0.4535290E+03  0.7546771E-02  0.1026675E+00
         21   -1    0    0  502  501  0.00000000000E+00  0.00000000000E+00  0.59073954714E+03  0.59073954714E+03  0.00000000000E+00 0. -1.
         21   -1    0    0  501  502 -0.00000000000E+00 -0.00000000000E+00 -0.87047049949E+02  0.87047049949E+02  0.00000000000E+00 0. -1.
      99926    2    1    2    0    0  0.00000000000E+00  0.00000000000E+00  0.50369249719E+03  0.67778659709E+03  0.45352898415E+03 0.  0.
      99925    2    3    3    0    0  0.11060315250E+03 -0.14708277110E+02  0.32575916442E+03  0.43333380048E+03  0.26307747657E+03 0.  0.
         25    1    4    4    0    0  0.81449624764E+02 -0.19884255847E+02  0.12890471460E+03  0.19822552447E+03  0.12509000000E+03 0.  0.
         25    1    3    3    0    0 -0.11060315250E+03  0.14708277110E+02  0.17793333277E+03  0.24445279661E+03  0.12509000000E+03 0.  0.
         25    1    4    4    0    0  0.29153527737E+02  0.51759787368E+01  0.19685444982E+03  0.23510827601E+03  0.12509000000E+03 0.  0.
<mgrwt>
<rscale>  2 0.45352898E+03</rscale>
<asrwt>0</asrwt>
<pdfrwt beam="1">  1       21 0.86873461E-01 0.45352898E+03</pdfrwt>
<pdfrwt beam="2">  1       21 0.12801037E-01 0.45352898E+03</pdfrwt>
<totfact> 0.54757754E+04</totfact>
</mgrwt>
</event>
<event>
 7    0  0.4766352E-002  0.4672479E+03  0.7546771E-02  0.1022700E+00
         21   -1    0    0  502  501  0.00000000000E+00  0.00000000000E+00  0.84020237525E+03  0.84020237525E+03  0.00000000000E+00 0.  1.
         21   -1    0    0  501  502 -0.00000000000E+00 -0.00000000000E+00 -0.64960716842E+02  0.64960716842E+02  0.00000000000E+00 0.  1.
      99926    2    1    2    0    0  0.00000000000E+00  0.00000000000E+00  0.77524165841E+03  0.90516309209E+03  0.46724789390E+03 0.  0.
      99925    2    3    3    0    0 -0.10830654871E+03 -0.48439625331E+02  0.55458773055E+03  0.62514100408E+03  0.26297722014E+03 0.  0.
         25    1    3    3    0    0  0.10830654871E+03  0.48439625331E+02  0.22065392786E+03  0.28002208801E+03  0.12509000000E+03 0.  0.
         25    1    4    4    0    0 -0.89612987989E+02 -0.22099233307E+02  0.25148758790E+03  0.29565584502E+03  0.12509000000E+03 0.  0.
         25    1    4    4    0    0 -0.18693560716E+02 -0.26340392024E+02  0.30310014265E+03  0.32948515906E+03  0.12509000000E+03 0.  0.
<mgrwt>
<rscale>  2 0.46724789E+03</rscale>
<asrwt>0</asrwt>
<pdfrwt beam="1">  1       21 0.12355917E+00 0.46724789E+03</pdfrwt>
<pdfrwt beam="2">  1       21 0.95530471E-02 0.46724789E+03</pdfrwt>
<totfact> 0.39122674E+04</totfact>
</mgrwt>
</event>
<event>
 7    0  0.4766352E-002  0.4496199E+03  0.7546771E-02  0.1027835E+00
         21   -1    0    0  502  501  0.00000000000E+00  0.00000000000E+00  0.62916613779E+02  0.62916613779E+02  0.00000000000E+00 0.  1.
         21   -1    0    0  501  502 -0.00000000000E+00 -0.00000000000E+00 -0.80327778652E+03  0.80327778652E+03  0.00000000000E+00 0.  1.
      99926    2    1    2    0    0  0.14210854715E-13  0.35527136788E-14 -0.74036117274E+03  0.86619440030E+03  0.44961992061E+03 0.  0.
      99925    2    3    3    0    0 -0.10275952390E+03 -0.23006090027E+02 -0.42124375142E+03  0.50762469072E+03  0.26295955696E+03 0.  0.
         25    1    4    4    0    0 -0.26608174251E+02  0.64166744788E+01 -0.14397340049E+03  0.19267853227E+03  0.12509000000E+03 0.  0.
         25    1    4    4    0    0 -0.76151349647E+02 -0.29422764506E+02 -0.27727035093E+03  0.31494615846E+03  0.12509000000E+03 0.  0.
         25    1    3    3    0    0  0.10275952390E+03  0.23006090027E+02 -0.31911742133E+03  0.35856970958E+03  0.12509000000E+03 0.  0.
<mgrwt>
<rscale>  2 0.44961992E+03</rscale>
<asrwt>0</asrwt>
<pdfrwt beam="1">  1       21 0.92524430E-02 0.44961992E+03</pdfrwt>
<pdfrwt beam="2">  1       21 0.11812909E+00 0.44961992E+03</pdfrwt>
<totfact> 0.46661192E+04</totfact>
</mgrwt>
</event>
<event>
 7    0  0.4766352E-002  0.4552781E+03  0.7546771E-02  0.1026160E+00
         21   -1    0    0  502  501  0.00000000000E+00  0.00000000000E+00  0.29675863915E+03  0.29675863915E+03  0.00000000000E+00 0. -1.
         21   -1    0    0  501  502 -0.00000000000E+00 -0.00000000000E+00 -0.17461848786E+03  0.17461848786E+03  0.00000000000E+00 0. -1.
      99926    2    1    2    0    0  0.35527136788E-14 -0.35527136788E-14  0.12214015130E+03  0.47137712701E+03  0.45527813401E+03 0.  0.
      99925    2    3    3    0    0 -0.23820431915E+02 -0.29661633024E+02  0.18743403033E+03  0.32523327942E+03  0.26305502250E+03 0.  0.
         25    1    4    4    0    0  0.62744094530E+01 -0.26860691585E+02  0.51540542878E+02  0.13807534402E+03  0.12509000000E+03 0.  0.
         25    1    4    4    0    0 -0.30094841368E+02 -0.28009414388E+01  0.13589348745E+03  0.18715793540E+03  0.12509000000E+03 0.  0.
         25    1    3    3    0    0  0.23820431915E+02  0.29661633024E+02 -0.65293879034E+02  0.14614384759E+03  0.12509000000E+03 0.  0.
<mgrwt>
<rscale>  2 0.45527813E+03</rscale>
<asrwt>0</asrwt>
<pdfrwt beam="1">  1       21 0.43640976E-01 0.45527813E+03</pdfrwt>
<pdfrwt beam="2">  1       21 0.25679189E-01 0.45527813E+03</pdfrwt>
<totfact> 0.67185060E+04</totfact>
</mgrwt>
</event>
<event>
 7    0  0.4766352E-002  0.4507412E+03  0.7546771E-02  0.1027501E+00
         21   -1    0    0  502  501  0.00000000000E+00  0.00000000000E+00  0.44824740745E+03  0.44824740745E+03  0.00000000000E+00 0.  1.
         21   -1    0    0  501  502 -0.00000000000E+00 -0.00000000000E+00 -0.11331221222E+03  0.11331221222E+03  0.00000000000E+00 0.  1.
      99926    2    1    2    0    0  0.00000000000E+00  0.00000000000E+00  0.33493519523E+03  0.56155961967E+03  0.45074119119E+03 0.  0.
      99925    2    3    3    0    0  0.29178843866E+01 -0.41806264872E+02  0.33712513073E+03  0.42961803506E+03  0.26298673815E+03 0.  0.
         25    1    4    4    0    0  0.50148610213E+01  0.25984467270E+01  0.11064631398E+03  0.16709882003E+03  0.12509000000E+03 0.  0.
         25    1    4    4    0    0 -0.20969766347E+01 -0.44404711599E+02  0.22647881675E+03  0.26251921503E+03  0.12509000000E+03 0.  0.
         25    1    3    3    0    0 -0.29178843866E+01  0.41806264872E+02 -0.21899355064E+01  0.13194158461E+03  0.12509000000E+03 0.  0.
<mgrwt>
<rscale>  2 0.45074119E+03</rscale>
<asrwt>0</asrwt>
<pdfrwt beam="1">  1       21 0.65918736E-01 0.45074119E+03</pdfrwt>
<pdfrwt beam="2">  1       21 0.16663561E-01 0.45074119E+03</pdfrwt>
<totfact> 0.63211570E+04</totfact>
</mgrwt>
</event>
<event>
 7    0  0.4766352E-002  0.4570584E+03  0.7546771E-02  0.1025638E+00
         21   -1    0    0  502  501  0.00000000000E+00  0.00000000000E+00  0.21380903646E+02  0.21380903646E+02  0.00000000000E+00 0. -1.
         21   -1    0    0  501  502 -0.00000000000E+00 -0.00000000000E+00 -0.24426283226E+04  0.24426283226E+04  0.00000000000E+00 0. -1.
      99926    2    1    2    0    0  0.17763568394E-14  0.14210854715E-13 -0.24212474190E+04  0.24640092263E+04  0.45705842432E+03 0.  0.
      99925    2    3    3    0    0 -0.14837127337E+02 -0.93669808780E+02 -0.11729302500E+04  0.12058608106E+04  0.26332631794E+03 0.  0.
         25    1    4    4    0    0  0.25787865478E+01 -0.28374892095E+02 -0.71321473176E+03  0.72466167716E+03  0.12509000000E+03 0.  0.
         25    1    4    4    0    0 -0.17415913885E+02 -0.65294916685E+02 -0.45971551824E+03  0.48119913343E+03  0.12509000000E+03 0.  0.
         25    1    3    3    0    0  0.14837127337E+02  0.93669808780E+02 -0.12483171690E+04  0.12581484157E+04  0.12509000000E+03 0.  0.
<mgrwt>
<rscale>  2 0.45705842E+03</rscale>
<asrwt>0</asrwt>
<pdfrwt beam="1">  1       21 0.31442520E-02 0.45705842E+03</pdfrwt>
<pdfrwt beam="2">  1       21 0.35920988E+00 0.45705842E+03</pdfrwt>
<totfact> 0.73882151E+03</totfact>
</mgrwt>
</event>
<event>
 6    0  0.4766352E-002  0.4559308E+03  0.7546771E-02  0.1025968E+00
         21   -1    0    0  502  501  0.00000000000E+00  0.00000000000E+00  0.19068772116E+04  0.19068772116E+04  0.00000000000E+00 0.  1.
         21   -1    0    0  501  502 -0.00000000000E+00 -0.00000000000E+00 -0.27253046204E+02  0.27253046204E+02  0.00000000000E+00 0.  1.
      99926    2    1    2    0    0 -0.88817841970E-15  0.00000000000E+00  0.18796241654E+04  0.19341302578E+04  0.45593075243E+03 0.  0.
         25    1    3    3    0    0  0.70035652797E+01  0.80222385612E+02  0.10583973839E+04  0.10688017643E+04  0.12509000000E+03 0.  0.
         25    1    3    3    0    0 -0.15200484391E+02 -0.99388370909E+01  0.32521330193E+03  0.34891407977E+03  0.12509000000E+03 0.  0.
         25    1    3    3    0    0  0.81969191115E+01 -0.70283548521E+02  0.49601347958E+03  0.51641441372E+03  0.12509000000E+03 0.  0.
<mgrwt>
<rscale>  2 0.45593075E+03</rscale>
<asrwt>0</asrwt>
<pdfrwt beam="1">  1       21 0.28042303E+00 0.45593075E+03</pdfrwt>
<pdfrwt beam="2">  1       21 0.40078022E-02 0.45593075E+03</pdfrwt>
<totfact> 0.14708691E+04</totfact>
</mgrwt>
</event>
<event>
 7    0  0.4766352E-002  0.4551329E+03  0.7546771E-02  0.1026202E+00
         21   -1    0    0  502  501  0.00000000000E+00  0.00000000000E+00  0.11848019978E+03  0.11848019978E+03  0.00000000000E+00 0.  1.
         21   -1    0    0  501  502 -0.00000000000E+00 -0.00000000000E+00 -0.43708978374E+03  0.43708978374E+03  0.00000000000E+00 0.  1.
      99926    2    1    2    0    0  0.00000000000E+00 -0.14210854715E-13 -0.31860958396E+03  0.55556998352E+03  0.45513288126E+03 0.  0.
      99925    2    3    3    0    0  0.37350503485E+01 -0.10727483269E+03 -0.15798895700E+03  0.32542147878E+03  0.26347065868E+03 0.  0.
         25    1    4    4    0    0  0.17115072353E+01 -0.31602047666E+02 -0.33293291879E+02  0.13325753284E+03  0.12509000000E+03 0.  0.
         25    1    4    4    0    0  0.20235431132E+01 -0.75672785029E+02 -0.12469566512E+03  0.19216394594E+03  0.12509000000E+03 0.  0.
         25    1    3    3    0    0 -0.37350503485E+01  0.10727483269E+03 -0.16062062696E+03  0.23014850474E+03  0.12509000000E+03 0.  0.
<mgrwt>
<rscale>  2 0.45513288E+03</rscale>
<asrwt>0</asrwt>
<pdfrwt beam="1">  1       21 0.17423559E-01 0.45513288E+03</pdfrwt>
<pdfrwt beam="2">  1       21 0.64277910E-01 0.45513288E+03</pdfrwt>
<totfact> 0.61435331E+04</totfact>
</mgrwt>
</event>
<event>
 7    0  0.4766352E-002  0.4550967E+03  0.7546771E-02  0.1026213E+00
         21   -1    0    0  502  501  0.00000000000E+00  0.00000000000E+00  0.11861807767E+03  0.11861807767E+03  0.00000000000E+00 0. -1.
         21   -1    0    0  501  502 -0.00000000000E+00 -0.00000000000E+00 -0.43651228105E+03  0.43651228105E+03  0.00000000000E+00 0. -1.
      99926    2    1    2    0    0  0.00000000000E+00  0.71054273576E-14 -0.31789420339E+03  0.55513035872E+03  0.45509668272E+03 0.  0.
      99925    2    3    3    0    0 -0.74327314615E+02  0.49893031746E+02 -0.11534983565E+03  0.30079673271E+03  0.26298141667E+03 0.  0.
         25    1    4    4    0    0 -0.45994695473E+02  0.65431340059E+02 -0.66281973845E+02  0.16259637275E+03  0.12509000000E+03 0.  0.
         25    1    4    4    0    0 -0.28332619141E+02 -0.15538308313E+02 -0.49067861806E+02  0.13820035997E+03  0.12509000000E+03 0.  0.
         25    1    3    3    0    0  0.74327314615E+02 -0.49893031746E+02 -0.20254436774E+03  0.25433362600E+03  0.12509000000E+03 0.  0.
<mgrwt>
<rscale>  2 0.45509668E+03</rscale>
<asrwt>0</asrwt>
<pdfrwt beam="1">  1       21 0.17443835E-01 0.45509668E+03</pdfrwt>
<pdfrwt beam="2">  1       21 0.64192983E-01 0.45509668E+03</pdfrwt>
<totfact> 0.61481724E+04</totfact>
</mgrwt>
</event>
<event>
 7    0  0.4766352E-002  0.4546487E+03  0.7546771E-02  0.1026345E+00
         21   -1    0    0  502  501  0.00000000000E+00  0.00000000000E+00  0.70359561398E+02  0.70359561398E+02  0.00000000000E+00 0. -1.
         21   -1    0    0  501  502 -0.00000000000E+00 -0.00000000000E+00 -0.73446102620E+03  0.73446102620E+03  0.00000000000E+00 0. -1.
      99926    2    1    2    0    0  0.35527136788E-14  0.35527136788E-14 -0.66410146481E+03  0.80482058760E+03  0.45464868049E+03 0.  0.
      99925    2    3    3    0    0 -0.29450205406E+02 -0.16083783876E+02 -0.60871610385E+03  0.66396232902E+03  0.26302980168E+03 0.  0.
         25    1    4    4    0    0 -0.15736836014E+02 -0.42835293432E+02 -0.36210409433E+03  0.38581004860E+03  0.12509000000E+03 0.  0.
         25    1    3    3    0    0  0.29450205406E+02  0.16083783876E+02 -0.55385360959E+02  0.14085825858E+03  0.12509000000E+03 0.  0.
         25    1    4    4    0    0 -0.13713369392E+02  0.26751509556E+02 -0.24661200952E+03  0.27815228042E+03  0.12509000000E+03 0.  0.
<mgrwt>
<rscale>  2 0.45464868E+03</rscale>
<asrwt>0</asrwt>
<pdfrwt beam="1">  1       21 0.10346995E-01 0.45464868E+03</pdfrwt>
<pdfrwt beam="2">  1       21 0.10800896E+00 0.45464868E+03</pdfrwt>
<totfact> 0.47663800E+04</totfact>
</mgrwt>
</event>
<event>
 7    0  0.4766352E-002  0.4488602E+03  0.7546771E-02  0.1028062E+00
         21   -1    0    0  502  501  0.00000000000E+00  0.00000000000E+00  0.15120145969E+03  0.15120145969E+03  0.00000000000E+00 0. -1.
         21   -1    0    0  501  502 -0.00000000000E+00 -0.00000000000E+00 -0.33312418268E+03  0.33312418268E+03  0.00000000000E+00 0. -1.
      99926    2    1    2    0    0  0.00000000000E+00  0.00000000000E+00 -0.18192272299E+03  0.48432564238E+03  0.44886016834E+03 0.  0.
      99925    2    3    3    0    0 -0.25814755316E+02  0.50055850017E+02 -0.16807373305E+02  0.26965711530E+03  0.26317386330E+03 0.  0.
         25    1    3    3    0    0  0.25814755316E+02 -0.50055850017E+02 -0.16511534969E+03  0.21466852707E+03  0.12509000000E+03 0.  0.
         25    1    4    4    0    0 -0.44988577757E+02  0.37496504588E+02 -0.31413562176E+02  0.14164843795E+03  0.12509000000E+03 0.  0.
         25    1    4    4    0    0  0.19173822442E+02  0.12559345429E+02  0.14606188871E+02  0.12800867735E+03  0.12509000000E+03 0.  0.
<mgrwt>
<rscale>  2 0.44886017E+03</rscale>
<asrwt>0</asrwt>
<pdfrwt beam="1">  1       21 0.22235509E-01 0.44886017E+03</pdfrwt>
<pdfrwt beam="2">  1       21 0.48988850E-01 0.44886017E+03</pdfrwt>
<totfact> 0.69723516E+04</totfact>
</mgrwt>
</event>
<event>
 7    0  0.4766352E-002  0.4542733E+03  0.7546771E-02  0.1026455E+00
         21   -1    0    0  502  501  0.00000000000E+00  0.00000000000E+00  0.54248048929E+03  0.54248048929E+03  0.00000000000E+00 0.  1.
         21   -1    0    0  501  502 -0.00000000000E+00 -0.00000000000E+00 -0.95102160479E+02  0.95102160479E+02  0.00000000000E+00 0.  1.
      99926    2    1    2    0    0  0.00000000000E+00 -0.71054273576E-14  0.44737832881E+03  0.63758264977E+03  0.45427333864E+03 0.  0.
      99925    2    3    3    0    0 -0.98109163170E+02  0.52030345635E+02  0.30695122901E+03  0.41917971201E+03  0.26298290667E+03 0.  0.
         25    1    4    4    0    0 -0.47633897463E+02  0.38739621701E-01  0.10158855958E+03  0.16803789223E+03  0.12509000000E+03 0.  0.
         25    1    3    3    0    0  0.98109163170E+02 -0.52030345635E+02  0.14042709980E+03  0.21840293776E+03  0.12509000000E+03 0.  0.
         25    1    4    4    0    0 -0.50475265706E+02  0.51991606013E+02  0.20536266944E+03  0.25114181978E+03  0.12509000000E+03 0.  0.
<mgrwt>
<rscale>  2 0.45427334E+03</rscale>
<asrwt>0</asrwt>
<pdfrwt beam="1">  1       21 0.79776541E-01 0.45427334E+03</pdfrwt>
<pdfrwt beam="2">  1       21 0.13985612E-01 0.45427334E+03</pdfrwt>
<totfact> 0.56747322E+04</totfact>
</mgrwt>
</event>
<event>
 7    0  0.4766352E-002  0.4539252E+03  0.7546771E-02  0.1026558E+00
         21   -1    0    0  502  501  0.00000000000E+00  0.00000000000E+00  0.48352768288E+03  0.48352768288E+03  0.00000000000E+00 0.  1.
         21   -1    0    0  501  502 -0.00000000000E+00 -0.00000000000E+00 -0.10653374668E+03  0.10653374668E+03  0.00000000000E+00 0.  1.
      99926    2    1    2    0    0  0.22204460493E-14  0.00000000000E+00  0.37699393619E+03  0.59006142956E+03  0.45392517304E+03 0.  0.
      99925    2    3    3    0    0 -0.26516030939E+01 -0.11165194466E+03  0.22396957717E+03  0.36304347806E+03  0.26299241001E+03 0.  0.
         25    1    4    4    0    0 -0.37275126408E+02 -0.76011700913E+02  0.12274207160E+03  0.19462871825E+03  0.12509000000E+03 0.  0.
         25    1    3    3    0    0  0.26516030939E+01  0.11165194466E+03  0.15302435903E+03  0.22701795150E+03  0.12509000000E+03 0.  0.
         25    1    4    4    0    0  0.34623523314E+02 -0.35640243747E+02  0.10122750556E+03  0.16841475981E+03  0.12509000000E+03 0.  0.
<mgrwt>
<rscale>  2 0.45392517E+03</rscale>
<asrwt>0</asrwt>
<pdfrwt beam="1">  1       21 0.71107011E-01 0.45392517E+03</pdfrwt>
<pdfrwt beam="2">  1       21 0.15666728E-01 0.45392517E+03</pdfrwt>
<totfact> 0.59800600E+04</totfact>
</mgrwt>
</event>
<event>
 7    0  0.4766352E-002  0.4545910E+03  0.7546771E-02  0.1026362E+00
         21   -1    0    0  502  501  0.00000000000E+00  0.00000000000E+00  0.37445923020E+03  0.37445923020E+03  0.00000000000E+00 0.  1.
         21   -1    0    0  501  502 -0.00000000000E+00 -0.00000000000E+00 -0.13796759563E+03  0.13796759563E+03  0.00000000000E+00 0.  1.
      99926    2    1    2    0    0  0.71054273576E-14  0.00000000000E+00  0.23649163457E+03  0.51242682583E+03  0.45459097946E+03 0.  0.
      99925    2    3    3    0    0  0.57584986232E+02  0.38542233453E+02  0.24848371353E+03  0.36892472669E+03  0.26374185044E+03 0.  0.
         25    1    4    4    0    0  0.35373212612E+02  0.53782110314E+02  0.98299777438E+02  0.17162206707E+03  0.12509000000E+03 0.  0.
         25    1    4    4    0    0  0.22211773620E+02 -0.15239876861E+02  0.15018393609E+03  0.19730265962E+03  0.12509000000E+03 0.  0.
         25    1    3    3    0    0 -0.57584986232E+02 -0.38542233453E+02 -0.11992078962E+02  0.14350209914E+03  0.12509000000E+03 0.  0.
<mgrwt>
<rscale>  2 0.45459098E+03</rscale>
<asrwt>0</asrwt>
<pdfrwt beam="1">  1       21 0.55067534E-01 0.45459098E+03</pdfrwt>
<pdfrwt beam="2">  1       21 0.20289352E-01 0.45459098E+03</pdfrwt>
<totfact> 0.64615641E+04</totfact>
</mgrwt>
</event>
<event>
 7    0  0.4766352E-002  0.4561528E+03  0.7546771E-02  0.1025903E+00
         21   -1    0    0  502  501  0.00000000000E+00  0.00000000000E+00  0.43127759620E+03  0.43127759620E+03  0.00000000000E+00 0.  1.
         21   -1    0    0  501  502 -0.00000000000E+00 -0.00000000000E+00 -0.12061570293E+03  0.12061570293E+03  0.00000000000E+00 0.  1.
      99926    2    1    2    0    0  0.00000000000E+00  0.00000000000E+00  0.31066189327E+03  0.55189329914E+03  0.45615282714E+03 0.  0.
      99925    2    3    3    0    0  0.11050239057E+03 -0.22641622885E+02  0.17290042806E+03  0.33429469895E+03  0.26293528921E+03 0.  0.
         25    1    4    4    0    0  0.61896560405E+02  0.25973463715E+02  0.10279761892E+03  0.17527311135E+03  0.12509000000E+03 0.  0.
         25    1    4    4    0    0  0.48605830168E+02 -0.48615086600E+02  0.70102809139E+02  0.15902158759E+03  0.12509000000E+03 0.  0.
         25    1    3    3    0    0 -0.11050239057E+03  0.22641622885E+02  0.13776146520E+03  0.21759860019E+03  0.12509000000E+03 0.  0.
<mgrwt>
<rscale>  2 0.45615283E+03</rscale>
<asrwt>0</asrwt>
<pdfrwt beam="1">  1       21 0.63423175E-01 0.45615283E+03</pdfrwt>
<pdfrwt beam="2">  1       21 0.17737603E-01 0.45615283E+03</pdfrwt>
<totfact> 0.61181646E+04</totfact>
</mgrwt>
</event>
<event>
 7    0  0.4766352E-002  0.4477174E+03  0.7546771E-02  0.1028405E+00
         21   -1    0    0  502  501  0.00000000000E+00  0.00000000000E+00  0.80857968987E+02  0.80857968987E+02  0.00000000000E+00 0.  1.
         21   -1    0    0  501  502 -0.00000000000E+00 -0.00000000000E+00 -0.61976230212E+03  0.61976230212E+03  0.00000000000E+00 0.  1.
      99926    2    1    2    0    0  0.00000000000E+00  0.35527136788E-14 -0.53890433313E+03  0.70062027111E+03  0.44771741536E+03 0.  0.
      99925    2    3    3    0    0 -0.68037026419E+02 -0.30930645581E+02 -0.45928881720E+03  0.53457244583E+03  0.26312685238E+03 0.  0.
         25    1    3    3    0    0  0.68037026419E+02  0.30930645581E+02 -0.79615515932E+02  0.16604782527E+03  0.12509000000E+03 0.  0.
         25    1    4    4    0    0 -0.31515539350E+02 -0.33681471355E+02 -0.16090901493E+03  0.20896624110E+03  0.12509000000E+03 0.  0.
         25    1    4    4    0    0 -0.36521487069E+02  0.27508257746E+01 -0.29837980227E+03  0.32560620474E+03  0.12509000000E+03 0.  0.
<mgrwt>
<rscale>  2 0.44771742E+03</rscale>
<asrwt>0</asrwt>
<pdfrwt beam="1">  1       21 0.11890878E-01 0.44771742E+03</pdfrwt>
<pdfrwt beam="2">  1       21 0.91141516E-01 0.44771742E+03</pdfrwt>
<totfact> 0.56010946E+04</totfact>
</mgrwt>
</event>
<event>
 7    0  0.4766352E-002  0.4552342E+03  0.7546771E-02  0.1026173E+00
         21   -1    0    0  502  501  0.00000000000E+00  0.00000000000E+00  0.87990378935E+03  0.87990378935E+03  0.00000000000E+00 0.  1.
         21   -1    0    0  501  502 -0.00000000000E+00 -0.00000000000E+00 -0.58880923559E+02  0.58880923559E+02  0.00000000000E+00 0.  1.
      99926    2    1    2    0    0  0.00000000000E+00  0.00000000000E+00  0.82102286579E+03  0.93878471291E+03  0.45523421558E+03 0.  0.
      99925    2    3    3    0    0  0.79712918115E+02 -0.56592347566E+02  0.63522034250E+03  0.69439377838E+03  0.26290871574E+03 0.  0.
         25    1    4    4    0    0  0.69250430956E+02 -0.29089478647E+02  0.40866440206E+03  0.43393077969E+03  0.12509000000E+03 0.  0.
         25    1    4    4    0    0  0.10462487159E+02 -0.27502868919E+02  0.22655594045E+03  0.26046299869E+03  0.12509000000E+03 0.  0.
         25    1    3    3    0    0 -0.79712918115E+02  0.56592347566E+02  0.18580252329E+03  0.24439093452E+03  0.12509000000E+03 0.  0.
<mgrwt>
<rscale>  2 0.45523422E+03</rscale>
<asrwt>0</asrwt>
<pdfrwt beam="1">  1       21 0.12939761E+00 0.45523422E+03</pdfrwt>
<pdfrwt beam="2">  1       21 0.86589599E-02 0.45523422E+03</pdfrwt>
<totfact> 0.41522201E+04</totfact>
</mgrwt>
</event>
<event>
 7    0  0.4766352E-002  0.4720568E+03  0.7546771E-02  0.1021341E+00
         21   -1    0    0  502  501  0.00000000000E+00  0.00000000000E+00  0.74098065065E+02  0.74098065065E+02  0.00000000000E+00 0. -1.
         21   -1    0    0  501  502 -0.00000000000E+00 -0.00000000000E+00 -0.75183339416E+03  0.75183339416E+03  0.00000000000E+00 0. -1.
      99926    2    1    2    0    0  0.00000000000E+00 -0.14210854715E-13 -0.67773532910E+03  0.82593145923E+03  0.47205677523E+03 0.  0.
      99925    2    3    3    0    0 -0.81837732452E+02 -0.69783357492E+02 -0.29730357383E+03  0.41127140575E+03  0.26303540206E+03 0.  0.
         25    1    4    4    0    0  0.11817520015E+00 -0.42468080054E+02 -0.13437526360E+03  0.18843505873E+03  0.12509000000E+03 0.  0.
         25    1    4    4    0    0 -0.81955907652E+02 -0.27315277438E+02 -0.16292831022E+03  0.22283634702E+03  0.12509000000E+03 0.  0.
         25    1    3    3    0    0  0.81837732452E+02  0.69783357492E+02 -0.38043175527E+03  0.41466005348E+03  0.12509000000E+03 0.  0.
<mgrwt>
<rscale>  2 0.47205678E+03</rscale>
<asrwt>0</asrwt>
<pdfrwt beam="1">  1       21 0.10896774E-01 0.47205678E+03</pdfrwt>
<pdfrwt beam="2">  1       21 0.11056374E+00 0.47205678E+03</pdfrwt>
<totfact> 0.40795812E+04</totfact>
</mgrwt>
</event>
<event>
 7    0  0.4766352E-002  0.4543035E+03  0.7546771E-02  0.1026446E+00
         21   -1    0    0  502  501  0.00000000000E+00  0.00000000000E+00  0.61089637960E+02  0.61089637960E+02  0.00000000000E+00 0. -1.
         21   -1    0    0  501  502 -0.00000000000E+00 -0.00000000000E+00 -0.84462645795E+03  0.84462645795E+03  0.00000000000E+00 0. -1.
      99926    2    1    2    0    0 -0.88817841970E-15  0.00000000000E+00 -0.78353681999E+03  0.90571609591E+03  0.45430353081E+03 0.  0.
      99925    2    3    3    0    0 -0.48288906477E+01  0.82974368629E+02 -0.64182737795E+03  0.69922847377E+03  0.26470740716E+03 0.  0.
         25    1    4    4    0    0  0.17002075582E+02  0.63125327213E+02 -0.25295697956E+03  0.28966984502E+03  0.12509000000E+03 0.  0.
         25    1    4    4    0    0 -0.21830966229E+02  0.19849041416E+02 -0.38887039840E+03  0.40955862875E+03  0.12509000000E+03 0.  0.
         25    1    3    3    0    0  0.48288906477E+01 -0.82974368629E+02 -0.14170944204E+03  0.20648762214E+03  0.12509000000E+03 0.  0.
<mgrwt>
<rscale>  2 0.45430353E+03</rscale>
<asrwt>0</asrwt>
<pdfrwt beam="1">  1       21 0.89837706E-02 0.45430353E+03</pdfrwt>
<pdfrwt beam="2">  1       21 0.12420977E+00 0.45430353E+03</pdfrwt>
<totfact> 0.43222682E+04</totfact>
</mgrwt>
</event>
<event>
 7    0  0.4766352E-002  0.4583578E+03  0.7546771E-02  0.1025259E+00
         21   -1    0    0  502  501  0.00000000000E+00  0.00000000000E+00  0.14240758207E+03  0.14240758207E+03  0.00000000000E+00 0. -1.
         21   -1    0    0  501  502 -0.00000000000E+00 -0.00000000000E+00 -0.36882150019E+03  0.36882150019E+03  0.00000000000E+00 0. -1.
      99926    2    1    2    0    0 -0.35527136788E-14  0.00000000000E+00 -0.22641391812E+03  0.51122908226E+03  0.45835784299E+03 0.  0.
      99925    2    3    3    0    0 -0.26234225704E+02 -0.89204689908E+02 -0.21994308418E+03  0.35523199545E+03  0.26300018824E+03 0.  0.
         25    1    4    4    0    0 -0.35373145430E+02 -0.78210173277E+02 -0.10278312717E+03  0.18324838322E+03  0.12509000000E+03 0.  0.
         25    1    3    3    0    0  0.26234225704E+02  0.89204689908E+02 -0.64708339400E+01  0.15599708681E+03  0.12509000000E+03 0.  0.
         25    1    4    4    0    0  0.91389197256E+01 -0.10994516631E+02 -0.11715995702E+03  0.17198361224E+03  0.12509000000E+03 0.  0.
<mgrwt>
<rscale>  2 0.45835784E+03</rscale>
<asrwt>0</asrwt>
<pdfrwt beam="1">  1       21 0.20942292E-01 0.45835784E+03</pdfrwt>
<pdfrwt beam="2">  1       21 0.54238455E-01 0.45835784E+03</pdfrwt>
<totfact> 0.62798469E+04</totfact>
</mgrwt>
</event>
<event>
 7    0  0.4766352E-002  0.4478186E+03  0.7546771E-02  0.1028375E+00
         21   -1    0    0  502  501  0.00000000000E+00  0.00000000000E+00  0.82878428813E+02  0.82878428813E+02  0.00000000000E+00 0. -1.
         21   -1    0    0  501  502 -0.00000000000E+00 -0.00000000000E+00 -0.60492661139E+03  0.60492661139E+03  0.00000000000E+00 0. -1.
      99926    2    1    2    0    0  0.00000000000E+00  0.00000000000E+00 -0.52204818258E+03  0.68780504021E+03  0.44781856638E+03 0.  0.
      99925    2    3    3    0    0  0.77666603735E+02  0.48519190367E+02 -0.24873750933E+03  0.37358784561E+03  0.26327042498E+03 0.  0.
         25    1    3    3    0    0 -0.77666603735E+02 -0.48519190367E+02 -0.27331067325E+03  0.31421719460E+03  0.12509000000E+03 0.  0.
         25    1    4    4    0    0  0.16501266283E+02  0.53530159268E+02 -0.14756564689E+03  0.20139736340E+03  0.12509000000E+03 0.  0.
         25    1    4    4    0    0  0.61165337453E+02 -0.50109689008E+01 -0.10117186244E+03  0.17219048221E+03  0.12509000000E+03 0.  0.
<mgrwt>
<rscale>  2 0.44781857E+03</rscale>
<asrwt>0</asrwt>
<pdfrwt beam="1">  1       21 0.12188004E-01 0.44781857E+03</pdfrwt>
<pdfrwt beam="2">  1       21 0.88959797E-01 0.44781857E+03</pdfrwt>
<totfact> 0.56708864E+04</totfact>
</mgrwt>
</event>
<event>
 7    0  0.4766352E-002  0.4556312E+03  0.7546771E-02  0.1026056E+00
         21   -1    0    0  502  501  0.00000000000E+00  0.00000000000E+00  0.74318970673E+03  0.74318970673E+03  0.00000000000E+00 0. -1.
         21   -1    0    0  501  502 -0.00000000000E+00 -0.00000000000E+00 -0.69834049654E+02  0.69834049654E+02  0.00000000000E+00 0. -1.
      99926    2    1    2    0    0  0.14210854715E-13  0.00000000000E+00  0.67335565707E+03  0.81302375638E+03  0.45563119683E+03 0.  0.
      99925    2    3    3    0    0 -0.86816244852E+02  0.48880259581E+02  0.52149007862E+03  0.59248577288E+03  0.26298507338E+03 0.  0.
         25    1    3    3    0    0  0.86816244852E+02 -0.48880259581E+02  0.15186557845E+03  0.22053798350E+03  0.12509000000E+03 0.  0.
         25    1    4    4    0    0 -0.25461751960E+02  0.16795527263E+02  0.17177024221E+03  0.21466931489E+03  0.12509000000E+03 0.  0.
         25    1    4    4    0    0 -0.61354492892E+02  0.32084732318E+02  0.34971983642E+03  0.37781645799E+03  0.12509000000E+03 0.  0.
<mgrwt>
<rscale>  2 0.45563120E+03</rscale>
<asrwt>0</asrwt>
<pdfrwt beam="1">  1       21 0.10929260E+00 0.45563120E+03</pdfrwt>
<pdfrwt beam="2">  1       21 0.10269714E-01 0.45563120E+03</pdfrwt>
<totfact> 0.46908541E+04</totfact>
</mgrwt>
</event>
<event>
 7    0  0.4766352E-002  0.4526619E+03  0.7546771E-02  0.1026931E+00
         21   -1    0    0  502  501  0.00000000000E+00  0.00000000000E+00  0.71651248607E+02  0.71651248607E+02  0.00000000000E+00 0.  1.
         21   -1    0    0  501  502 -0.00000000000E+00 -0.00000000000E+00 -0.71493085791E+03  0.71493085791E+03  0.00000000000E+00 0.  1.
      99926    2    1    2    0    0  0.71054273576E-14  0.00000000000E+00 -0.64327960930E+03  0.78658210652E+03  0.45266185453E+03 0.  0.
      99925    2    3    3    0    0 -0.60137939454E+02 -0.88622701851E+02 -0.36672817792E+03  0.46471449811E+03  0.26457409779E+03 0.  0.
         25    1    4    4    0    0 -0.19774222108E+01 -0.75800482592E+02 -0.17317533783E+03  0.22668663192E+03  0.12509000000E+03 0.  0.
         25    1    3    3    0    0  0.60137939454E+02  0.88622701851E+02 -0.27655143138E+03  0.32186760841E+03  0.12509000000E+03 0.  0.
         25    1    4    4    0    0 -0.58160517243E+02 -0.12822219259E+02 -0.19355284009E+03  0.23802786618E+03  0.12509000000E+03 0.  0.
<mgrwt>
<rscale>  2 0.45266185E+03</rscale>
<asrwt>0</asrwt>
<pdfrwt beam="1">  1       21 0.10536948E-01 0.45266185E+03</pdfrwt>
<pdfrwt beam="2">  1       21 0.10513689E+00 0.45266185E+03</pdfrwt>
<totfact> 0.49319569E+04</totfact>
</mgrwt>
</event>
<event>
 7    0  0.4766352E-002  0.4240927E+03  0.7546771E-02  0.1035742E+00
         21   -1    0    0  502  501  0.00000000000E+00  0.00000000000E+00  0.28176910036E+03  0.28176910036E+03  0.00000000000E+00 0. -1.
         21   -1    0    0  501  502 -0.00000000000E+00 -0.00000000000E+00 -0.15957622768E+03  0.15957622768E+03  0.00000000000E+00 0. -1.
      99926    2    1    2    0    0  0.00000000000E+00  0.71054273576E-14  0.12219287268E+03  0.44134532804E+03  0.42409267908E+03 0.  0.
      99925    2    3    3    0    0  0.69905612206E+01 -0.42381326990E+02  0.15055813034E+03  0.30607840390E+03  0.26300417088E+03 0.  0.
         25    1    3    3    0    0 -0.69905612206E+01  0.42381326990E+02 -0.28365257664E+02  0.13526692414E+03  0.12509000000E+03 0.  0.
         25    1    4    4    0    0  0.64191949959E+01 -0.62029148953E+02  0.82994249994E+02  0.16255575971E+03  0.12509000000E+03 0.  0.
         25    1    4    4    0    0  0.57136622473E+00  0.19647821964E+02  0.67563880349E+02  0.14352264419E+03  0.12509000000E+03 0.  0.
<mgrwt>
<rscale>  2 0.42409268E+03</rscale>
<asrwt>0</asrwt>
<pdfrwt beam="1">  1       21 0.41436633E-01 0.42409268E+03</pdfrwt>
<pdfrwt beam="2">  1       21 0.23467092E-01 0.42409268E+03</pdfrwt>
<totfact> 0.89678230E+04</totfact>
</mgrwt>
</event>
<event>
 7    0  0.4766352E-002  0.4582946E+03  0.7546771E-02  0.1025277E+00
         21   -1    0    0  502  501  0.00000000000E+00  0.00000000000E+00  0.62772534063E+03  0.62772534063E+03  0.00000000000E+00 0. -1.
         21   -1    0    0  501  502 -0.00000000000E+00 -0.00000000000E+00 -0.83648838628E+02  0.83648838628E+02  0.00000000000E+00 0. -1.
      99926    2    1    2    0    0  0.00000000000E+00  0.35527136788E-14  0.54407650200E+03  0.71137417926E+03  0.45829464636E+03 0.  0.
      99925    2    3    3    0    0  0.62592248634E+02  0.31051332975E+02  0.48576300808E+03  0.55668110721E+03  0.26276639859E+03 0.  0.
         25    1    4    4    0    0  0.30945468511E+02 -0.18860673832E+02  0.19240775959E+03  0.23233940925E+03  0.12509000000E+03 0.  0.
         25    1    3    3    0    0 -0.62592248634E+02 -0.31051332975E+02  0.58313493920E+02  0.15469307205E+03  0.12509000000E+03 0.  0.
         25    1    4    4    0    0  0.31646780124E+02  0.49912006808E+02  0.29335524849E+03  0.32434169796E+03  0.12509000000E+03 0.  0.
<mgrwt>
<rscale>  2 0.45829465E+03</rscale>
<asrwt>0</asrwt>
<pdfrwt beam="1">  1       21 0.92312548E-01 0.45829465E+03</pdfrwt>
<pdfrwt beam="2">  1       21 0.12301300E-01 0.45829465E+03</pdfrwt>
<totfact> 0.50956071E+04</totfact>
</mgrwt>
</event>
<event>
 7    0  0.4766352E-002  0.4547845E+03  0.7546771E-02  0.1026305E+00
         21   -1    0    0  502  501  0.00000000000E+00  0.00000000000E+00  0.11611650941E+04  0.11611650941E+04  0.00000000000E+00 0.  1.
         21   -1    0    0  501  502 -0.00000000000E+00 -0.00000000000E+00 -0.44530471365E+02  0.44530471365E+02  0.00000000000E+00 0.  1.
      99926    2    1    2    0    0  0.00000000000E+00  0.00000000000E+00  0.11166346228E+04  0.12056955655E+04  0.45478447192E+03 0.  0.
      99925    2    3    3    0    0 -0.77966520455E+02 -0.61186198808E+02  0.84573643621E+03  0.89128204032E+03  0.26323188755E+03 0.  0.
         25    1    4    4    0    0 -0.49804878713E+02 -0.16334704027E+02  0.53919819493E+03  0.55599419962E+03  0.12509000000E+03 0.  0.
         25    1    3    3    0    0  0.77966520455E+02  0.61186198808E+02  0.27089818656E+03  0.31441352518E+03  0.12509000000E+03 0.  0.
         25    1    4    4    0    0 -0.28161641742E+02 -0.44851494781E+02  0.30653824128E+03  0.33528784069E+03  0.12509000000E+03 0.  0.
<mgrwt>
<rscale>  2 0.45478447E+03</rscale>
<asrwt>0</asrwt>
<pdfrwt beam="1">  1       21 0.17075955E+00 0.45478447E+03</pdfrwt>
<pdfrwt beam="2">  1       21 0.65485995E-02 0.45478447E+03</pdfrwt>
<totfact> 0.32029695E+04</totfact>
</mgrwt>
</event>
<event>
 7    0  0.4766352E-002  0.4596467E+03  0.7546771E-02  0.1024884E+00
         21   -1    0    0  502  501  0.00000000000E+00  0.00000000000E+00  0.46347158769E+03  0.46347158769E+03  0.00000000000E+00 0. -1.
         21   -1    0    0  501  502 -0.00000000000E+00 -0.00000000000E+00 -0.11396332800E+03  0.11396332800E+03  0.00000000000E+00 0. -1.
      99926    2    1    2    0    0  0.00000000000E+00  0.00000000000E+00  0.34950825970E+03  0.57743491569E+03  0.45964666676E+03 0.  0.
      99925    2    3    3    0    0 -0.74957273201E+02 -0.89502646175E+02  0.23410003001E+03  0.37104721243E+03  0.26314234422E+03 0.  0.
         25    1    3    3    0    0  0.74957273201E+02  0.89502646175E+02  0.11540822968E+03  0.20638770326E+03  0.12509000000E+03 0.  0.
         25    1    4    4    0    0 -0.33205124168E+02 -0.58129892824E+02  0.16903744723E+03  0.22068717991E+03  0.12509000000E+03 0.  0.
         25    1    4    4    0    0 -0.41752149033E+02 -0.31372753351E+02  0.65062582787E+02  0.15036003252E+03  0.12509000000E+03 0.  0.
<mgrwt>
<rscale>  2 0.45964667E+03</rscale>
<asrwt>0</asrwt>
<pdfrwt beam="1">  1       21 0.68157586E-01 0.45964667E+03</pdfrwt>
<pdfrwt beam="2">  1       21 0.16759313E-01 0.45964667E+03</pdfrwt>
<totfact> 0.57931344E+04</totfact>
</mgrwt>
</event>
<event>
 7    0  0.4766352E-002  0.4831978E+03  0.7546771E-02  0.1018260E+00
         21   -1    0    0  502  501  0.00000000000E+00  0.00000000000E+00  0.10484299325E+04  0.10484299325E+04  0.00000000000E+00 0. -1.
         21   -1    0    0  501  502 -0.00000000000E+00 -0.00000000000E+00 -0.55673748117E+02  0.55673748117E+02  0.00000000000E+00 0. -1.
      99926    2    1    2    0    0  0.00000000000E+00  0.00000000000E+00  0.99275618442E+03  0.11041036807E+04  0.48319778138E+03 0.  0.
      99925    2    3    3    0    0  0.27953490684E+02  0.10998159269E+03  0.43053114594E+03  0.51705866503E+03  0.26289778829E+03 0.  0.
         25    1    3    3    0    0 -0.27953490684E+02 -0.10998159269E+03  0.56222503848E+03  0.58704501562E+03  0.12509000000E+03 0.  0.
         25    1    4    4    0    0  0.46573440899E+02  0.31222618087E+02  0.21762955899E+03  0.25720433574E+03  0.12509000000E+03 0.  0.
         25    1    4    4    0    0 -0.18619950215E+02  0.78758974601E+02  0.21290158695E+03  0.25985432929E+03  0.12509000000E+03 0.  0.
<mgrwt>
<rscale>  2 0.48319778E+03</rscale>
<asrwt>0</asrwt>
<pdfrwt beam="1">  1       21 0.15418086E+00 0.48319778E+03</pdfrwt>
<pdfrwt beam="2">  1       21 0.81873165E-02 0.48319778E+03</pdfrwt>
<totfact> 0.28538353E+04</totfact>
</mgrwt>
</event>
<event>
 7    0  0.4766352E-002  0.4515964E+03  0.7546771E-02  0.1027247E+00
         21   -1    0    0  502  501  0.00000000000E+00  0.00000000000E+00  0.57290215908E+02  0.57290215908E+02  0.00000000000E+00 0. -1.
         21   -1    0    0  501  502 -0.00000000000E+00 -0.00000000000E+00 -0.88993949267E+03  0.88993949267E+03  0.00000000000E+00 0. -1.
      99926    2    1    2    0    0 -0.17763568394E-14  0.35527136788E-14 -0.83264927677E+03  0.94722970858E+03  0.45159639361E+03 0.  0.
      99925    2    3    3    0    0 -0.83531996206E+01 -0.30882163524E+02 -0.74631642240E+03  0.79190954308E+03  0.26288597930E+03 0.  0.
         25    1    4    4    0    0 -0.87602234969E+01 -0.46103832631E+02 -0.46175634595E+03  0.48069609529E+03  0.12509000000E+03 0.  0.
         25    1    4    4    0    0  0.40702387626E+00  0.15221669108E+02 -0.28456007645E+03  0.31121344780E+03  0.12509000000E+03 0.  0.
         25    1    3    3    0    0  0.83531996206E+01  0.30882163524E+02 -0.86332854365E+02  0.15532016550E+03  0.12509000000E+03 0.  0.
<mgrwt>
<rscale>  2 0.45159639E+03</rscale>
<asrwt>0</asrwt>
<pdfrwt beam="1">  1       21 0.84250319E-02 0.45159639E+03</pdfrwt>
<pdfrwt beam="2">  1       21 0.13087345E+00 0.45159639E+03</pdfrwt>
<totfact> 0.42369709E+04</totfact>
</mgrwt>
</event>
<event>
 7    0  0.4766352E-002  0.4604786E+03  0.7546771E-02  0.1024643E+00
         21   -1    0    0  502  501  0.00000000000E+00  0.00000000000E+00  0.57713514571E+03  0.57713514571E+03  0.00000000000E+00 0. -1.
         21   -1    0    0  501  502 -0.00000000000E+00 -0.00000000000E+00 -0.91850452913E+02  0.91850452913E+02  0.00000000000E+00 0. -1.
      99926    2    1    2    0    0  0.00000000000E+00  0.14210854715E-13  0.48528469280E+03  0.66898559863E+03  0.46047855336E+03 0.  0.
      99925    2    3    3    0    0 -0.14188956418E+02 -0.10903432251E+03  0.36684304957E+03  0.46461891612E+03  0.26307243152E+03 0.  0.
         25    1    3    3    0    0  0.14188956418E+02  0.10903432251E+03  0.11844164323E+03  0.20436668251E+03  0.12509000000E+03 0.  0.
         25    1    4    4    0    0  0.25303783365E+02 -0.40958952134E+02  0.13946243551E+03  0.19343008099E+03  0.12509000000E+03 0.  0.
         25    1    4    4    0    0 -0.39492739783E+02 -0.68075370375E+02  0.22738061406E+03  0.27118883513E+03  0.12509000000E+03 0.  0.
<mgrwt>
<rscale>  2 0.46047855E+03</rscale>
<asrwt>0</asrwt>
<pdfrwt beam="1">  1       21 0.84872814E-01 0.46047855E+03</pdfrwt>
<pdfrwt beam="2">  1       21 0.13507420E-01 0.46047855E+03</pdfrwt>
<totfact> 0.52322662E+04</totfact>
</mgrwt>
</event>
<event>
 7    0  0.4766352E-002  0.4637100E+03  0.7546771E-02  0.1023711E+00
         21   -1    0    0  502  501  0.00000000000E+00  0.00000000000E+00  0.82930072929E+02  0.82930072929E+02  0.00000000000E+00 0. -1.
         21   -1    0    0  501  502 -0.00000000000E+00 -0.00000000000E+00 -0.64821777049E+03  0.64821777049E+03  0.00000000000E+00 0. -1.
      99926    2    1    2    0    0 -0.71054273576E-14  0.00000000000E+00 -0.56528769757E+03  0.73114784342E+03  0.46371002569E+03 0.  0.
      99925    2    3    3    0    0  0.58096457168E+02  0.82652643222E+02 -0.45846812451E+03  0.53810746667E+03  0.26298282593E+03 0.  0.
         25    1    4    4    0    0  0.13401546019E+02  0.72729630015E+02 -0.27937524611E+03  0.31490829896E+03  0.12509000000E+03 0.  0.
         25    1    3    3    0    0 -0.58096457168E+02 -0.82652643222E+02 -0.10681957306E+03  0.19304037675E+03  0.12509000000E+03 0.  0.
         25    1    4    4    0    0  0.44694911149E+02  0.99230132067E+01 -0.17909287840E+03  0.22319916771E+03  0.12509000000E+03 0.  0.
<mgrwt>
<rscale>  2 0.46371003E+03</rscale>
<asrwt>0</asrwt>
<pdfrwt beam="1">  1       21 0.12195599E-01 0.46371003E+03</pdfrwt>
<pdfrwt beam="2">  1       21 0.95326142E-01 0.46371003E+03</pdfrwt>
<totfact> 0.47879715E+04</totfact>
</mgrwt>
</event>
<event>
 7    0  0.4766352E-002  0.4619680E+03  0.7546771E-02  0.1024212E+00
         21   -1    0    0  502  501  0.00000000000E+00  0.00000000000E+00  0.41229496602E+03  0.41229496602E+03  0.00000000000E+00 0.  1.
         21   -1    0    0  501  502 -0.00000000000E+00 -0.00000000000E+00 -0.12940640836E+03  0.12940640836E+03  0.00000000000E+00 0.  1.
      99926    2    1    2    0    0  0.14210854715E-13  0.14210854715E-13  0.28288855767E+03  0.54170137438E+03  0.46196801074E+03 0.  0.
      99925    2    3    3    0    0 -0.42965239687E+02 -0.10029949019E+03  0.23414467042E+03  0.36870000387E+03  0.26307787176E+03 0.  0.
         25    1    4    4    0    0 -0.59216946541E+02 -0.52037880775E+02  0.14348983351E+03  0.20603744372E+03  0.12509000000E+03 0.  0.
         25    1    4    4    0    0  0.16251706854E+02 -0.48261609420E+02  0.90654836914E+02  0.16266256015E+03  0.12509000000E+03 0.  0.
         25    1    3    3    0    0  0.42965239687E+02  0.10029949019E+03  0.48743887246E+02  0.17300137051E+03  0.12509000000E+03 0.  0.
<mgrwt>
<rscale>  2 0.46196801E+03</rscale>
<asrwt>0</asrwt>
<pdfrwt beam="1">  1       21 0.60631612E-01 0.46196801E+03</pdfrwt>
<pdfrwt beam="2">  1       21 0.19030354E-01 0.46196801E+03</pdfrwt>
<totfact> 0.59090316E+04</totfact>
</mgrwt>
</event>
<event>
 7    0  0.4766352E-002  0.4787319E+03  0.7546771E-02  0.1019484E+00
         21   -1    0    0  502  501  0.00000000000E+00  0.00000000000E+00  0.48067951252E+02  0.48067951252E+02  0.00000000000E+00 0.  1.
         21   -1    0    0  501  502 -0.00000000000E+00 -0.00000000000E+00 -0.11919802655E+04  0.11919802655E+04  0.00000000000E+00 0.  1.
      99926    2    1    2    0    0  0.00000000000E+00  0.71054273576E-14 -0.11439123142E+04  0.12400482167E+04  0.47873186355E+03 0.  0.
      99925    2    3    3    0    0 -0.11479995219E+03  0.51947692488E+02 -0.82512271915E+03  0.87514835950E+03  0.26302007092E+03 0.  0.
         25    1    4    4    0    0 -0.99184081246E+02  0.15940343980E+02 -0.44214008963E+03  0.47034768363E+03  0.12509000000E+03 0.  0.
         25    1    4    4    0    0 -0.15615870942E+02  0.36007348508E+02 -0.38298262951E+03  0.40480067587E+03  0.12509000000E+03 0.  0.
         25    1    3    3    0    0  0.11479995219E+03 -0.51947692488E+02 -0.31878959508E+03  0.36489985723E+03  0.12509000000E+03 0.  0.
<mgrwt>
<rscale>  2 0.47873186E+03</rscale>
<asrwt>0</asrwt>
<pdfrwt beam="1">  1       21 0.70688175E-02 0.47873186E+03</pdfrwt>
<pdfrwt beam="2">  1       21 0.17529119E+00 0.47873186E+03</pdfrwt>
<totfact> 0.25800051E+04</totfact>
</mgrwt>
</event>
<event>
 7    0  0.4766352E-002  0.4679706E+03  0.7546771E-02  0.1022495E+00
         21   -1    0    0  502  501  0.00000000000E+00  0.00000000000E+00  0.96658560975E+02  0.96658560975E+02  0.00000000000E+00 0.  1.
         21   -1    0    0  501  502 -0.00000000000E+00 -0.00000000000E+00 -0.56641764068E+03  0.56641764068E+03  0.00000000000E+00 0.  1.
      99926    2    1    2    0    0  0.00000000000E+00  0.14210854715E-13 -0.46975907970E+03  0.66307620165E+03  0.46797057198E+03 0.  0.
      99925    2    3    3    0    0  0.97512883089E+02 -0.65522834238E+02 -0.35271554243E+03  0.45535354547E+03  0.26293838313E+03 0.  0.
         25    1    3    3    0    0 -0.97512883089E+02  0.65522834238E+02 -0.11704353728E+03  0.20772265619E+03  0.12509000000E+03 0.  0.
         25    1    4    4    0    0  0.49956537536E+02  0.86670818960E+01 -0.16455616699E+03  0.21283095204E+03  0.12509000000E+03 0.  0.
         25    1    4    4    0    0  0.47556345554E+02 -0.74189916134E+02 -0.18815937544E+03  0.24252259343E+03  0.12509000000E+03 0.  0.
<mgrwt>
<rscale>  2 0.46797057E+03</rscale>
<asrwt>0</asrwt>
<pdfrwt beam="1">  1       21 0.14214495E-01 0.46797057E+03</pdfrwt>
<pdfrwt beam="2">  1       21 0.83296709E-01 0.46797057E+03</pdfrwt>
<totfact> 0.49674526E+04</totfact>
</mgrwt>
</event>
<event>
 7    0  0.4766352E-002  0.4440725E+03  0.7546771E-02  0.1029505E+00
         21   -1    0    0  502  501  0.00000000000E+00  0.00000000000E+00  0.18627333028E+03  0.18627333028E+03  0.00000000000E+00 0.  1.
         21   -1    0    0  501  502 -0.00000000000E+00 -0.00000000000E+00 -0.26466532545E+03  0.26466532545E+03  0.00000000000E+00 0.  1.
      99926    2    1    2    0    0  0.71054273576E-14  0.00000000000E+00 -0.78391995168E+02  0.45093865573E+03  0.44407247868E+03 0.  0.
      99925    2    3    3    0    0 -0.63543869496E+02  0.51633396298E+02  0.12109240423E+02  0.27617649533E+03  0.26348243187E+03 0.  0.
         25    1    3    3    0    0  0.63543869496E+02 -0.51633396298E+02 -0.90501235591E+02  0.17476216040E+03  0.12509000000E+03 0.  0.
         25    1    4    4    0    0 -0.34587439754E+02 -0.15597930560E+02 -0.22747057543E+00  0.13071781160E+03  0.12509000000E+03 0.  0.
         25    1    4    4    0    0 -0.28956429742E+02  0.67231326858E+02  0.12336710999E+02  0.14545868373E+03  0.12509000000E+03 0.  0.
<mgrwt>
<rscale>  2 0.44407248E+03</rscale>
<asrwt>0</asrwt>
<pdfrwt beam="1">  1       21 0.27393137E-01 0.44407248E+03</pdfrwt>
<pdfrwt beam="2">  1       21 0.38921371E-01 0.44407248E+03</pdfrwt>
<totfact> 0.75187108E+04</totfact>
</mgrwt>
</event>
<event>
 7    0  0.4766352E-002  0.4609887E+03  0.7546771E-02  0.1024495E+00
         21   -1    0    0  502  501  0.00000000000E+00  0.00000000000E+00  0.13003744068E+03  0.13003744068E+03  0.00000000000E+00 0. -1.
         21   -1    0    0  501  502 -0.00000000000E+00 -0.00000000000E+00 -0.40855649670E+03  0.40855649670E+03  0.00000000000E+00 0. -1.
      99926    2    1    2    0    0  0.00000000000E+00  0.00000000000E+00 -0.27851905602E+03  0.53859393738E+03  0.46098868188E+03 0.  0.
      99925    2    3    3    0    0  0.87614617789E+02  0.58633532822E+02 -0.11091173294E+03  0.30438476747E+03  0.26312442255E+03 0.  0.
         25    1    3    3    0    0 -0.87614617789E+02 -0.58633532822E+02 -0.16760732308E+03  0.23420916991E+03  0.12509000000E+03 0.  0.
         25    1    4    4    0    0  0.85439814028E+02  0.21851012977E+02 -0.59263793108E+02  0.16412536021E+03  0.12509000000E+03 0.  0.
         25    1    4    4    0    0  0.21748037609E+01  0.36782519845E+02 -0.51647939836E+02  0.14025940727E+03  0.12509000000E+03 0.  0.
<mgrwt>
<rscale>  2 0.46098868E+03</rscale>
<asrwt>0</asrwt>
<pdfrwt beam="1">  1       21 0.19123153E-01 0.46098868E+03</pdfrwt>
<pdfrwt beam="2">  1       21 0.60081838E-01 0.46098868E+03</pdfrwt>
<totfact> 0.59742307E+04</totfact>
</mgrwt>
</event>
<event>
 7    0  0.4766352E-002  0.4607857E+03  0.7546771E-02  0.1024554E+00
         21   -1    0    0  502  501  0.00000000000E+00  0.00000000000E+00  0.79877575010E+02  0.79877575010E+02  0.00000000000E+00 0. -1.
         21   -1    0    0  501  502 -0.00000000000E+00 -0.00000000000E+00 -0.66452784541E+03  0.66452784541E+03  0.00000000000E+00 0. -1.
      99926    2    1    2    0    0  0.00000000000E+00 -0.14210854715E-13 -0.58465027040E+03  0.74440542042E+03  0.46078573250E+03 0.  0.
      99925    2    3    3    0    0 -0.68504592317E+02  0.88687954681E+02 -0.30390731102E+03  0.41726240916E+03  0.26303960146E+03 0.  0.
         25    1    3    3    0    0  0.68504592317E+02 -0.88687954681E+02 -0.28074295938E+03  0.32714301126E+03  0.12509000000E+03 0.  0.
         25    1    4    4    0    0 -0.32222799578E+02  0.40097521642E+02 -0.20897585256E+03  0.24892676655E+03  0.12509000000E+03 0.  0.
         25    1    4    4    0    0 -0.36281792739E+02  0.48590433039E+02 -0.94931458467E+02  0.16833564261E+03  0.12509000000E+03 0.  0.
<mgrwt>
<rscale>  2 0.46078573E+03</rscale>
<asrwt>0</asrwt>
<pdfrwt beam="1">  1       21 0.11746703E-01 0.46078573E+03</pdfrwt>
<pdfrwt beam="2">  1       21 0.97724678E-01 0.46078573E+03</pdfrwt>
<totfact> 0.48321988E+04</totfact>
</mgrwt>
</event>
<event>
 7    0  0.4766352E-002  0.4561259E+03  0.7546771E-02  0.1025911E+00
         21   -1    0    0  502  501  0.00000000000E+00  0.00000000000E+00  0.93799725289E+02  0.93799725289E+02  0.00000000000E+00 0. -1.
         21   -1    0    0  501  502 -0.00000000000E+00 -0.00000000000E+00 -0.55450803569E+03  0.55450803569E+03  0.00000000000E+00 0. -1.
      99926    2    1    2    0    0  0.00000000000E+00  0.26645352591E-14 -0.46070831040E+03  0.64830776098E+03  0.45612586604E+03 0.  0.
      99925    2    3    3    0    0 -0.11118041443E+03  0.65099707468E+01 -0.25417677790E+03  0.38240129943E+03  0.26309970565E+03 0.  0.
         25    1    4    4    0    0 -0.55137948030E+02 -0.20971774075E+02 -0.17024859226E+03  0.21934470563E+03  0.12509000000E+03 0.  0.
         25    1    3    3    0    0  0.11118041443E+03 -0.65099707468E+01 -0.20653153251E+03  0.26590646155E+03  0.12509000000E+03 0.  0.
         25    1    4    4    0    0 -0.56042466403E+02  0.27481744821E+02 -0.83928185635E+02  0.16305659380E+03  0.12509000000E+03 0.  0.
<mgrwt>
<rscale>  2 0.45612587E+03</rscale>
<asrwt>0</asrwt>
<pdfrwt beam="1">  1       21 0.13794077E-01 0.45612587E+03</pdfrwt>
<pdfrwt beam="2">  1       21 0.81545301E-01 0.45612587E+03</pdfrwt>
<totfact> 0.55306187E+04</totfact>
</mgrwt>
</event>
<event>
 7    0  0.4766352E-002  0.4546360E+03  0.7546771E-02  0.1026349E+00
         21   -1    0    0  502  501  0.00000000000E+00  0.00000000000E+00  0.18298805812E+03  0.18298805812E+03  0.00000000000E+00 0.  1.
         21   -1    0    0  501  502 -0.00000000000E+00 -0.00000000000E+00 -0.28238707896E+03  0.28238707896E+03  0.00000000000E+00 0.  1.
      99926    2    1    2    0    0  0.00000000000E+00 -0.35527136788E-14 -0.99399020847E+02  0.46537513708E+03  0.45463595642E+03 0.  0.
      99925    2    3    3    0    0  0.80036297475E+02  0.29183484886E+02  0.13102814729E+02  0.27679715371E+03  0.26303516085E+03 0.  0.
         25    1    4    4    0    0  0.21437446357E+02  0.10509728711E+02  0.42665353483E+02  0.13430509667E+03  0.12509000000E+03 0.  0.
         25    1    3    3    0    0 -0.80036297475E+02 -0.29183484886E+02 -0.11250183558E+03  0.18857798337E+03  0.12509000000E+03 0.  0.
         25    1    4    4    0    0  0.58598851118E+02  0.18673756175E+02 -0.29562538754E+02  0.14249205704E+03  0.12509000000E+03 0.  0.
<mgrwt>
<rscale>  2 0.45463596E+03</rscale>
<asrwt>0</asrwt>
<pdfrwt beam="1">  1       21 0.26910009E-01 0.45463596E+03</pdfrwt>
<pdfrwt beam="2">  1       21 0.41527511E-01 0.45463596E+03</pdfrwt>
<totfact> 0.67977828E+04</totfact>
</mgrwt>
</event>
<event>
 7    0  0.4766352E-002  0.4530372E+03  0.7546771E-02  0.1026820E+00
         21   -1    0    0  502  501  0.00000000000E+00  0.00000000000E+00  0.21528145234E+03  0.21528145234E+03  0.00000000000E+00 0.  1.
         21   -1    0    0  501  502 -0.00000000000E+00 -0.00000000000E+00 -0.23834228120E+03  0.23834228120E+03  0.00000000000E+00 0.  1.
      99926    2    1    2    0    0 -0.39968028887E-14  0.00000000000E+00 -0.23060828860E+02  0.45362373354E+03  0.45303718369E+03 0.  0.
      99925    2    3    3    0    0 -0.38248648704E+01  0.38057656316E+02  0.90011630676E+02  0.28071941317E+03  0.26313167897E+03 0.  0.
         25    1    3    3    0    0  0.38248648704E+01 -0.38057656316E+02 -0.11307245954E+03  0.17290432037E+03  0.12509000000E+03 0.  0.
         25    1    4    4    0    0 -0.34478924012E+02 -0.20183980684E+01  0.30584487651E+02  0.13332587565E+03  0.12509000000E+03 0.  0.
         25    1    4    4    0    0  0.30654059141E+02  0.40076054384E+02  0.59427143025E+02  0.14739353753E+03  0.12509000000E+03 0.  0.
<mgrwt>
<rscale>  2 0.45303718E+03</rscale>
<asrwt>0</asrwt>
<pdfrwt beam="1">  1       21 0.31659037E-01 0.45303718E+03</pdfrwt>
<pdfrwt beam="2">  1       21 0.35050335E-01 0.45303718E+03</pdfrwt>
<totfact> 0.69732462E+04</totfact>
</mgrwt>
</event>
<event>
 7    0  0.4766352E-002  0.4529586E+03  0.7546771E-02  0.1026843E+00
         21   -1    0    0  502  501  0.00000000000E+00  0.00000000000E+00  0.18504136299E+03  0.18504136299E+03  0.00000000000E+00 0.  1.
         21   -1    0    0  501  502 -0.00000000000E+00 -0.00000000000E+00 -0.27719676645E+03  0.27719676645E+03  0.00000000000E+00 0.  1.
      99926    2    1    2    0    0 -0.35527136788E-14  0.00000000000E+00 -0.92155403461E+02  0.46223812943E+03  0.45295857417E+03 0.  0.
      99925    2    3    3    0    0 -0.17532221397E+02 -0.60896058089E+02  0.35095088290E+02  0.27288157573E+03  0.26309120182E+03 0.  0.
         25    1    3    3    0    0  0.17532221397E+02  0.60896058089E+02 -0.12725049175E+03  0.18935655370E+03  0.12509000000E+03 0.  0.
         25    1    4    4    0    0 -0.45844823473E+02 -0.47957111087E+02  0.22347957876E+02  0.14334772989E+03  0.12509000000E+03 0.  0.
         25    1    4    4    0    0  0.28312602076E+02 -0.12938947002E+02  0.12747130414E+02  0.12953384585E+03  0.12509000000E+03 0.  0.
<mgrwt>
<rscale>  2 0.45295857E+03</rscale>
<asrwt>0</asrwt>
<pdfrwt beam="1">  1       21 0.27211966E-01 0.45295857E+03</pdfrwt>
<pdfrwt beam="2">  1       21 0.40764230E-01 0.45295857E+03</pdfrwt>
<totfact> 0.69130811E+04</totfact>
</mgrwt>
</event>
<event>
 7    0  0.4766352E-002  0.4526479E+03  0.7546771E-02  0.1026935E+00
         21   -1    0    0  502  501  0.00000000000E+00  0.00000000000E+00  0.22096186652E+03  0.22096186652E+03  0.00000000000E+00 0.  1.
         21   -1    0    0  501  502 -0.00000000000E+00 -0.00000000000E+00 -0.23181611647E+03  0.23181611647E+03  0.00000000000E+00 0.  1.
      99926    2    1    2    0    0  0.00000000000E+00 -0.14210854715E-13 -0.10854249953E+02  0.45277798299E+03  0.45264786219E+03 0.  0.
      99925    2    3    3    0    0 -0.51472062999E+02  0.98290359902E+02 -0.48753909905E+01  0.28546503378E+03  0.26297556532E+03 0.  0.
         25    1    4    4    0    0  0.34001490549E+01  0.77660069312E+02 -0.19199454285E+01  0.14728829441E+03  0.12509000000E+03 0.  0.
         25    1    4    4    0    0 -0.54872212054E+02  0.20630290590E+02 -0.29554455619E+01  0.13817673937E+03  0.12509000000E+03 0.  0.
         25    1    3    3    0    0  0.51472062999E+02 -0.98290359902E+02 -0.59788589620E+01  0.16731294921E+03  0.12509000000E+03 0.  0.
<mgrwt>
<rscale>  2 0.45264786E+03</rscale>
<asrwt>0</asrwt>
<pdfrwt beam="1">  1       21 0.32494392E-01 0.45264786E+03</pdfrwt>
<pdfrwt beam="2">  1       21 0.34090605E-01 0.45264786E+03</pdfrwt>
<totfact> 0.70013677E+04</totfact>
</mgrwt>
</event>
<event>
 7    0  0.4766352E-002  0.4516565E+03  0.7546771E-02  0.1027229E+00
         21   -1    0    0  502  501  0.00000000000E+00  0.00000000000E+00  0.30019835429E+03  0.30019835429E+03  0.00000000000E+00 0.  1.
         21   -1    0    0  501  502 -0.00000000000E+00 -0.00000000000E+00 -0.16988233689E+03  0.16988233689E+03  0.00000000000E+00 0.  1.
      99926    2    1    2    0    0  0.00000000000E+00  0.00000000000E+00  0.13031601740E+03  0.47008069118E+03  0.45165649761E+03 0.  0.
      99925    2    3    3    0    0 -0.71585615101E+02  0.53248810880E+02  0.14920713248E+03  0.31527656178E+03  0.26301445944E+03 0.  0.
         25    1    4    4    0    0 -0.37597077898E+02  0.16680777242E+02  0.29186635113E+02  0.13487459496E+03  0.12509000000E+03 0.  0.
         25    1    3    3    0    0  0.71585615101E+02 -0.53248810880E+02 -0.18891115083E+02  0.15480412940E+03  0.12509000000E+03 0.  0.
         25    1    4    4    0    0 -0.33988537203E+02  0.36568033638E+02  0.12002049737E+03  0.18040196683E+03  0.12509000000E+03 0.  0.
<mgrwt>
<rscale>  2 0.45165650E+03</rscale>
<asrwt>0</asrwt>
<pdfrwt beam="1">  1       21 0.44146817E-01 0.45165650E+03</pdfrwt>
<pdfrwt beam="2">  1       21 0.24982697E-01 0.45165650E+03</pdfrwt>
<totfact> 0.69248562E+04</totfact>
</mgrwt>
</event>
<event>
 7    0  0.4766352E-002  0.4603381E+03  0.7546771E-02  0.1024683E+00
         21   -1    0    0  502  501  0.00000000000E+00  0.00000000000E+00  0.15348832522E+04  0.15348832522E+04  0.00000000000E+00 0.  1.
         21   -1    0    0  501  502 -0.00000000000E+00 -0.00000000000E+00 -0.34515851392E+02  0.34515851392E+02  0.00000000000E+00 0.  1.
      99926    2    1    2    0    0  0.00000000000E+00  0.35527136788E-14  0.15003674008E+04  0.15693991036E+04  0.46033814631E+03 0.  0.
      99925    2    3    3    0    0  0.11596228102E+03 -0.79597225256E+01  0.10218773592E+04  0.10613530075E+04  0.26215694028E+03 0.  0.
         25    1    3    3    0    0 -0.11596228102E+03  0.79597225256E+01  0.47849004156E+03  0.50804609611E+03  0.12509000000E+03 0.  0.
         25    1    4    4    0    0  0.76595218328E+02  0.16325603937E+02  0.42952780778E+03  0.45417507480E+03  0.12509000000E+03 0.  0.
         25    1    4    4    0    0  0.39367062693E+02 -0.24285326463E+02  0.59234955147E+03  0.60717793268E+03  0.12509000000E+03 0.  0.
<mgrwt>
<rscale>  2 0.46033815E+03</rscale>
<asrwt>0</asrwt>
<pdfrwt beam="1">  1       21 0.22571808E+00 0.46033815E+03</pdfrwt>
<pdfrwt beam="2">  1       21 0.50758615E-02 0.46033815E+03</pdfrwt>
<totfact> 0.21234361E+04</totfact>
</mgrwt>
</event>
<event>
 7    0  0.4766352E-002  0.4522783E+03  0.7546771E-02  0.1027045E+00
         21   -1    0    0  502  501  0.00000000000E+00  0.00000000000E+00  0.45421517524E+02  0.45421517524E+02  0.00000000000E+00 0. -1.
         21   -1    0    0  501  502 -0.00000000000E+00 -0.00000000000E+00 -0.11258743203E+04  0.11258743203E+04  0.00000000000E+00 0. -1.
      99926    2    1    2    0    0  0.81878948066E-15  0.00000000000E+00 -0.10804528028E+04  0.11712958378E+04  0.45227832215E+03 0.  0.
      99925    2    3    3    0    0  0.69153309299E-01  0.71363609145E+02 -0.46252662589E+03  0.53680940167E+03  0.26294616286E+03 0.  0.
         25    1    3    3    0    0 -0.69153309299E-01 -0.71363609145E+02 -0.61792617691E+03  0.63448643618E+03  0.12509000000E+03 0.  0.
         25    1    4    4    0    0 -0.22162584624E+02  0.60540698527E+02 -0.19529681160E+03  0.24071707263E+03  0.12509000000E+03 0.  0.
         25    1    4    4    0    0  0.22231737933E+02  0.10822910618E+02 -0.26722981429E+03  0.29609232903E+03  0.12509000000E+03 0.  0.
<mgrwt>
<rscale>  2 0.45227832E+03</rscale>
<asrwt>0</asrwt>
<pdfrwt beam="1">  1       21 0.66796338E-02 0.45227832E+03</pdfrwt>
<pdfrwt beam="2">  1       21 0.16556978E+00 0.45227832E+03</pdfrwt>
<totfact> 0.33790176E+04</totfact>
</mgrwt>
</event>
<event>
 7    0  0.4766352E-002  0.4687232E+03  0.7546771E-02  0.1022281E+00
         21   -1    0    0  502  501  0.00000000000E+00  0.00000000000E+00  0.13350088807E+03  0.13350088807E+03  0.00000000000E+00 0.  1.
         21   -1    0    0  501  502 -0.00000000000E+00 -0.00000000000E+00 -0.41142319870E+03  0.41142319870E+03  0.00000000000E+00 0.  1.
      99926    2    1    2    0    0  0.14210854715E-13 -0.35527136788E-14 -0.27792231064E+03  0.54492408677E+03  0.46872321213E+03 0.  0.
      99925    2    3    3    0    0 -0.12060815570E+03  0.28899979735E+02 -0.19528707170E+03  0.35035372195E+03  0.26311433648E+03 0.  0.
         25    1    4    4    0    0 -0.76482750360E+02  0.80832827649E+01 -0.56745662365E+02  0.15742467678E+03  0.12509000000E+03 0.  0.
         25    1    4    4    0    0 -0.44125405344E+02  0.20816696970E+02 -0.13854140934E+03  0.19292904517E+03  0.12509000000E+03 0.  0.
         25    1    3    3    0    0  0.12060815570E+03 -0.28899979735E+02 -0.82635238936E+02  0.19457036482E+03  0.12509000000E+03 0.  0.
<mgrwt>
<rscale>  2 0.46872321E+03</rscale>
<asrwt>0</asrwt>
<pdfrwt beam="1">  1       21 0.19632484E-01 0.46872321E+03</pdfrwt>
<pdfrwt beam="2">  1       21 0.60503412E-01 0.46872321E+03</pdfrwt>
<totfact> 0.55878694E+04</totfact>
</mgrwt>
</event>
<event>
 7    0  0.4766352E-002  0.4757957E+03  0.7546771E-02  0.1020297E+00
         21   -1    0    0  502  501  0.00000000000E+00  0.00000000000E+00  0.15034698321E+04  0.15034698321E+04  0.00000000000E+00 0. -1.
         21   -1    0    0  501  502 -0.00000000000E+00 -0.00000000000E+00 -0.37643179895E+02  0.37643179895E+02  0.00000000000E+00 0. -1.
      99926    2    1    2    0    0  0.00000000000E+00  0.00000000000E+00  0.14658266522E+04  0.15411130120E+04  0.47579569294E+03 0.  0.
      99925    2    3    3    0    0 -0.11475803163E+03 -0.61621021694E+02  0.84397861687E+03  0.89357224626E+03  0.26306823718E+03 0.  0.
         25    1    4    4    0    0 -0.68420760302E+02 -0.34889219768E+01  0.50332445956E+03  0.52314108299E+03  0.12509000000E+03 0.  0.
         25    1    4    4    0    0 -0.46337271326E+02 -0.58132099717E+02  0.34065415731E+03  0.37043116327E+03  0.12509000000E+03 0.  0.
         25    1    3    3    0    0  0.11475803163E+03  0.61621021694E+02  0.62184803531E+03  0.64754076571E+03  0.12509000000E+03 0.  0.
<mgrwt>
<rscale>  2 0.47579569E+03</rscale>
<asrwt>0</asrwt>
<pdfrwt beam="1">  1       21 0.22109846E+00 0.47579569E+03</pdfrwt>
<pdfrwt beam="2">  1       21 0.55357628E-02 0.47579569E+03</pdfrwt>
<totfact> 0.19452740E+04</totfact>
</mgrwt>
</event>
<event>
 7    0  0.4766352E-002  0.4539070E+03  0.7546771E-02  0.1026563E+00
         21   -1    0    0  502  501  0.00000000000E+00  0.00000000000E+00  0.30545809659E+03  0.30545809659E+03  0.00000000000E+00 0.  1.
         21   -1    0    0  501  502 -0.00000000000E+00 -0.00000000000E+00 -0.16862506248E+03  0.16862506248E+03  0.00000000000E+00 0.  1.
      99926    2    1    2    0    0  0.00000000000E+00 -0.71054273576E-14  0.13683303411E+03  0.47408315907E+03  0.45390699762E+03 0.  0.
      99925    2    3    3    0    0  0.37943638096E+02  0.63287235788E+02 -0.19855541067E+01  0.27317745377E+03  0.26301518005E+03 0.  0.
         25    1    4    4    0    0  0.20670827436E+02  0.49272499896E+02  0.35742784187E+02  0.14064180415E+03  0.12509000000E+03 0.  0.
         25    1    3    3    0    0 -0.37943638096E+02 -0.63287235788E+02  0.13881858822E+03  0.20090570530E+03  0.12509000000E+03 0.  0.
         25    1    4    4    0    0  0.17272810660E+02  0.14014735891E+02 -0.37728338294E+02  0.13253564962E+03  0.12509000000E+03 0.  0.
<mgrwt>
<rscale>  2 0.45390700E+03</rscale>
<asrwt>0</asrwt>
<pdfrwt beam="1">  1       21 0.44920308E-01 0.45390700E+03</pdfrwt>
<pdfrwt beam="2">  1       21 0.24797803E-01 0.45390700E+03</pdfrwt>
<totfact> 0.67718872E+04</totfact>
</mgrwt>
</event>
<event>
 7    0  0.4766352E-002  0.4600681E+03  0.7546771E-02  0.1024761E+00
         21   -1    0    0  502  501  0.00000000000E+00  0.00000000000E+00  0.98221753828E+02  0.98221753828E+02  0.00000000000E+00 0. -1.
         21   -1    0    0  501  502 -0.00000000000E+00 -0.00000000000E+00 -0.53873676936E+03  0.53873676936E+03  0.00000000000E+00 0. -1.
      99926    2    1    2    0    0  0.00000000000E+00  0.00000000000E+00 -0.44051501554E+03  0.63695852319E+03  0.46006812686E+03 0.  0.
      99925    2    3    3    0    0  0.10813576958E+02 -0.11711232534E+03 -0.28544166040E+03  0.40559844935E+03  0.26306069724E+03 0.  0.
         25    1    3    3    0    0 -0.10813576958E+02  0.11711232534E+03 -0.15507335514E+03  0.23136007384E+03  0.12509000000E+03 0.  0.
         25    1    4    4    0    0 -0.53692823008E+01 -0.10115419377E+03 -0.15551337959E+03  0.22381447550E+03  0.12509000000E+03 0.  0.
         25    1    4    4    0    0  0.16182859258E+02 -0.15958131572E+02 -0.12992828081E+03  0.18178397385E+03  0.12509000000E+03 0.  0.
<mgrwt>
<rscale>  2 0.46006813E+03</rscale>
<asrwt>0</asrwt>
<pdfrwt beam="1">  1       21 0.14444376E-01 0.46006813E+03</pdfrwt>
<pdfrwt beam="2">  1       21 0.79225995E-01 0.46006813E+03</pdfrwt>
<totfact> 0.54256057E+04</totfact>
</mgrwt>
</event>
<event>
 7    0  0.4766352E-002  0.4611680E+03  0.7546771E-02  0.1024443E+00
         21   -1    0    0  502  501  0.00000000000E+00  0.00000000000E+00  0.66285092485E+03  0.66285092485E+03  0.00000000000E+00 0.  1.
         21   -1    0    0  501  502 -0.00000000000E+00 -0.00000000000E+00 -0.80212577892E+02  0.80212577892E+02  0.00000000000E+00 0.  1.
      99926    2    1    2    0    0  0.00000000000E+00  0.00000000000E+00  0.58263834696E+03  0.74306350274E+03  0.46116800167E+03 0.  0.
      99925    2    3    3    0    0  0.76534024598E+02 -0.81591135540E+02  0.29956597997E+03  0.41398593838E+03  0.26292586502E+03 0.  0.
         25    1    4    4    0    0  0.85202311751E+01 -0.64553026123E+02  0.12872354979E+03  0.19093702598E+03  0.12509000000E+03 0.  0.
         25    1    4    4    0    0  0.68013793423E+02 -0.17038109417E+02  0.17084243018E+03  0.22304891239E+03  0.12509000000E+03 0.  0.
         25    1    3    3    0    0 -0.76534024598E+02  0.81591135540E+02  0.28307236698E+03  0.32907756437E+03  0.12509000000E+03 0.  0.
<mgrwt>
<rscale>  2 0.46116800E+03</rscale>
<asrwt>0</asrwt>
<pdfrwt beam="1">  1       21 0.97478074E-01 0.46116800E+03</pdfrwt>
<pdfrwt beam="2">  1       21 0.11795968E-01 0.46116800E+03</pdfrwt>
<totfact> 0.48244367E+04</totfact>
</mgrwt>
</event>
<event>
 7    0  0.4766352E-002  0.4641009E+03  0.7546771E-02  0.1023599E+00
         21   -1    0    0  502  501  0.00000000000E+00  0.00000000000E+00  0.26267564357E+03  0.26267564357E+03  0.00000000000E+00 0. -1.
         21   -1    0    0  501  502 -0.00000000000E+00 -0.00000000000E+00 -0.20499579917E+03  0.20499579917E+03  0.00000000000E+00 0. -1.
      99926    2    1    2    0    0  0.00000000000E+00  0.71054273576E-14  0.57679844402E+02  0.46767144275E+03  0.46410086609E+03 0.  0.
      99925    2    3    3    0    0 -0.10449940775E+03 -0.61741324645E+02  0.41053380829E+02  0.29258270873E+03  0.26303449200E+03 0.  0.
         25    1    4    4    0    0 -0.31904802118E+02 -0.42541021464E+02 -0.14002454015E+02  0.13664271559E+03  0.12509000000E+03 0.  0.
         25    1    3    3    0    0  0.10449940775E+03  0.61741324645E+02  0.16626463573E+02  0.17508873402E+03  0.12509000000E+03 0.  0.
         25    1    4    4    0    0 -0.72594605632E+02 -0.19200303182E+02  0.55055834844E+02  0.15593999314E+03  0.12509000000E+03 0.  0.
<mgrwt>
<rscale>  2 0.46410087E+03</rscale>
<asrwt>0</asrwt>
<pdfrwt beam="1">  1       21 0.38628771E-01 0.46410087E+03</pdfrwt>
<pdfrwt beam="2">  1       21 0.30146441E-01 0.46410087E+03</pdfrwt>
<totfact> 0.62931982E+04</totfact>
</mgrwt>
</event>
<event>
 7    0  0.4766352E-002  0.4414260E+03  0.7546771E-02  0.1030310E+00
         21   -1    0    0  502  501  0.00000000000E+00  0.00000000000E+00  0.22534910851E+03  0.22534910851E+03  0.00000000000E+00 0.  1.
         21   -1    0    0  501  502 -0.00000000000E+00 -0.00000000000E+00 -0.21617227627E+03  0.21617227627E+03  0.00000000000E+00 0.  1.
      99926    2    1    2    0    0  0.00000000000E+00  0.00000000000E+00  0.91768322414E+01  0.44152138478E+03  0.44142600622E+03 0.  0.
      99925    2    3    3    0    0 -0.63629601255E+02  0.76526860672E+02  0.14099098774E+02  0.28159382815E+03  0.26304222647E+03 0.  0.
         25    1    4    4    0    0 -0.47118252237E+02  0.37231562160E+02 -0.30589614584E+02  0.14208994171E+03  0.12509000000E+03 0.  0.
         25    1    3    3    0    0  0.63629601255E+02 -0.76526860672E+02 -0.49222665321E+01  0.15992755662E+03  0.12509000000E+03 0.  0.
         25    1    4    4    0    0 -0.16511349017E+02  0.39295298512E+02  0.44688713357E+02  0.13950388644E+03  0.12509000000E+03 0.  0.
<mgrwt>
<rscale>  2 0.44142601E+03</rscale>
<asrwt>0</asrwt>
<pdfrwt beam="1">  1       21 0.33139575E-01 0.44142601E+03</pdfrwt>
<pdfrwt beam="2">  1       21 0.31790040E-01 0.44142601E+03</pdfrwt>
<totfact> 0.77616559E+04</totfact>
</mgrwt>
</event>
<event>
 7    0  0.4766352E-002  0.4581322E+03  0.7546771E-02  0.1025324E+00
         21   -1    0    0  502  501  0.00000000000E+00  0.00000000000E+00  0.30873704809E+03  0.30873704809E+03  0.00000000000E+00 0.  1.
         21   -1    0    0  501  502 -0.00000000000E+00 -0.00000000000E+00 -0.16995456496E+03  0.16995456496E+03  0.00000000000E+00 0.  1.
      99926    2    1    2    0    0 -0.35527136788E-14  0.35527136788E-14  0.13878248313E+03  0.47869161305E+03  0.45813216737E+03 0.  0.
      99925    2    3    3    0    0  0.17001490171E+02 -0.17365145268E+02  0.20564748550E+03  0.33478526996E+03  0.26305833906E+03 0.  0.
         25    1    4    4    0    0 -0.25596914930E+02 -0.21022337765E+02  0.12509387069E+03  0.17998090266E+03  0.12509000000E+03 0.  0.
         25    1    3    3    0    0 -0.17001490171E+02  0.17365145268E+02 -0.66865002376E+02  0.14390634309E+03  0.12509000000E+03 0.  0.
         25    1    4    4    0    0  0.42598405101E+02  0.36571924978E+01  0.80553614814E+02  0.15480436730E+03  0.12509000000E+03 0.  0.
<mgrwt>
<rscale>  2 0.45813217E+03</rscale>
<asrwt>0</asrwt>
<pdfrwt beam="1">  1       21 0.45402507E-01 0.45813217E+03</pdfrwt>
<pdfrwt beam="2">  1       21 0.24993318E-01 0.45813217E+03</pdfrwt>
<totfact> 0.65160542E+04</totfact>
</mgrwt>
</event>
<event>
 7    0  0.4766352E-002  0.4559315E+03  0.7546771E-02  0.1025968E+00
         21   -1    0    0  502  501  0.00000000000E+00  0.00000000000E+00  0.11796104561E+03  0.11796104561E+03  0.00000000000E+00 0. -1.
         21   -1    0    0  501  502 -0.00000000000E+00 -0.00000000000E+00 -0.44055548036E+03  0.44055548036E+03  0.00000000000E+00 0. -1.
      99926    2    1    2    0    0  0.00000000000E+00  0.14210854715E-13 -0.32259443475E+03  0.55851652596E+03  0.45593150850E+03 0.  0.
      99925    2    3    3    0    0 -0.85625547751E+02  0.74858828954E+02 -0.19170795544E+03  0.34470736510E+03  0.26293658680E+03 0.  0.
         25    1    3    3    0    0  0.85625547751E+02 -0.74858828954E+02 -0.13088647932E+03  0.21380916086E+03  0.12509000000E+03 0.  0.
         25    1    4    4    0    0 -0.66659294009E+02  0.16181859150E+02 -0.12683907871E+03  0.19089519122E+03  0.12509000000E+03 0.  0.
         25    1    4    4    0    0 -0.18966253742E+02  0.58676969804E+02 -0.64868876722E+02  0.15381217388E+03  0.12509000000E+03 0.  0.
<mgrwt>
<rscale>  2 0.45593151E+03</rscale>
<asrwt>0</asrwt>
<pdfrwt beam="1">  1       21 0.17347213E-01 0.45593151E+03</pdfrwt>
<pdfrwt beam="2">  1       21 0.64787570E-01 0.45593151E+03</pdfrwt>
<totfact> 0.60857552E+04</totfact>
</mgrwt>
</event>
<event>
 7    0  0.4766352E-002  0.4519501E+03  0.7546771E-02  0.1027142E+00
         21   -1    0    0  502  501  0.00000000000E+00  0.00000000000E+00  0.29870503562E+03  0.29870503562E+03  0.00000000000E+00 0.  1.
         21   -1    0    0  501  502 -0.00000000000E+00 -0.00000000000E+00 -0.17095370443E+03  0.17095370443E+03  0.00000000000E+00 0.  1.
      99926    2    1    2    0    0  0.00000000000E+00  0.00000000000E+00  0.12775133118E+03  0.46965874005E+03  0.45195014048E+03 0.  0.
      99925    2    3    3    0    0  0.77519335554E+02 -0.78221172936E+02  0.74414286116E+02  0.29467260415E+03  0.26299554821E+03 0.  0.
         25    1    4    4    0    0  0.57216118597E+02 -0.21889286806E+02  0.44870164086E+01  0.13935733393E+03  0.12509000000E+03 0.  0.
         25    1    3    3    0    0 -0.77519335554E+02  0.78221172936E+02  0.53337045068E+02  0.17498613590E+03  0.12509000000E+03 0.  0.
         25    1    4    4    0    0  0.20303216957E+02 -0.56331886130E+02  0.69927269708E+02  0.15531527022E+03  0.12509000000E+03 0.  0.
<mgrwt>
<rscale>  2 0.45195014E+03</rscale>
<asrwt>0</asrwt>
<pdfrwt beam="1">  1       21 0.43927211E-01 0.45195014E+03</pdfrwt>
<pdfrwt beam="2">  1       21 0.25140251E-01 0.45195014E+03</pdfrwt>
<totfact> 0.69118474E+04</totfact>
</mgrwt>
</event>
<event>
 7    0  0.4766352E-002  0.4432903E+03  0.7546771E-02  0.1029742E+00
         21   -1    0    0  502  501  0.00000000000E+00  0.00000000000E+00  0.77843516079E+02  0.77843516079E+02  0.00000000000E+00 0.  1.
         21   -1    0    0  501  502 -0.00000000000E+00 -0.00000000000E+00 -0.63109395911E+03  0.63109395911E+03  0.00000000000E+00 0.  1.
      99926    2    1    2    0    0  0.17763568394E-14  0.00000000000E+00 -0.55325044303E+03  0.70893747519E+03  0.44329030106E+03 0.  0.
      99925    2    3    3    0    0 -0.10527896095E+02  0.40153026145E+02 -0.20300050574E+03  0.33471076746E+03  0.26286686824E+03 0.  0.
         25    1    3    3    0    0  0.10527896095E+02 -0.40153026145E+02 -0.35024993729E+03  0.37422670773E+03  0.12509000000E+03 0.  0.
         25    1    4    4    0    0 -0.53621877424E+01  0.16850677642E+02 -0.15170835441E+03  0.19742246906E+03  0.12509000000E+03 0.  0.
         25    1    4    4    0    0 -0.51657083530E+01  0.23302348503E+02 -0.51292151334E+02  0.13728829840E+03  0.12509000000E+03 0.  0.
<mgrwt>
<rscale>  2 0.44329030E+03</rscale>
<asrwt>0</asrwt>
<pdfrwt beam="1">  1       21 0.11447576E-01 0.44329030E+03</pdfrwt>
<pdfrwt beam="2">  1       21 0.92807936E-01 0.44329030E+03</pdfrwt>
<totfact> 0.57541186E+04</totfact>
</mgrwt>
</event>
<event>
 7    0  0.4766352E-002  0.4555262E+03  0.7546771E-02  0.1026087E+00
         21   -1    0    0  502  501  0.00000000000E+00  0.00000000000E+00  0.41179729792E+02  0.41179729792E+02  0.00000000000E+00 0. -1.
         21   -1    0    0  501  502 -0.00000000000E+00 -0.00000000000E+00 -0.12597468325E+04  0.12597468325E+04  0.00000000000E+00 0. -1.
      99926    2    1    2    0    0  0.00000000000E+00 -0.71054273576E-14 -0.12185671027E+04  0.13009265623E+04  0.45552621952E+03 0.  0.
      99925    2    3    3    0    0 -0.89713743263E+02 -0.51133944104E+02 -0.63320676619E+03  0.69350787009E+03  0.26332322563E+03 0.  0.
         25    1    4    4    0    0 -0.39903576060E+02 -0.13546550425E+01 -0.38504489636E+03  0.40681840026E+03  0.12509000000E+03 0.  0.
         25    1    3    3    0    0  0.89713743263E+02  0.51133944104E+02 -0.58536033651E+03  0.60741869219E+03  0.12509000000E+03 0.  0.
         25    1    4    4    0    0 -0.49810167203E+02 -0.49779289061E+02 -0.24816186983E+03  0.28668946983E+03  0.12509000000E+03 0.  0.
<mgrwt>
<rscale>  2 0.45552622E+03</rscale>
<asrwt>0</asrwt>
<pdfrwt beam="1">  1       21 0.60558434E-02 0.45552622E+03</pdfrwt>
<pdfrwt beam="2">  1       21 0.18525686E+00 0.45552622E+03</pdfrwt>
<totfact> 0.28969057E+04</totfact>
</mgrwt>
</event>
<event>
 7    0  0.4766352E-002  0.4485163E+03  0.7546771E-02  0.1028165E+00
         21   -1    0    0  502  501  0.00000000000E+00  0.00000000000E+00  0.45062704709E+02  0.45062704709E+02  0.00000000000E+00 0. -1.
         21   -1    0    0  501  502 -0.00000000000E+00 -0.00000000000E+00 -0.11160387363E+04  0.11160387363E+04  0.00000000000E+00 0. -1.
      99926    2    1    2    0    0  0.00000000000E+00 -0.71054273576E-14 -0.10709760316E+04  0.11611014410E+04  0.44851632753E+03 0.  0.
      99925    2    3    3    0    0  0.26827034105E+02 -0.57056552881E+02 -0.45417659675E+03  0.52859516365E+03  0.26298541025E+03 0.  0.
         25    1    3    3    0    0 -0.26827034105E+02  0.57056552881E+02 -0.61679943481E+03  0.63250627734E+03  0.12509000000E+03 0.  0.
         25    1    4    4    0    0  0.33084314044E+01  0.94284603218E+01 -0.18564617025E+03  0.22408000850E+03  0.12509000000E+03 0.  0.
         25    1    4    4    0    0  0.23518602701E+02 -0.66485013203E+02 -0.26853042651E+03  0.30451515514E+03  0.12509000000E+03 0.  0.
<mgrwt>
<rscale>  2 0.44851633E+03</rscale>
<asrwt>0</asrwt>
<pdfrwt beam="1">  1       21 0.66268683E-02 0.44851633E+03</pdfrwt>
<pdfrwt beam="2">  1       21 0.16412334E+00 0.44851633E+03</pdfrwt>
<totfact> 0.35156896E+04</totfact>
</mgrwt>
</event>
<event>
 7    0  0.4766352E-002  0.4574885E+03  0.7546771E-02  0.1025512E+00
         21   -1    0    0  502  501  0.00000000000E+00  0.00000000000E+00  0.17857941934E+03  0.17857941934E+03  0.00000000000E+00 0. -1.
         21   -1    0    0  501  502 -0.00000000000E+00 -0.00000000000E+00 -0.29300094358E+03  0.29300094358E+03  0.00000000000E+00 0. -1.
      99926    2    1    2    0    0  0.00000000000E+00  0.00000000000E+00 -0.11442152424E+03  0.47158036292E+03  0.45748852825E+03 0.  0.
      99925    2    3    3    0    0  0.28776140059E+02 -0.74758433825E+01 -0.18694969312E+03  0.32395991091E+03  0.26289899514E+03 0.  0.
         25    1    3    3    0    0 -0.28776140059E+02  0.74758433825E+01  0.72528168882E+02  0.14762045201E+03  0.12509000000E+03 0.  0.
         25    1    4    4    0    0 -0.25201416564E+02  0.23585469267E+01 -0.98706950123E+02  0.16134201016E+03  0.12509000000E+03 0.  0.
         25    1    4    4    0    0  0.53977556623E+02 -0.98343903093E+01 -0.88242743001E+02  0.16261790075E+03  0.12509000000E+03 0.  0.
<mgrwt>
<rscale>  2 0.45748853E+03</rscale>
<asrwt>0</asrwt>
<pdfrwt beam="1">  1       21 0.26261680E-01 0.45748853E+03</pdfrwt>
<pdfrwt beam="2">  1       21 0.43088374E-01 0.45748853E+03</pdfrwt>
<totfact> 0.66005675E+04</totfact>
</mgrwt>
</event>
<event>
 7    0  0.4766352E-002  0.4600273E+03  0.7546771E-02  0.1024773E+00
         21   -1    0    0  502  501  0.00000000000E+00  0.00000000000E+00  0.34390192044E+03  0.34390192044E+03  0.00000000000E+00 0. -1.
         21   -1    0    0  501  502 -0.00000000000E+00 -0.00000000000E+00 -0.15384115230E+03  0.15384115230E+03  0.00000000000E+00 0. -1.
      99926    2    1    2    0    0  0.00000000000E+00  0.00000000000E+00  0.19006076814E+03  0.49774307274E+03  0.46002725014E+03 0.  0.
      99925    2    3    3    0    0 -0.86505298211E+02  0.70637027422E+02  0.78588376187E+02  0.29638180901E+03  0.26304617005E+03 0.  0.
         25    1    4    4    0    0 -0.33829190253E+02 -0.57721109116E+01  0.28930418482E+02  0.13289924225E+03  0.12509000000E+03 0.  0.
         25    1    4    4    0    0 -0.52676107959E+02  0.76409138333E+02  0.49657957705E+02  0.16348256676E+03  0.12509000000E+03 0.  0.
         25    1    3    3    0    0  0.86505298211E+02 -0.70637027422E+02  0.11147239196E+03  0.20136126373E+03  0.12509000000E+03 0.  0.
<mgrwt>
<rscale>  2 0.46002725E+03</rscale>
<asrwt>0</asrwt>
<pdfrwt beam="1">  1       21 0.50573812E-01 0.46002725E+03</pdfrwt>
<pdfrwt beam="2">  1       21 0.22623699E-01 0.46002725E+03</pdfrwt>
<totfact> 0.62882223E+04</totfact>
</mgrwt>
</event>
<event>
 7    0  0.4766352E-002  0.4517824E+03  0.7546771E-02  0.1027192E+00
         21   -1    0    0  502  501  0.00000000000E+00  0.00000000000E+00  0.47613896735E+03  0.47613896735E+03  0.00000000000E+00 0. -1.
         21   -1    0    0  501  502 -0.00000000000E+00 -0.00000000000E+00 -0.10716793048E+03  0.10716793048E+03  0.00000000000E+00 0. -1.
      99926    2    1    2    0    0  0.00000000000E+00  0.14210854715E-13  0.36897103687E+03  0.58330689783E+03  0.45178237129E+03 0.  0.
      99925    2    3    3    0    0  0.27510179887E+02 -0.90702277892E+02  0.30565196578E+03  0.41407177714E+03  0.26277100149E+03 0.  0.
         25    1    4    4    0    0 -0.11353941142E+02 -0.51356018803E+02  0.10660457823E+03  0.17256418182E+03  0.12509000000E+03 0.  0.
         25    1    3    3    0    0 -0.27510179887E+02  0.90702277892E+02  0.63319071084E+02  0.16923512069E+03  0.12509000000E+03 0.  0.
         25    1    4    4    0    0  0.38864121029E+02 -0.39346259089E+02  0.19904738755E+03  0.24150759532E+03  0.12509000000E+03 0.  0.
<mgrwt>
<rscale>  2 0.45178237E+03</rscale>
<asrwt>0</asrwt>
<pdfrwt beam="1">  1       21 0.70020435E-01 0.45178237E+03</pdfrwt>
<pdfrwt beam="2">  1       21 0.15759990E-01 0.45178237E+03</pdfrwt>
<totfact> 0.61261089E+04</totfact>
</mgrwt>
</event>
<event>
 7    0  0.4766352E-002  0.4531172E+03  0.7546771E-02  0.1026797E+00
         21   -1    0    0  502  501  0.00000000000E+00  0.00000000000E+00  0.91872200562E+03  0.91872200562E+03  0.00000000000E+00 0. -1.
         21   -1    0    0  501  502 -0.00000000000E+00 -0.00000000000E+00 -0.55869770907E+02  0.55869770907E+02  0.00000000000E+00 0. -1.
      99926    2    1    2    0    0  0.00000000000E+00  0.00000000000E+00  0.86285223472E+03  0.97459177653E+03  0.45311715033E+03 0.  0.
      99925    2    3    3    0    0  0.45611131361E+02 -0.79361771304E+02  0.40754333677E+03  0.49362154180E+03  0.26304370195E+03 0.  0.
         25    1    4    4    0    0  0.31023026449E+02 -0.15716144330E+02  0.25286939982E+03  0.28425317382E+03  0.12509000000E+03 0.  0.
         25    1    4    4    0    0  0.14588104913E+02 -0.63645626974E+02  0.15467393695E+03  0.20936836798E+03  0.12509000000E+03 0.  0.
         25    1    3    3    0    0 -0.45611131361E+02  0.79361771304E+02  0.45530889795E+03  0.48097023474E+03  0.12509000000E+03 0.  0.
<mgrwt>
<rscale>  2 0.45311715E+03</rscale>
<asrwt>0</asrwt>
<pdfrwt beam="1">  1       21 0.13510617E+00 0.45311715E+03</pdfrwt>
<pdfrwt beam="2">  1       21 0.82161433E-02 0.45311715E+03</pdfrwt>
<totfact> 0.40757315E+04</totfact>
</mgrwt>
</event>
<event>
 7    0  0.4766352E-002  0.4636214E+03  0.7546771E-02  0.1023736E+00
         21   -1    0    0  502  501  0.00000000000E+00  0.00000000000E+00  0.31402669378E+02  0.31402669378E+02  0.00000000000E+00 0. -1.
         21   -1    0    0  501  502 -0.00000000000E+00 -0.00000000000E+00 -0.17111983644E+04  0.17111983644E+04  0.00000000000E+00 0. -1.
      99926    2    1    2    0    0  0.14210854715E-13  0.00000000000E+00 -0.16797956950E+04  0.17426010337E+04  0.46362138206E+03 0.  0.
      99925    2    3    3    0    0  0.10060975543E+03 -0.45322071656E+02 -0.12359406441E+04  0.12684373201E+04  0.26307327142E+03 0.  0.
         25    1    4    4    0    0  0.45637130157E+02  0.77089990489E+01 -0.71187479925E+03  0.72426197900E+03  0.12509000000E+03 0.  0.
         25    1    4    4    0    0  0.54972625275E+02 -0.53031070705E+02 -0.52406584484E+03  0.54417534106E+03  0.12509000000E+03 0.  0.
         25    1    3    3    0    0 -0.10060975543E+03  0.45322071656E+02 -0.44385505089E+03  0.47416371367E+03  0.12509000000E+03 0.  0.
<mgrwt>
<rscale>  2 0.46362138E+03</rscale>
<asrwt>0</asrwt>
<pdfrwt beam="1">  1       21 0.46180387E-02 0.46362138E+03</pdfrwt>
<pdfrwt beam="2">  1       21 0.25164687E+00 0.46362138E+03</pdfrwt>
<totfact> 0.17208011E+04</totfact>
</mgrwt>
</event>
<event>
 7    0  0.4766352E-002  0.4513704E+03  0.7546771E-02  0.1027314E+00
         21   -1    0    0  502  501  0.00000000000E+00  0.00000000000E+00  0.15899523185E+03  0.15899523185E+03  0.00000000000E+00 0.  1.
         21   -1    0    0  501  502 -0.00000000000E+00 -0.00000000000E+00 -0.32034801510E+03  0.32034801510E+03  0.00000000000E+00 0.  1.
      99926    2    1    2    0    0  0.00000000000E+00  0.00000000000E+00 -0.16135278324E+03  0.47934324695E+03  0.45137038863E+03 0.  0.
      99925    2    3    3    0    0 -0.60511744973E+02 -0.56263070132E+02 -0.17854471743E+03  0.32844501952E+03  0.26300325166E+03 0.  0.
         25    1    3    3    0    0  0.60511744973E+02  0.56263070132E+02  0.17191934188E+02  0.15089822743E+03  0.12509000000E+03 0.  0.
         25    1    4    4    0    0 -0.24966922849E+02 -0.67112553238E+02 -0.10796225308E+03  0.18008553031E+03  0.12509000000E+03 0.  0.
         25    1    4    4    0    0 -0.35544822124E+02  0.10849483106E+02 -0.70582464349E+02  0.14835948920E+03  0.12509000000E+03 0.  0.
<mgrwt>
<rscale>  2 0.45137039E+03</rscale>
<asrwt>0</asrwt>
<pdfrwt beam="1">  1       21 0.23381652E-01 0.45137039E+03</pdfrwt>
<pdfrwt beam="2">  1       21 0.47110002E-01 0.45137039E+03</pdfrwt>
<totfact> 0.68706196E+04</totfact>
</mgrwt>
</event>
<event>
 7    0  0.4766352E-002  0.4589109E+03  0.7546771E-02  0.1025098E+00
         21   -1    0    0  502  501  0.00000000000E+00  0.00000000000E+00  0.85585731161E+03  0.85585731161E+03  0.00000000000E+00 0.  1.
         21   -1    0    0  501  502 -0.00000000000E+00 -0.00000000000E+00 -0.61517040515E+02  0.61517040515E+02  0.00000000000E+00 0.  1.
      99926    2    1    2    0    0  0.00000000000E+00 -0.35527136788E-14  0.79434027109E+03  0.91737435212E+03  0.45891092344E+03 0.  0.
      99925    2    3    3    0    0  0.10234534576E+03  0.75291702978E+01  0.38777869939E+03  0.47980026938E+03  0.26325789749E+03 0.  0.
         25    1    4    4    0    0  0.52830485792E+02  0.44521035974E+02  0.18906393247E+03  0.23699337867E+03  0.12509000000E+03 0.  0.
         25    1    4    4    0    0  0.49514859964E+02 -0.36991865676E+02  0.19871476692E+03  0.24280689071E+03  0.12509000000E+03 0.  0.
         25    1    3    3    0    0 -0.10234534576E+03 -0.75291702978E+01  0.40656157170E+03  0.43757408274E+03  0.12509000000E+03 0.  0.
<mgrwt>
<rscale>  2 0.45891092E+03</rscale>
<asrwt>0</asrwt>
<pdfrwt beam="1">  1       21 0.12586136E+00 0.45891092E+03</pdfrwt>
<pdfrwt beam="2">  1       21 0.90466242E-02 0.45891092E+03</pdfrwt>
<totfact> 0.41214844E+04</totfact>
</mgrwt>
</event>
<event>
 7    0  0.4766352E-002  0.4515963E+03  0.7546771E-02  0.1027247E+00
         21   -1    0    0  502  501  0.00000000000E+00  0.00000000000E+00  0.16843774845E+03  0.16843774845E+03  0.00000000000E+00 0. -1.
         21   -1    0    0  501  502 -0.00000000000E+00 -0.00000000000E+00 -0.30269220446E+03  0.30269220446E+03  0.00000000000E+00 0. -1.
      99926    2    1    2    0    0  0.00000000000E+00 -0.71054273576E-14 -0.13425445601E+03  0.47112995291E+03  0.45159625062E+03 0.  0.
      99925    2    3    3    0    0  0.83798013286E+02 -0.63888508740E+02 -0.11739618081E+03  0.30670502134E+03  0.26302520463E+03 0.  0.
         25    1    3    3    0    0 -0.83798013286E+02  0.63888508740E+02 -0.16858275207E+02  0.16442493157E+03  0.12509000000E+03 0.  0.
         25    1    4    4    0    0  0.56319133197E+02 -0.31182616838E+02 -0.10170092357E+03  0.17359373927E+03  0.12509000000E+03 0.  0.
         25    1    4    4    0    0  0.27478880089E+02 -0.32705891902E+02 -0.15695257232E+02  0.13311128207E+03  0.12509000000E+03 0.  0.
<mgrwt>
<rscale>  2 0.45159625E+03</rscale>
<asrwt>0</asrwt>
<pdfrwt beam="1">  1       21 0.24770257E-01 0.45159625E+03</pdfrwt>
<pdfrwt beam="2">  1       21 0.44513559E-01 0.45159625E+03</pdfrwt>
<totfact> 0.69201962E+04</totfact>
</mgrwt>
</event>
<event>
 7    0  0.4766352E-002  0.4468975E+03  0.7546771E-02  0.1028651E+00
         21   -1    0    0  502  501  0.00000000000E+00  0.00000000000E+00  0.18512774733E+03  0.18512774733E+03  0.00000000000E+00 0. -1.
         21   -1    0    0  501  502 -0.00000000000E+00 -0.00000000000E+00 -0.26970212581E+03  0.26970212581E+03  0.00000000000E+00 0. -1.
      99926    2    1    2    0    0 -0.14210854715E-13  0.17763568394E-14 -0.84574378482E+02  0.45482987313E+03  0.44689751398E+03 0.  0.
      99925    2    3    3    0    0  0.91363509036E+02 -0.11759889625E+02 -0.10569099738E+03  0.29805294409E+03  0.26301974216E+03 0.  0.
         25    1    4    4    0    0  0.74245395654E+02 -0.24460966834E+02 -0.30734005928E+02  0.15067449982E+03  0.12509000000E+03 0.  0.
         25    1    4    4    0    0  0.17118113382E+02  0.12701077209E+02 -0.74956991456E+02  0.14737844427E+03  0.12509000000E+03 0.  0.
         25    1    3    3    0    0 -0.91363509036E+02  0.11759889625E+02  0.21116618902E+02  0.15677692905E+03  0.12509000000E+03 0.  0.
<mgrwt>
<rscale>  2 0.44689751E+03</rscale>
<asrwt>0</asrwt>
<pdfrwt beam="1">  1       21 0.27224669E-01 0.44689751E+03</pdfrwt>
<pdfrwt beam="2">  1       21 0.39662077E-01 0.44689751E+03</pdfrwt>
<totfact> 0.73172496E+04</totfact>
</mgrwt>
</event>
<event>
 6    0  0.4766352E-002  0.4541422E+03  0.7546771E-02  0.1026494E+00
         21   -1    0    0  502  501  0.00000000000E+00  0.00000000000E+00  0.91314701955E+03  0.91314701955E+03  0.00000000000E+00 0.  1.
         21   -1    0    0  501  502 -0.00000000000E+00 -0.00000000000E+00 -0.56465471643E+02  0.56465471643E+02  0.00000000000E+00 0.  1.
      99926    2    1    2    0    0 -0.26645352591E-14  0.00000000000E+00  0.85668154790E+03  0.96961249119E+03  0.45414216778E+03 0.  0.
         25    1    3    3    0    0  0.33570341555E+02 -0.60570722438E+02  0.27591312331E+03  0.31075929586E+03  0.12509000000E+03 0.  0.
         25    1    3    3    0    0  0.57222377885E+01  0.96912140969E+02  0.20380229944E+03  0.25808446762E+03  0.12509000000E+03 0.  0.
         25    1    3    3    0    0 -0.39292579343E+02 -0.36341418531E+02  0.37696612516E+03  0.40076872771E+03  0.12509000000E+03 0.  0.
<mgrwt>
<rscale>  2 0.45414217E+03</rscale>
<asrwt>0</asrwt>
<pdfrwt beam="1">  1       21 0.13428632E+00 0.45414217E+03</pdfrwt>
<pdfrwt beam="2">  1       21 0.83037464E-02 0.45414217E+03</pdfrwt>
<totfact> 0.40628488E+04</totfact>
</mgrwt>
</event>
<event>
 7    0  0.4766352E-002  0.4496741E+03  0.7546771E-02  0.1027819E+00
         21   -1    0    0  502  501  0.00000000000E+00  0.00000000000E+00  0.20350776091E+03  0.20350776091E+03  0.00000000000E+00 0.  1.
         21   -1    0    0  501  502 -0.00000000000E+00 -0.00000000000E+00 -0.24840182677E+03  0.24840182677E+03  0.00000000000E+00 0.  1.
      99926    2    1    2    0    0  0.00000000000E+00  0.00000000000E+00 -0.44894065858E+02  0.45190958768E+03  0.44967410231E+03 0.  0.
      99925    2    3    3    0    0 -0.16259018842E+02  0.10398409884E+03 -0.34491833921E+01  0.28326132979E+03  0.26296014067E+03 0.  0.
         25    1    3    3    0    0  0.16259018842E+02 -0.10398409884E+03 -0.41444882466E+02  0.16864825789E+03  0.12509000000E+03 0.  0.
         25    1    4    4    0    0 -0.33930325977E+02  0.25476205143E+02  0.16785140401E+02  0.13315236794E+03  0.12509000000E+03 0.  0.
         25    1    4    4    0    0  0.17671307135E+02  0.78507893698E+02 -0.20234323793E+02  0.15010896185E+03  0.12509000000E+03 0.  0.
<mgrwt>
<rscale>  2 0.44967410E+03</rscale>
<asrwt>0</asrwt>
<pdfrwt beam="1">  1       21 0.29927612E-01 0.44967410E+03</pdfrwt>
<pdfrwt beam="2">  1       21 0.36529680E-01 0.44967410E+03</pdfrwt>
<totfact> 0.71774548E+04</totfact>
</mgrwt>
</event>
<event>
 7    0  0.4766352E-002  0.4295710E+03  0.7546771E-02  0.1033996E+00
         21   -1    0    0  502  501  0.00000000000E+00  0.00000000000E+00  0.14699263507E+03  0.14699263507E+03  0.00000000000E+00 0.  1.
         21   -1    0    0  501  502 -0.00000000000E+00 -0.00000000000E+00 -0.31384432390E+03  0.31384432390E+03  0.00000000000E+00 0.  1.
      99926    2    1    2    0    0 -0.71054273576E-14  0.00000000000E+00 -0.16685168884E+03  0.46083695897E+03  0.42957096816E+03 0.  0.
      99925    2    3    3    0    0  0.60859820523E+02  0.33438902232E+02 -0.16435869537E+03  0.31774327968E+03  0.26291620928E+03 0.  0.
         25    1    4    4    0    0  0.52136323436E+01 -0.14463228207E+02 -0.88999516797E+02  0.15428800674E+03  0.12509000000E+03 0.  0.
         25    1    4    4    0    0  0.55646188179E+02  0.47902130439E+02 -0.75359178572E+02  0.16345527295E+03  0.12509000000E+03 0.  0.
         25    1    3    3    0    0 -0.60859820523E+02 -0.33438902232E+02 -0.24929934670E+01  0.14309367929E+03  0.12509000000E+03 0.  0.
<mgrwt>
<rscale>  2 0.42957097E+03</rscale>
<asrwt>0</asrwt>
<pdfrwt beam="1">  1       21 0.21616564E-01 0.42957097E+03</pdfrwt>
<pdfrwt beam="2">  1       21 0.46153576E-01 0.42957097E+03</pdfrwt>
<totfact> 0.83799848E+04</totfact>
</mgrwt>
</event>
<event>
 7    0  0.4766352E-002  0.4564414E+03  0.7546771E-02  0.1025818E+00
         21   -1    0    0  502  501  0.00000000000E+00  0.00000000000E+00  0.50263228534E+02  0.50263228534E+02  0.00000000000E+00 0.  1.
         21   -1    0    0  501  502 -0.00000000000E+00 -0.00000000000E+00 -0.10362381994E+04  0.10362381994E+04  0.00000000000E+00 0.  1.
      99926    2    1    2    0    0  0.00000000000E+00  0.00000000000E+00 -0.98597497082E+03  0.10865014279E+04  0.45644135409E+03 0.  0.
      99925    2    3    3    0    0 -0.39619114327E+02 -0.31158256202E+02 -0.37392788151E+03  0.45977209334E+03  0.26273143340E+03 0.  0.
         25    1    4    4    0    0 -0.27825018987E+02 -0.22135931597E+02 -0.12299513288E+03  0.17899592722E+03  0.12509000000E+03 0.  0.
         25    1    3    3    0    0  0.39619114327E+02  0.31158256202E+02 -0.61204708931E+03  0.62672933454E+03  0.12509000000E+03 0.  0.
         25    1    4    4    0    0 -0.11794095340E+02 -0.90223246049E+01 -0.25093274864E+03  0.28077616613E+03  0.12509000000E+03 0.  0.
<mgrwt>
<rscale>  2 0.45644135E+03</rscale>
<asrwt>0</asrwt>
<pdfrwt beam="1">  1       21 0.73916512E-02 0.45644135E+03</pdfrwt>
<pdfrwt beam="2">  1       21 0.15238797E+00 0.45644135E+03</pdfrwt>
<totfact> 0.35564207E+04</totfact>
</mgrwt>
</event>
<event>
 7    0  0.4766352E-002  0.4539450E+03  0.7546771E-02  0.1026552E+00
         21   -1    0    0  502  501  0.00000000000E+00  0.00000000000E+00  0.11991001078E+03  0.11991001078E+03  0.00000000000E+00 0.  1.
         21   -1    0    0  501  502 -0.00000000000E+00 -0.00000000000E+00 -0.42962654138E+03  0.42962654138E+03  0.00000000000E+00 0.  1.
      99926    2    1    2    0    0  0.00000000000E+00  0.00000000000E+00 -0.30971653060E+03  0.54953655216E+03  0.45394503284E+03 0.  0.
      99925    2    3    3    0    0 -0.56628258348E+02  0.96734024085E+02 -0.18975547277E+03  0.34313307701E+03  0.26299988219E+03 0.  0.
         25    1    3    3    0    0  0.56628258348E+02 -0.96734024085E+02 -0.11996105783E+03  0.20640347515E+03  0.12509000000E+03 0.  0.
         25    1    4    4    0    0 -0.11554288175E+02  0.85938275257E+02 -0.93477624108E+02  0.17861820467E+03  0.12509000000E+03 0.  0.
         25    1    4    4    0    0 -0.45073970173E+02  0.10795748829E+02 -0.96277848662E+02  0.16451487235E+03  0.12509000000E+03 0.  0.
<mgrwt>
<rscale>  2 0.45394503E+03</rscale>
<asrwt>0</asrwt>
<pdfrwt beam="1">  1       21 0.17633825E-01 0.45394503E+03</pdfrwt>
<pdfrwt beam="2">  1       21 0.63180374E-01 0.45394503E+03</pdfrwt>
<totfact> 0.62416501E+04</totfact>
</mgrwt>
</event>
<event>
 7    0  0.4766352E-002  0.4509489E+03  0.7546771E-02  0.1027439E+00
         21   -1    0    0  502  501  0.00000000000E+00  0.00000000000E+00  0.12009752869E+03  0.12009752869E+03  0.00000000000E+00 0.  1.
         21   -1    0    0  501  502 -0.00000000000E+00 -0.00000000000E+00 -0.42331193874E+03  0.42331193874E+03  0.00000000000E+00 0.  1.
      99926    2    1    2    0    0 -0.71054273576E-14  0.00000000000E+00 -0.30321441006E+03  0.54340946743E+03  0.45094885611E+03 0.  0.
      99925    2    3    3    0    0  0.62797488614E+02 -0.34623172376E+02 -0.29101275239E+03  0.39870743845E+03  0.26293898680E+03 0.  0.
         25    1    4    4    0    0  0.23750024046E+02  0.18786011526E+02 -0.16471201202E+03  0.20903237279E+03  0.12509000000E+03 0.  0.
         25    1    4    4    0    0  0.39047464568E+02 -0.53409183901E+02 -0.12630074037E+03  0.18967506566E+03  0.12509000000E+03 0.  0.
         25    1    3    3    0    0 -0.62797488614E+02  0.34623172376E+02 -0.12201657670E+02  0.14470202898E+03  0.12509000000E+03 0.  0.
<mgrwt>
<rscale>  2 0.45094886E+03</rscale>
<asrwt>0</asrwt>
<pdfrwt beam="1">  1       21 0.17661401E-01 0.45094886E+03</pdfrwt>
<pdfrwt beam="2">  1       21 0.62251756E-01 0.45094886E+03</pdfrwt>
<totfact> 0.64342097E+04</totfact>
</mgrwt>
</event>
<event>
 7    0  0.4766352E-002  0.4484119E+03  0.7546771E-02  0.1028197E+00
         21   -1    0    0  502  501  0.00000000000E+00  0.00000000000E+00  0.83033834079E+02  0.83033834079E+02  0.00000000000E+00 0. -1.
         21   -1    0    0  501  502 -0.00000000000E+00 -0.00000000000E+00 -0.60539556867E+03  0.60539556867E+03  0.00000000000E+00 0. -1.
      99926    2    1    2    0    0  0.00000000000E+00 -0.17763568394E-14 -0.52236173459E+03  0.68842940275E+03  0.44841193205E+03 0.  0.
      99925    2    3    3    0    0  0.81219259061E+02 -0.48907340687E+01 -0.22427699207E+03  0.35507897281E+03  0.26298368853E+03 0.  0.
         25    1    4    4    0    0  0.57287925102E+02 -0.39033009984E+02 -0.12639905464E+03  0.19086568928E+03  0.12509000000E+03 0.  0.
         25    1    4    4    0    0  0.23931333958E+02  0.34142275916E+02 -0.97877937436E+02  0.16421328353E+03  0.12509000000E+03 0.  0.
         25    1    3    3    0    0 -0.81219259061E+02  0.48907340687E+01 -0.29808474252E+03  0.33335042995E+03  0.12509000000E+03 0.  0.
<mgrwt>
<rscale>  2 0.44841193E+03</rscale>
<asrwt>0</asrwt>
<pdfrwt beam="1">  1       21 0.12210858E-01 0.44841193E+03</pdfrwt>
<pdfrwt beam="2">  1       21 0.89028759E-01 0.44841193E+03</pdfrwt>
<totfact> 0.56404665E+04</totfact>
</mgrwt>
</event>
<event>
 7    0  0.4766352E-002  0.4371957E+03  0.7546771E-02  0.1031611E+00
         21   -1    0    0  502  501  0.00000000000E+00  0.00000000000E+00  0.85990400014E+03  0.85990400014E+03  0.00000000000E+00 0. -1.
         21   -1    0    0  501  502 -0.00000000000E+00 -0.00000000000E+00 -0.55570188581E+02  0.55570188581E+02  0.00000000000E+00 0. -1.
      99926    2    1    2    0    0 -0.14210854715E-13  0.44408920985E-15  0.80433381156E+03  0.91547418872E+03  0.43719573397E+03 0.  0.
      99925    2    3    3    0    0  0.79813926043E+02  0.22415179690E+01  0.40503225184E+03  0.48948765034E+03  0.26300522353E+03 0.  0.
         25    1    4    4    0    0  0.58282864601E+02 -0.23673092826E+02  0.16231622758E+03  0.21436271473E+03  0.12509000000E+03 0.  0.
         25    1    3    3    0    0 -0.79813926043E+02 -0.22415179690E+01  0.39930155971E+03  0.42598653838E+03  0.12509000000E+03 0.  0.
         25    1    4    4    0    0  0.21531061442E+02  0.25914610795E+02  0.24271602427E+03  0.27512493561E+03  0.12509000000E+03 0.  0.
<mgrwt>
<rscale>  2 0.43719573E+03</rscale>
<asrwt>0</asrwt>
<pdfrwt beam="1">  1       21 0.12645646E+00 0.43719573E+03</pdfrwt>
<pdfrwt beam="2">  1       21 0.81720871E-02 0.43719573E+03</pdfrwt>
<totfact> 0.49055650E+04</totfact>
</mgrwt>
</event>
<event>
 7    0  0.4766352E-002  0.4560701E+03  0.7546771E-02  0.1025927E+00
         21   -1    0    0  502  501  0.00000000000E+00  0.00000000000E+00  0.45643447064E+03  0.45643447064E+03  0.00000000000E+00 0.  1.
         21   -1    0    0  501  502 -0.00000000000E+00 -0.00000000000E+00 -0.11392648900E+03  0.11392648900E+03  0.00000000000E+00 0.  1.
      99926    2    1    2    0    0  0.71054273576E-14 -0.71054273576E-14  0.34250798164E+03  0.57036095965E+03  0.45607006786E+03 0.  0.
      99925    2    3    3    0    0 -0.33447537776E+02  0.60852167678E+02  0.32943380414E+03  0.42669410087E+03  0.26214404496E+03 0.  0.
         25    1    4    4    0    0  0.68024290225E+01  0.14777547858E+02  0.11311960818E+03  0.16943495158E+03  0.12509000000E+03 0.  0.
         25    1    3    3    0    0  0.33447537776E+02 -0.60852167678E+02  0.13074177504E+02  0.14366685878E+03  0.12509000000E+03 0.  0.
         25    1    4    4    0    0 -0.40249966798E+02  0.46074619819E+02  0.21631419596E+03  0.25725914929E+03  0.12509000000E+03 0.  0.
<mgrwt>
<rscale>  2 0.45607007E+03</rscale>
<asrwt>0</asrwt>
<pdfrwt beam="1">  1       21 0.67122716E-01 0.45607007E+03</pdfrwt>
<pdfrwt beam="2">  1       21 0.16753896E-01 0.45607007E+03</pdfrwt>
<totfact> 0.60031166E+04</totfact>
</mgrwt>
</event>
<event>
 7    0  0.4766352E-002  0.4889521E+03  0.7546771E-02  0.1016703E+00
         21   -1    0    0  502  501  0.00000000000E+00  0.00000000000E+00  0.43939627971E+03  0.43939627971E+03  0.00000000000E+00 0. -1.
         21   -1    0    0  501  502 -0.00000000000E+00 -0.00000000000E+00 -0.13602422091E+03  0.13602422091E+03  0.00000000000E+00 0. -1.
      99926    2    1    2    0    0  0.00000000000E+00  0.00000000000E+00  0.30337205880E+03  0.57542050061E+03  0.48895209016E+03 0.  0.
      99925    2    3    3    0    0  0.59328059530E+02  0.12670820887E+03  0.15256881777E+03  0.33466353924E+03  0.26295941037E+03 0.  0.
         25    1    4    4    0    0  0.61682590183E+01  0.52136712651E+02  0.35021200008E+02  0.14010808961E+03  0.12509000000E+03 0.  0.
         25    1    3    3    0    0 -0.59328059530E+02 -0.12670820887E+03  0.15080324103E+03  0.24075696137E+03  0.12509000000E+03 0.  0.
         25    1    4    4    0    0  0.53159800512E+02  0.74571496223E+02  0.11754761776E+03  0.19455544963E+03  0.12509000000E+03 0.  0.
<mgrwt>
<rscale>  2 0.48895209E+03</rscale>
<asrwt>0</asrwt>
<pdfrwt beam="1">  1       21 0.64617100E-01 0.48895209E+03</pdfrwt>
<pdfrwt beam="2">  1       21 0.20003562E-01 0.48895209E+03</pdfrwt>
<totfact> 0.46431304E+04</totfact>
</mgrwt>
</event>
<event>
 7    0  0.4766352E-002  0.4639612E+03  0.7546771E-02  0.1023639E+00
         21   -1    0    0  502  501  0.00000000000E+00  0.00000000000E+00  0.57743280366E+02  0.57743280366E+02  0.00000000000E+00 0.  1.
         21   -1    0    0  501  502 -0.00000000000E+00 -0.00000000000E+00 -0.93196997858E+03  0.93196997858E+03  0.00000000000E+00 0.  1.
      99926    2    1    2    0    0  0.00000000000E+00  0.00000000000E+00 -0.87422669821E+03  0.98971325894E+03  0.46396122151E+03 0.  0.
      99925    2    3    3    0    0 -0.97091771952E+02 -0.17402208443E+02 -0.39475331418E+03  0.48446887933E+03  0.26296438341E+03 0.  0.
         25    1    4    4    0    0 -0.23081110550E+02  0.21660132189E+02 -0.20575519499E+03  0.24286746871E+03  0.12509000000E+03 0.  0.
         25    1    4    4    0    0 -0.74010661402E+02 -0.39062340632E+02 -0.18899811919E+03  0.24160141062E+03  0.12509000000E+03 0.  0.
         25    1    3    3    0    0  0.97091771952E+02  0.17402208443E+02 -0.47947338403E+03  0.50524437961E+03  0.12509000000E+03 0.  0.
<mgrwt>
<rscale>  2 0.46396122E+03</rscale>
<asrwt>0</asrwt>
<pdfrwt beam="1">  1       21 0.84916593E-02 0.46396122E+03</pdfrwt>
<pdfrwt beam="2">  1       21 0.13705440E+00 0.46396122E+03</pdfrwt>
<totfact> 0.36916697E+04</totfact>
</mgrwt>
</event>
<event>
 7    0  0.4766352E-002  0.4577347E+03  0.7546771E-02  0.1025440E+00
         21   -1    0    0  502  501  0.00000000000E+00  0.00000000000E+00  0.17981617254E+03  0.17981617254E+03  0.00000000000E+00 0. -1.
         21   -1    0    0  501  502 -0.00000000000E+00 -0.00000000000E+00 -0.29129891097E+03  0.29129891097E+03  0.00000000000E+00 0. -1.
      99926    2    1    2    0    0  0.00000000000E+00  0.35527136788E-14 -0.11148273843E+03  0.47111508352E+03  0.45773466217E+03 0.  0.
      99925    2    3    3    0    0 -0.10893476745E+03 -0.20483480809E+02 -0.35370076693E+02  0.28746595632E+03  0.26286741367E+03 0.  0.
         25    1    4    4    0    0 -0.30320618403E+02 -0.42383081901E+02 -0.90903920470E+01  0.13581534839E+03  0.12509000000E+03 0.  0.
         25    1    4    4    0    0 -0.78614149047E+02  0.21899601092E+02 -0.26279684646E+02  0.15165060792E+03  0.12509000000E+03 0.  0.
         25    1    3    3    0    0  0.10893476745E+03  0.20483480809E+02 -0.76112661738E+02  0.18364912720E+03  0.12509000000E+03 0.  0.
<mgrwt>
<rscale>  2 0.45773466E+03</rscale>
<asrwt>0</asrwt>
<pdfrwt beam="1">  1       21 0.26443555E-01 0.45773466E+03</pdfrwt>
<pdfrwt beam="2">  1       21 0.42838075E-01 0.45773466E+03</pdfrwt>
<totfact> 0.65911435E+04</totfact>
</mgrwt>
</event>
<event>
 7    0  0.4766352E-002  0.4578721E+03  0.7546771E-02  0.1025400E+00
         21   -1    0    0  502  501  0.00000000000E+00  0.00000000000E+00  0.25852023943E+03  0.25852023943E+03  0.00000000000E+00 0.  1.
         21   -1    0    0  501  502 -0.00000000000E+00 -0.00000000000E+00 -0.20273733248E+03  0.20273733248E+03  0.00000000000E+00 0.  1.
      99926    2    1    2    0    0  0.00000000000E+00  0.00000000000E+00  0.55782906954E+02  0.46125757191E+03  0.45787205084E+03 0.  0.
      99925    2    3    3    0    0 -0.99762571211E+02  0.46244889450E+02  0.71460009620E+02  0.29397206727E+03  0.26310051871E+03 0.  0.
         25    1    4    4    0    0 -0.38460806136E+02  0.59737256408E+02  0.21981698241E+02  0.14552826725E+03  0.12509000000E+03 0.  0.
         25    1    3    3    0    0  0.99762571211E+02 -0.46244889450E+02 -0.15677102666E+02  0.16728550464E+03  0.12509000000E+03 0.  0.
         25    1    4    4    0    0 -0.61301765075E+02 -0.13492366958E+02  0.49478311379E+02  0.14844380002E+03  0.12509000000E+03 0.  0.
<mgrwt>
<rscale>  2 0.45787205E+03</rscale>
<asrwt>0</asrwt>
<pdfrwt beam="1">  1       21 0.38017682E-01 0.45787205E+03</pdfrwt>
<pdfrwt beam="2">  1       21 0.29814314E-01 0.45787205E+03</pdfrwt>
<totfact> 0.66551537E+04</totfact>
</mgrwt>
</event>
<event>
 7    0  0.4766352E-002  0.4589390E+03  0.7546771E-02  0.1025089E+00
         21   -1    0    0  502  501  0.00000000000E+00  0.00000000000E+00  0.73614456800E+03  0.73614456800E+03  0.00000000000E+00 0. -1.
         21   -1    0    0  501  502 -0.00000000000E+00 -0.00000000000E+00 -0.71529779014E+02  0.71529779014E+02  0.00000000000E+00 0. -1.
      99926    2    1    2    0    0 -0.35527136788E-14  0.00000000000E+00  0.66461478898E+03  0.80767434701E+03  0.45893902981E+03 0.  0.
      99925    2    3    3    0    0  0.21373166898E+02 -0.86333772241E+02  0.28416532255E+03  0.39743095937E+03  0.26323203535E+03 0.  0.
         25    1    4    4    0    0 -0.25585820628E+02 -0.43801485517E+02  0.11206978790E+03  0.17544329514E+03  0.12509000000E+03 0.  0.
         25    1    4    4    0    0  0.46958987526E+02 -0.42532286724E+02  0.17209553465E+03  0.22198766423E+03  0.12509000000E+03 0.  0.
         25    1    3    3    0    0 -0.21373166898E+02  0.86333772241E+02  0.38044946643E+03  0.41024338764E+03  0.12509000000E+03 0.  0.
<mgrwt>
<rscale>  2 0.45893903E+03</rscale>
<asrwt>0</asrwt>
<pdfrwt beam="1">  1       21 0.10825655E+00 0.45893903E+03</pdfrwt>
<pdfrwt beam="2">  1       21 0.10519086E-01 0.45893903E+03</pdfrwt>
<totfact> 0.45958670E+04</totfact>
</mgrwt>
</event>
<event>
 7    0  0.4766352E-002  0.4363004E+03  0.7546771E-02  0.1031888E+00
         21   -1    0    0  502  501  0.00000000000E+00  0.00000000000E+00  0.94107811778E+03  0.94107811778E+03  0.00000000000E+00 0. -1.
         21   -1    0    0  501  502 -0.00000000000E+00 -0.00000000000E+00 -0.50569149277E+02  0.50569149277E+02  0.00000000000E+00 0. -1.
      99926    2    1    2    0    0 -0.34416913763E-14  0.00000000000E+00  0.89050896850E+03  0.99164726706E+03  0.43630044611E+03 0.  0.
      99925    2    3    3    0    0 -0.89474454313E+00 -0.90294635575E+02  0.63561204743E+03  0.69369782461E+03  0.26279283714E+03 0.  0.
         25    1    3    3    0    0  0.89474454313E+00  0.90294635575E+02  0.25489692108E+03  0.29794944245E+03  0.12509000000E+03 0.  0.
         25    1    4    4    0    0  0.38547790091E+02 -0.35891223580E+02  0.32208728355E+03  0.34951657811E+03  0.12509000000E+03 0.  0.
         25    1    4    4    0    0 -0.39442534635E+02 -0.54403411995E+02  0.31352476388E+03  0.34418124650E+03  0.12509000000E+03 0.  0.
<mgrwt>
<rscale>  2 0.43630045E+03</rscale>
<asrwt>0</asrwt>
<pdfrwt beam="1">  1       21 0.13839383E+00 0.43630045E+03</pdfrwt>
<pdfrwt beam="2">  1       21 0.74366402E-02 0.43630045E+03</pdfrwt>
<totfact> 0.45829805E+04</totfact>
</mgrwt>
</event>
<event>
 7    0  0.4766352E-002  0.4464941E+03  0.7546771E-02  0.1028773E+00
         21   -1    0    0  502  501  0.00000000000E+00  0.00000000000E+00  0.29089611692E+03  0.29089611692E+03  0.00000000000E+00 0. -1.
         21   -1    0    0  501  502 -0.00000000000E+00 -0.00000000000E+00 -0.17133006065E+03  0.17133006065E+03  0.00000000000E+00 0. -1.
      99926    2    1    2    0    0 -0.14210854715E-13 -0.17763568394E-14  0.11956605626E+03  0.46222617757E+03  0.44649411801E+03 0.  0.
      99925    2    3    3    0    0 -0.88925474793E+02 -0.11544782981E+01  0.15898318794E+02  0.27701391885E+03  0.26186806183E+03 0.  0.
         25    1    4    4    0    0 -0.73134509213E+02 -0.24708936184E+02  0.21873570982E+02  0.14861073034E+03  0.12509000000E+03 0.  0.
         25    1    4    4    0    0 -0.15790965580E+02  0.23554457886E+02 -0.59752521883E+01  0.12840318851E+03  0.12509000000E+03 0.  0.
         25    1    3    3    0    0  0.88925474793E+02  0.11544782981E+01  0.10366773747E+03  0.18521225872E+03  0.12509000000E+03 0.  0.
<mgrwt>
<rscale>  2 0.44649412E+03</rscale>
<asrwt>0</asrwt>
<pdfrwt beam="1">  1       21 0.42778841E-01 0.44649412E+03</pdfrwt>
<pdfrwt beam="2">  1       21 0.25195597E-01 0.44649412E+03</pdfrwt>
<totfact> 0.72808379E+04</totfact>
</mgrwt>
</event>
<event>
 7    0  0.4766352E-002  0.4484531E+03  0.7546771E-02  0.1028184E+00
         21   -1    0    0  502  501  0.00000000000E+00  0.00000000000E+00  0.42134032966E+03  0.42134032966E+03  0.00000000000E+00 0.  1.
         21   -1    0    0  501  502 -0.00000000000E+00 -0.00000000000E+00 -0.11932762140E+03  0.11932762140E+03  0.00000000000E+00 0.  1.
      99926    2    1    2    0    0  0.14210854715E-13  0.00000000000E+00  0.30201270827E+03  0.54066795106E+03  0.44845307151E+03 0.  0.
      99925    2    3    3    0    0  0.10194970163E+03 -0.19827953075E+02  0.22221102331E+03  0.35955277663E+03  0.26289460040E+03 0.  0.
         25    1    4    4    0    0  0.29640053691E+02  0.45130485503E+01  0.14534833374E+03  0.19409416944E+03  0.12509000000E+03 0.  0.
         25    1    4    4    0    0  0.72309647942E+02 -0.24341001625E+02  0.76862689570E+02  0.16545860719E+03  0.12509000000E+03 0.  0.
         25    1    3    3    0    0 -0.10194970163E+03  0.19827953075E+02  0.79801684954E+02  0.18111517443E+03  0.12509000000E+03 0.  0.
<mgrwt>
<rscale>  2 0.44845307E+03</rscale>
<asrwt>0</asrwt>
<pdfrwt beam="1">  1       21 0.61961813E-01 0.44845307E+03</pdfrwt>
<pdfrwt beam="2">  1       21 0.17548180E-01 0.44845307E+03</pdfrwt>
<totfact> 0.65832508E+04</totfact>
</mgrwt>
</event>
<event>
 7    0  0.4766352E-002  0.4533807E+03  0.7546771E-02  0.1026719E+00
         21   -1    0    0  502  501  0.00000000000E+00  0.00000000000E+00  0.22375753733E+03  0.22375753733E+03  0.00000000000E+00 0.  1.
         21   -1    0    0  501  502 -0.00000000000E+00 -0.00000000000E+00 -0.22966164323E+03  0.22966164323E+03  0.00000000000E+00 0.  1.
      99926    2    1    2    0    0  0.14210854715E-13  0.00000000000E+00 -0.59041058996E+01  0.45341918055E+03  0.45338073937E+03 0.  0.
      99925    2    3    3    0    0 -0.87066536076E+02 -0.39314378424E+02  0.54249590779E+02  0.28491939605E+03  0.26288750843E+03 0.  0.
         25    1    4    4    0    0 -0.27027370052E+02 -0.31267477267E+02  0.62242260574E+02  0.14570429289E+03  0.12509000000E+03 0.  0.
         25    1    4    4    0    0 -0.60039166024E+02 -0.80469011570E+01 -0.79926697946E+01  0.13921510315E+03  0.12509000000E+03 0.  0.
         25    1    3    3    0    0  0.87066536076E+02  0.39314378424E+02 -0.60153696679E+02  0.16849978451E+03  0.12509000000E+03 0.  0.
<mgrwt>
<rscale>  2 0.45338074E+03</rscale>
<asrwt>0</asrwt>
<pdfrwt beam="1">  1       21 0.32905521E-01 0.45338074E+03</pdfrwt>
<pdfrwt beam="2">  1       21 0.33773771E-01 0.45338074E+03</pdfrwt>
<totfact> 0.69556087E+04</totfact>
</mgrwt>
</event>
<event>
 7    0  0.4766352E-002  0.4443501E+03  0.7546771E-02  0.1029420E+00
         21   -1    0    0  502  501  0.00000000000E+00  0.00000000000E+00  0.17204975230E+03  0.17204975230E+03  0.00000000000E+00 0.  1.
         21   -1    0    0  501  502 -0.00000000000E+00 -0.00000000000E+00 -0.28690392668E+03  0.28690392668E+03  0.00000000000E+00 0.  1.
      99926    2    1    2    0    0  0.00000000000E+00  0.00000000000E+00 -0.11485417438E+03  0.45895367898E+03  0.44435008504E+03 0.  0.
      99925    2    3    3    0    0 -0.10022817240E+03  0.21357731112E+02 -0.62871295153E+02  0.28909618855E+03  0.26291056894E+03 0.  0.
         25    1    4    4    0    0 -0.38200411480E+02  0.64240801846E+01  0.91748300276E+01  0.13127157289E+03  0.12509000000E+03 0.  0.
         25    1    3    3    0    0  0.10022817240E+03 -0.21357731112E+02 -0.51982879227E+02  0.16985749043E+03  0.12509000000E+03 0.  0.
         25    1    4    4    0    0 -0.62027760920E+02  0.14933650927E+02 -0.72046125181E+02  0.15782461566E+03  0.12509000000E+03 0.  0.
<mgrwt>
<rscale>  2 0.44435009E+03</rscale>
<asrwt>0</asrwt>
<pdfrwt beam="1">  1       21 0.25301434E-01 0.44435009E+03</pdfrwt>
<pdfrwt beam="2">  1       21 0.42191754E-01 0.44435009E+03</pdfrwt>
<totfact> 0.74351611E+04</totfact>
</mgrwt>
</event>
<event>
 7    0  0.4766352E-002  0.4962964E+03  0.7546771E-02  0.1014750E+00
         21   -1    0    0  502  501  0.00000000000E+00  0.00000000000E+00  0.90998977066E+03  0.90998977066E+03  0.00000000000E+00 0.  1.
         21   -1    0    0  501  502 -0.00000000000E+00 -0.00000000000E+00 -0.67668376744E+02  0.67668376744E+02  0.00000000000E+00 0.  1.
      99926    2    1    2    0    0  0.00000000000E+00  0.00000000000E+00  0.84232139392E+03  0.97765814741E+03  0.49629640593E+03 0.  0.
      99925    2    3    3    0    0 -0.82844253451E+02 -0.76070910166E+01  0.75519493302E+03  0.80399304886E+03  0.26299125004E+03 0.  0.
         25    1    4    4    0    0 -0.51639120087E+02  0.33697702785E+02  0.34905096618E+03  0.37588059140E+03  0.12509000000E+03 0.  0.
         25    1    4    4    0    0 -0.31205133364E+02 -0.41304793801E+02  0.40614396684E+03  0.42811245747E+03  0.12509000000E+03 0.  0.
         25    1    3    3    0    0  0.82844253451E+02  0.76070910166E+01  0.87126460900E+02  0.17366509854E+03  0.12509000000E+03 0.  0.
<mgrwt>
<rscale>  2 0.49629641E+03</rscale>
<asrwt>0</asrwt>
<pdfrwt beam="1">  1       21 0.13382202E+00 0.49629641E+03</pdfrwt>
<pdfrwt beam="2">  1       21 0.99512324E-02 0.49629641E+03</pdfrwt>
<totfact> 0.29350137E+04</totfact>
</mgrwt>
</event>
<event>
 7    0  0.4766352E-002  0.4553565E+03  0.7546771E-02  0.1026137E+00
         21   -1    0    0  502  501  0.00000000000E+00  0.00000000000E+00  0.47216578809E+03  0.47216578809E+03  0.00000000000E+00 0.  1.
         21   -1    0    0  501  502 -0.00000000000E+00 -0.00000000000E+00 -0.10978641319E+03  0.10978641319E+03  0.00000000000E+00 0.  1.
      99926    2    1    2    0    0  0.71054273576E-14  0.14210854715E-13  0.36237937490E+03  0.58195220128E+03  0.45535651222E+03 0.  0.
      99925    2    3    3    0    0  0.48079121639E+02 -0.97354046619E+02  0.26984389967E+03  0.39221624105E+03  0.26311297425E+03 0.  0.
         25    1    4    4    0    0  0.14876786097E+01 -0.11772713473E+02  0.10875217246E+03  0.16617867819E+03  0.12509000000E+03 0.  0.
         25    1    3    3    0    0 -0.48079121639E+02  0.97354046619E+02  0.92535475232E+02  0.18973596024E+03  0.12509000000E+03 0.  0.
         25    1    4    4    0    0  0.46591443029E+02 -0.85581333146E+02  0.16109172721E+03  0.22603756286E+03  0.12509000000E+03 0.  0.
<mgrwt>
<rscale>  2 0.45535651E+03</rscale>
<asrwt>0</asrwt>
<pdfrwt beam="1">  1       21 0.69436144E-01 0.45535651E+03</pdfrwt>
<pdfrwt beam="2">  1       21 0.16145061E-01 0.45535651E+03</pdfrwt>
<totfact> 0.59634889E+04</totfact>
</mgrwt>
</event>
<event>
 7    0  0.4766352E-002  0.4581753E+03  0.7546771E-02  0.1025312E+00
         21   -1    0    0  502  501  0.00000000000E+00  0.00000000000E+00  0.51654720688E+03  0.51654720688E+03  0.00000000000E+00 0.  1.
         21   -1    0    0  501  502 -0.00000000000E+00 -0.00000000000E+00 -0.10159990891E+03  0.10159990891E+03  0.00000000000E+00 0.  1.
      99926    2    1    2    0    0  0.00000000000E+00  0.00000000000E+00  0.41494729797E+03  0.61814711579E+03  0.45817529033E+03 0.  0.
      99925    2    3    3    0    0 -0.75138941407E+02  0.78500055047E+02  0.31560340385E+03  0.42495074793E+03  0.26300097050E+03 0.  0.
         25    1    3    3    0    0  0.75138941407E+02 -0.78500055047E+02  0.99343894114E+02  0.19319636786E+03  0.12509000000E+03 0.  0.
         25    1    4    4    0    0 -0.65176066854E+02  0.58522342296E+02  0.13312193151E+03  0.20258761312E+03  0.12509000000E+03 0.  0.
         25    1    4    4    0    0 -0.99628745529E+01  0.19977712751E+02  0.18248147234E+03  0.22236313481E+03  0.12509000000E+03 0.  0.
<mgrwt>
<rscale>  2 0.45817529E+03</rscale>
<asrwt>0</asrwt>
<pdfrwt beam="1">  1       21 0.75962823E-01 0.45817529E+03</pdfrwt>
<pdfrwt beam="2">  1       21 0.14941163E-01 0.45817529E+03</pdfrwt>
<totfact> 0.56153552E+04</totfact>
</mgrwt>
</event>
<event>
 7    0  0.4766352E-002  0.4503745E+03  0.7546771E-02  0.1027610E+00
         21   -1    0    0  502  501  0.00000000000E+00  0.00000000000E+00  0.32776808798E+03  0.32776808798E+03  0.00000000000E+00 0. -1.
         21   -1    0    0  501  502 -0.00000000000E+00 -0.00000000000E+00 -0.15471091463E+03  0.15471091463E+03  0.00000000000E+00 0. -1.
      99926    2    1    2    0    0  0.53290705182E-14  0.00000000000E+00  0.17305717335E+03  0.48247900261E+03  0.45037451383E+03 0.  0.
      99925    2    3    3    0    0 -0.85710549027E+01 -0.42445483195E+02  0.19448300727E+01  0.26614124782E+03  0.26258769849E+03 0.  0.
         25    1    4    4    0    0  0.34527290521E+02 -0.11967629441E+02  0.33828576339E+01  0.13036222525E+03  0.12509000000E+03 0.  0.
         25    1    4    4    0    0 -0.43098345423E+02 -0.30477853754E+02 -0.14380275611E+01  0.13577902257E+03  0.12509000000E+03 0.  0.
         25    1    3    3    0    0  0.85710549027E+01  0.42445483195E+02  0.17111234328E+03  0.21633775479E+03  0.12509000000E+03 0.  0.
<mgrwt>
<rscale>  2 0.45037451E+03</rscale>
<asrwt>0</asrwt>
<pdfrwt beam="1">  1       21 0.48201189E-01 0.45037451E+03</pdfrwt>
<pdfrwt beam="2">  1       21 0.22751605E-01 0.45037451E+03</pdfrwt>
<totfact> 0.69019809E+04</totfact>
</mgrwt>
</event>
<event>
 7    0  0.4766352E-002  0.4545228E+03  0.7546771E-02  0.1026382E+00
         21   -1    0    0  502  501  0.00000000000E+00  0.00000000000E+00  0.67847348950E+03  0.67847348950E+03  0.00000000000E+00 0. -1.
         21   -1    0    0  501  502 -0.00000000000E+00 -0.00000000000E+00 -0.76123466287E+02  0.76123466287E+02  0.00000000000E+00 0. -1.
      99926    2    1    2    0    0 -0.17763568394E-14  0.00000000000E+00  0.60235002322E+03  0.75459695579E+03  0.45452284345E+03 0.  0.
      99925    2    3    3    0    0 -0.13651008330E+02  0.10714632869E+03  0.32553939763E+03  0.43220229653E+03  0.26297574021E+03 0.  0.
         25    1    4    4    0    0  0.62199798474E+01  0.28216488258E+02  0.19752355773E+03  0.23557997011E+03  0.12509000000E+03 0.  0.
         25    1    4    4    0    0 -0.19870988177E+02  0.78929840435E+02  0.12801583990E+03  0.19662232642E+03  0.12509000000E+03 0.  0.
         25    1    3    3    0    0  0.13651008330E+02 -0.10714632869E+03  0.27681062558E+03  0.32239465926E+03  0.12509000000E+03 0.  0.
<mgrwt>
<rscale>  2 0.45452284E+03</rscale>
<asrwt>0</asrwt>
<pdfrwt beam="1">  1       21 0.99775510E-01 0.45452284E+03</pdfrwt>
<pdfrwt beam="2">  1       21 0.11194628E-01 0.45452284E+03</pdfrwt>
<totfact> 0.50225019E+04</totfact>
</mgrwt>
</event>
<event>
 7    0  0.4766352E-002  0.4499252E+03  0.7546771E-02  0.1027744E+00
         21   -1    0    0  502  501  0.00000000000E+00  0.00000000000E+00  0.76553785518E+02  0.76553785518E+02  0.00000000000E+00 0. -1.
         21   -1    0    0  501  502 -0.00000000000E+00 -0.00000000000E+00 -0.66107988865E+03  0.66107988865E+03  0.00000000000E+00 0. -1.
      99926    2    1    2    0    0  0.00000000000E+00  0.00000000000E+00 -0.58452610314E+03  0.73763367417E+03  0.44992518492E+03 0.  0.
      99925    2    3    3    0    0  0.40161894605E+02  0.98438313664E+02 -0.33512180839E+03  0.43904852767E+03  0.26297129846E+03 0.  0.
         25    1    4    4    0    0  0.71670089019E+01  0.32819555429E+02 -0.10369381944E+03  0.16591686330E+03  0.12509000000E+03 0.  0.
         25    1    4    4    0    0  0.32994885703E+02  0.65618758236E+02 -0.23142798895E+03  0.27313166438E+03  0.12509000000E+03 0.  0.
         25    1    3    3    0    0 -0.40161894605E+02 -0.98438313664E+02 -0.24940429474E+03  0.29858514650E+03  0.12509000000E+03 0.  0.
<mgrwt>
<rscale>  2 0.44992518E+03</rscale>
<asrwt>0</asrwt>
<pdfrwt beam="1">  1       21 0.11257910E-01 0.44992518E+03</pdfrwt>
<pdfrwt beam="2">  1       21 0.97217632E-01 0.44992518E+03</pdfrwt>
<totfact> 0.52989605E+04</totfact>
</mgrwt>
</event>
<event>
 7    0  0.4766352E-002  0.4589065E+03  0.7546771E-02  0.1025099E+00
         21   -1    0    0  502  501  0.00000000000E+00  0.00000000000E+00  0.23722982434E+03  0.23722982434E+03  0.00000000000E+00 0.  1.
         21   -1    0    0  501  502 -0.00000000000E+00 -0.00000000000E+00 -0.22193157564E+03  0.22193157564E+03  0.00000000000E+00 0.  1.
      99926    2    1    2    0    0  0.14210854715E-13  0.00000000000E+00  0.15298248705E+02  0.45916139998E+03  0.45890647721E+03 0.  0.
      99925    2    3    3    0    0  0.91268741807E+02 -0.31032840433E+02 -0.56342567003E+02  0.28574590185E+03  0.26302702362E+03 0.  0.
         25    1    3    3    0    0 -0.91268741807E+02  0.31032840433E+02  0.71640815708E+02  0.17341549813E+03  0.12509000000E+03 0.  0.
         25    1    4    4    0    0  0.17549775639E+02 -0.36507083150E+02 -0.47906881860E+01  0.13157211155E+03  0.12509000000E+03 0.  0.
         25    1    4    4    0    0  0.73718966169E+02  0.54742427171E+01 -0.51551878817E+02  0.15417379030E+03  0.12509000000E+03 0.  0.
<mgrwt>
<rscale>  2 0.45890648E+03</rscale>
<asrwt>0</asrwt>
<pdfrwt beam="1">  1       21 0.34886739E-01 0.45890648E+03</pdfrwt>
<pdfrwt beam="2">  1       21 0.32636996E-01 0.45890648E+03</pdfrwt>
<totfact> 0.66155802E+04</totfact>
</mgrwt>
</event>
<event>
 7    0  0.4766352E-002  0.4105095E+03  0.7546771E-02  0.1040200E+00
         21   -1    0    0  502  501  0.00000000000E+00  0.00000000000E+00  0.38408196342E+03  0.38408196342E+03  0.00000000000E+00 0. -1.
         21   -1    0    0  501  502 -0.00000000000E+00 -0.00000000000E+00 -0.10968883410E+03  0.10968883410E+03  0.00000000000E+00 0. -1.
      99926    2    1    2    0    0  0.71054273576E-14 -0.88817841970E-15  0.27439312932E+03  0.49377079752E+03  0.41050945308E+03 0.  0.
      99925    2    3    3    0    0 -0.53106175091E+02 -0.66707150734E+01  0.14066334884E+03  0.30299363285E+03  0.26297186079E+03 0.  0.
         25    1    4    4    0    0 -0.85045183581E+01 -0.25415263734E+02  0.10140970187E+03  0.16324735280E+03  0.12509000000E+03 0.  0.
         25    1    3    3    0    0  0.53106175091E+02  0.66707150734E+01  0.13372978047E+03  0.19077716467E+03  0.12509000000E+03 0.  0.
         25    1    4    4    0    0 -0.44601656733E+02  0.18744548661E+02  0.39253646974E+02  0.13974628005E+03  0.12509000000E+03 0.  0.
<mgrwt>
<rscale>  2 0.41050945E+03</rscale>
<asrwt>0</asrwt>
<pdfrwt beam="1">  1       21 0.56482641E-01 0.41050945E+03</pdfrwt>
<pdfrwt beam="2">  1       21 0.16130711E-01 0.41050945E+03</pdfrwt>
<totfact> 0.95082224E+04</totfact>
</mgrwt>
</event>
<event>
 6    0  0.4766352E-002  0.4552298E+03  0.7546771E-02  0.1026174E+00
         21   -1    0    0  502  501  0.00000000000E+00  0.00000000000E+00  0.22297915704E+04  0.22297915704E+04  0.00000000000E+00 0. -1.
         21   -1    0    0  501  502 -0.00000000000E+00 -0.00000000000E+00 -0.23234700218E+02  0.23234700218E+02  0.00000000000E+00 0. -1.
      99926    2    1    2    0    0 -0.71054273576E-14  0.00000000000E+00  0.22065568701E+04  0.22530262706E+04  0.45522978235E+03 0.  0.
         25    1    3    3    0    0 -0.26599755978E+02 -0.77903800614E+02  0.77926030293E+03  0.79351791221E+03  0.12509000000E+03 0.  0.
         25    1    3    3    0    0 -0.22781470925E+02 -0.22170799602E+02  0.45866678591E+03  0.47648008182E+03  0.12509000000E+03 0.  0.
         25    1    3    3    0    0  0.49381226903E+02  0.10007460022E+03  0.96862978130E+03  0.98302827655E+03  0.12509000000E+03 0.  0.
<mgrwt>
<rscale>  2 0.45522978E+03</rscale>
<asrwt>0</asrwt>
<pdfrwt beam="1">  1       21 0.32791038E+00 0.45522978E+03</pdfrwt>
<pdfrwt beam="2">  1       21 0.34168692E-02 0.45522978E+03</pdfrwt>
<totfact> 0.99832081E+03</totfact>
</mgrwt>
</event>
<event>
 7    0  0.4766352E-002  0.4580266E+03  0.7546771E-02  0.1025355E+00
         21   -1    0    0  502  501  0.00000000000E+00  0.00000000000E+00  0.53516180375E+03  0.53516180375E+03  0.00000000000E+00 0.  1.
         21   -1    0    0  501  502 -0.00000000000E+00 -0.00000000000E+00 -0.98002287103E+02  0.98002287103E+02  0.00000000000E+00 0.  1.
      99926    2    1    2    0    0  0.00000000000E+00  0.33306690739E-15  0.43715951664E+03  0.63316409085E+03  0.45802655267E+03 0.  0.
      99925    2    3    3    0    0 -0.38075216031E+02 -0.62467810189E+00  0.42568167989E+03  0.50190342982E+03  0.26315783850E+03 0.  0.
         25    1    4    4    0    0 -0.50253191489E+01 -0.14118359639E+02  0.27727703858E+03  0.30455647446E+03  0.12509000000E+03 0.  0.
         25    1    4    4    0    0 -0.33049896882E+02  0.13493681537E+02  0.14840464132E+03  0.19734695536E+03  0.12509000000E+03 0.  0.
         25    1    3    3    0    0  0.38075216031E+02  0.62467810189E+00  0.11477836750E+02  0.13126066103E+03  0.12509000000E+03 0.  0.
<mgrwt>
<rscale>  2 0.45802655E+03</rscale>
<asrwt>0</asrwt>
<pdfrwt beam="1">  1       21 0.78700264E-01 0.45802655E+03</pdfrwt>
<pdfrwt beam="2">  1       21 0.14412101E-01 0.45802655E+03</pdfrwt>
<totfact> 0.55347829E+04</totfact>
</mgrwt>
</event>
<event>
 7    0  0.4766352E-002  0.4649028E+03  0.7546771E-02  0.1023369E+00
         21   -1    0    0  502  501  0.00000000000E+00  0.00000000000E+00  0.34730097581E+03  0.34730097581E+03  0.00000000000E+00 0. -1.
         21   -1    0    0  501  502 -0.00000000000E+00 -0.00000000000E+00 -0.15558161407E+03  0.15558161407E+03  0.00000000000E+00 0. -1.
      99926    2    1    2    0    0  0.00000000000E+00  0.00000000000E+00  0.19171936174E+03  0.50288258988E+03  0.46490276999E+03 0.  0.
      99925    2    3    3    0    0 -0.46665690011E+02  0.11124542229E+03  0.14065934164E+03  0.32175317660E+03  0.26303388690E+03 0.  0.
         25    1    4    4    0    0 -0.59847704668E+02  0.42650480161E+02  0.57223193872E+02  0.15595772898E+03  0.12509000000E+03 0.  0.
         25    1    3    3    0    0  0.46665690011E+02 -0.11124542229E+03  0.51060020098E+02  0.18112941328E+03  0.12509000000E+03 0.  0.
         25    1    4    4    0    0  0.13182014657E+02  0.68594942128E+02  0.83436147772E+02  0.16579544762E+03  0.12509000000E+03 0.  0.
<mgrwt>
<rscale>  2 0.46490277E+03</rscale>
<asrwt>0</asrwt>
<pdfrwt beam="1">  1       21 0.51073673E-01 0.46490277E+03</pdfrwt>
<pdfrwt beam="2">  1       21 0.22879649E-01 0.46490277E+03</pdfrwt>
<totfact> 0.60195569E+04</totfact>
</mgrwt>
</event>
<event>
 7    0  0.4766352E-002  0.4505836E+03  0.7546771E-02  0.1027548E+00
         21   -1    0    0  502  501  0.00000000000E+00  0.00000000000E+00  0.10762182720E+04  0.10762182720E+04  0.00000000000E+00 0. -1.
         21   -1    0    0  501  502 -0.00000000000E+00 -0.00000000000E+00 -0.47161797965E+02  0.47161797965E+02  0.00000000000E+00 0. -1.
      99926    2    1    2    0    0  0.17763568394E-14  0.14210854715E-13  0.10290564740E+04  0.11233800699E+04  0.45058357142E+03 0.  0.
      99925    2    3    3    0    0  0.13739056370E+02  0.10531340518E+03  0.71019109408E+03  0.76476842261E+03  0.26309632292E+03 0.  0.
         25    1    4    4    0    0  0.28807649014E+02  0.41625262337E+02  0.43541348164E+03  0.45584531499E+03  0.12509000000E+03 0.  0.
         25    1    3    3    0    0 -0.13739056370E+02 -0.10531340518E+03  0.31886537994E+03  0.35861164734E+03  0.12509000000E+03 0.  0.
         25    1    4    4    0    0 -0.15068592645E+02  0.63688142848E+02  0.27477761244E+03  0.30892310762E+03  0.12509000000E+03 0.  0.
<mgrwt>
<rscale>  2 0.45058357E+03</rscale>
<asrwt>0</asrwt>
<pdfrwt beam="1">  1       21 0.15826738E+00 0.45058357E+03</pdfrwt>
<pdfrwt beam="2">  1       21 0.69355592E-02 0.45058357E+03</pdfrwt>
<totfact> 0.35904011E+04</totfact>
</mgrwt>
</event>
<event>
 7    0  0.4766352E-002  0.4497802E+03  0.7546771E-02  0.1027788E+00
         21   -1    0    0  502  501  0.00000000000E+00  0.00000000000E+00  0.38221670249E+03  0.38221670249E+03  0.00000000000E+00 0. -1.
         21   -1    0    0  501  502 -0.00000000000E+00 -0.00000000000E+00 -0.13232169277E+03  0.13232169277E+03  0.00000000000E+00 0. -1.
      99926    2    1    2    0    0  0.00000000000E+00  0.00000000000E+00  0.24989500972E+03  0.51453839526E+03  0.44978021779E+03 0.  0.
      99925    2    3    3    0    0 -0.86317886676E+02  0.64493456908E+02  0.16900693874E+03  0.33068907742E+03  0.26302421378E+03 0.  0.
         25    1    4    4    0    0 -0.30893982430E+02  0.36966563818E+02  0.12771738026E+03  0.18514913532E+03  0.12509000000E+03 0.  0.
         25    1    4    4    0    0 -0.55423904246E+02  0.27526893089E+02  0.41289558480E+02  0.14553994209E+03  0.12509000000E+03 0.  0.
         25    1    3    3    0    0  0.86317886676E+02 -0.64493456908E+02  0.80888070981E+02  0.18384931784E+03  0.12509000000E+03 0.  0.
<mgrwt>
<rscale>  2 0.44978022E+03</rscale>
<asrwt>0</asrwt>
<pdfrwt beam="1">  1       21 0.56208338E-01 0.44978022E+03</pdfrwt>
<pdfrwt beam="2">  1       21 0.19459073E-01 0.44978022E+03</pdfrwt>
<totfact> 0.66992760E+04</totfact>
</mgrwt>
</event>
<event>
 7    0  0.4766352E-002  0.4173185E+03  0.7546771E-02  0.1037943E+00
         21   -1    0    0  502  501  0.00000000000E+00  0.00000000000E+00  0.33800109587E+03  0.33800109587E+03  0.00000000000E+00 0. -1.
         21   -1    0    0  501  502 -0.00000000000E+00 -0.00000000000E+00 -0.12881224779E+03  0.12881224779E+03  0.00000000000E+00 0. -1.
      99926    2    1    2    0    0  0.00000000000E+00  0.35527136788E-14  0.20918884808E+03  0.46681334365E+03  0.41731849186E+03 0.  0.
      99925    2    3    3    0    0  0.67944876154E+02  0.17480079583E+02  0.11925573245E+03  0.29752798467E+03  0.26339877100E+03 0.  0.
         25    1    3    3    0    0 -0.67944876154E+02 -0.17480079583E+02  0.89933115630E+02  0.16928535898E+03  0.12509000000E+03 0.  0.
         25    1    4    4    0    0  0.43552759239E+02 -0.28714325101E+02  0.44085100825E+02  0.14252143529E+03  0.12509000000E+03 0.  0.
         25    1    4    4    0    0  0.24392116916E+02  0.46194404684E+02  0.75170631625E+02  0.15500654938E+03  0.12509000000E+03 0.  0.
<mgrwt>
<rscale>  2 0.41731849E+03</rscale>
<asrwt>0</asrwt>
<pdfrwt beam="1">  1       21 0.49706043E-01 0.41731849E+03</pdfrwt>
<pdfrwt beam="2">  1       21 0.18942978E-01 0.41731849E+03</pdfrwt>
<totfact> 0.92357490E+04</totfact>
</mgrwt>
</event>
<event>
 7    0  0.4766352E-002  0.4625165E+03  0.7546771E-02  0.1024054E+00
         21   -1    0    0  502  501  0.00000000000E+00  0.00000000000E+00  0.68084569052E+03  0.68084569052E+03  0.00000000000E+00 0.  1.
         21   -1    0    0  501  502 -0.00000000000E+00 -0.00000000000E+00 -0.78549923508E+02  0.78549923508E+02  0.00000000000E+00 0.  1.
      99926    2    1    2    0    0 -0.71054273576E-14  0.00000000000E+00  0.60229576701E+03  0.75939561402E+03  0.46251649446E+03 0.  0.
      99925    2    3    3    0    0  0.31302150923E+02  0.83491837614E+02  0.24491837503E+03  0.37040098682E+03  0.26317516791E+03 0.  0.
         25    1    4    4    0    0  0.42687852188E+02  0.72513941380E+02  0.11745343886E+03  0.19111081293E+03  0.12509000000E+03 0.  0.
         25    1    3    3    0    0 -0.31302150923E+02 -0.83491837614E+02  0.35737739198E+03  0.38899462721E+03  0.12509000000E+03 0.  0.
         25    1    4    4    0    0 -0.11385701265E+02  0.10977896233E+02  0.12746493617E+03  0.17929017389E+03  0.12509000000E+03 0.  0.
<mgrwt>
<rscale>  2 0.46251649E+03</rscale>
<asrwt>0</asrwt>
<pdfrwt beam="1">  1       21 0.10012436E+00 0.46251649E+03</pdfrwt>
<pdfrwt beam="2">  1       21 0.11551460E-01 0.46251649E+03</pdfrwt>
<totfact> 0.46957866E+04</totfact>
</mgrwt>
</event>
<event>
 7    0  0.4766352E-002  0.4628967E+03  0.7546771E-02  0.1023944E+00
         21   -1    0    0  502  501  0.00000000000E+00  0.00000000000E+00  0.13403631429E+03  0.13403631429E+03  0.00000000000E+00 0.  1.
         21   -1    0    0  501  502 -0.00000000000E+00 -0.00000000000E+00 -0.39965534174E+03  0.39965534174E+03  0.00000000000E+00 0.  1.
      99926    2    1    2    0    0  0.00000000000E+00  0.00000000000E+00 -0.26561902746E+03  0.53369165603E+03  0.46289665798E+03 0.  0.
      99925    2    3    3    0    0 -0.39203019407E+02  0.10076814796E+03 -0.10514151263E+03  0.30327542996E+03  0.26311623356E+03 0.  0.
         25    1    4    4    0    0 -0.49700262831E+02  0.67865072068E+02 -0.81518562183E+02  0.17137260053E+03  0.12509000000E+03 0.  0.
         25    1    3    3    0    0  0.39203019407E+02 -0.10076814796E+03 -0.16047751482E+03  0.23041622607E+03  0.12509000000E+03 0.  0.
         25    1    4    4    0    0  0.10497243424E+02  0.32903075890E+02 -0.23622950449E+02  0.13190282943E+03  0.12509000000E+03 0.  0.
<mgrwt>
<rscale>  2 0.46289666E+03</rscale>
<asrwt>0</asrwt>
<pdfrwt beam="1">  1       21 0.19711223E-01 0.46289666E+03</pdfrwt>
<pdfrwt beam="2">  1       21 0.58772844E-01 0.46289666E+03</pdfrwt>
<totfact> 0.59166399E+04</totfact>
</mgrwt>
</event>
<event>
 7    0  0.4766352E-002  0.4582243E+03  0.7546771E-02  0.1025297E+00
         21   -1    0    0  502  501  0.00000000000E+00  0.00000000000E+00  0.71847272589E+02  0.71847272589E+02  0.00000000000E+00 0. -1.
         21   -1    0    0  501  502 -0.00000000000E+00 -0.00000000000E+00 -0.73061059987E+03  0.73061059987E+03  0.00000000000E+00 0. -1.
      99926    2    1    2    0    0  0.00000000000E+00  0.00000000000E+00 -0.65876332729E+03  0.80245787246E+03  0.45822430719E+03 0.  0.
      99925    2    3    3    0    0  0.47169628837E+02 -0.89739990836E+02 -0.51243784960E+03  0.58488743936E+03  0.26310174302E+03 0.  0.
         25    1    4    4    0    0  0.29001937989E+02 -0.76336472413E+02 -0.33317518578E+03  0.36513228007E+03  0.12509000000E+03 0.  0.
         25    1    4    4    0    0  0.18167690848E+02 -0.13403518423E+02 -0.17926266383E+03  0.21975515930E+03  0.12509000000E+03 0.  0.
         25    1    3    3    0    0 -0.47169628837E+02  0.89739990836E+02 -0.14632547768E+03  0.21757043310E+03  0.12509000000E+03 0.  0.
<mgrwt>
<rscale>  2 0.45822431E+03</rscale>
<asrwt>0</asrwt>
<pdfrwt beam="1">  1       21 0.10565775E-01 0.45822431E+03</pdfrwt>
<pdfrwt beam="2">  1       21 0.10744274E+00 0.45822431E+03</pdfrwt>
<totfact> 0.46459378E+04</totfact>
</mgrwt>
</event>
<event>
 7    0  0.4766352E-002  0.4495894E+03  0.7546771E-02  0.1027845E+00
         21   -1    0    0  502  501  0.00000000000E+00  0.00000000000E+00  0.11061758118E+03  0.11061758118E+03  0.00000000000E+00 0. -1.
         21   -1    0    0  501  502 -0.00000000000E+00 -0.00000000000E+00 -0.45682310010E+03  0.45682310010E+03  0.00000000000E+00 0. -1.
      99926    2    1    2    0    0 -0.17763568394E-14  0.17763568394E-14 -0.34620551891E+03  0.56744068128E+03  0.44958944099E+03 0.  0.
      99925    2    3    3    0    0 -0.18103849482E+01  0.14620565299E+02 -0.35385666242E+03  0.44125396835E+03  0.26319857261E+03 0.  0.
         25    1    4    4    0    0 -0.19368293475E+02 -0.10840247455E+02 -0.12277964074E+03  0.17667764442E+03  0.12509000000E+03 0.  0.
         25    1    3    3    0    0  0.18103849482E+01 -0.14620565299E+02  0.76511435059E+01  0.12618671293E+03  0.12509000000E+03 0.  0.
         25    1    4    4    0    0  0.17557908527E+02  0.25460812754E+02 -0.23107702168E+03  0.26457632393E+03  0.12509000000E+03 0.  0.
<mgrwt>
<rscale>  2 0.44958944E+03</rscale>
<asrwt>0</asrwt>
<pdfrwt beam="1">  1       21 0.16267291E-01 0.44958944E+03</pdfrwt>
<pdfrwt beam="2">  1       21 0.67179869E-01 0.44958944E+03</pdfrwt>
<totfact> 0.63397958E+04</totfact>
</mgrwt>
</event>
<event>
 7    0  0.4766352E-002  0.4464462E+03  0.7546771E-02  0.1028787E+00
         21   -1    0    0  502  501  0.00000000000E+00  0.00000000000E+00  0.11604641768E+03  0.11604641768E+03  0.00000000000E+00 0. -1.
         21   -1    0    0  501  502 -0.00000000000E+00 -0.00000000000E+00 -0.42938467184E+03  0.42938467184E+03  0.00000000000E+00 0. -1.
      99926    2    1    2    0    0  0.00000000000E+00  0.00000000000E+00 -0.31333825415E+03  0.54543108952E+03  0.44644620269E+03 0.  0.
      99925    2    3    3    0    0 -0.46249913345E+02 -0.66050523432E+02 -0.27934597653E+03  0.39277228968E+03  0.26407228330E+03 0.  0.
         25    1    4    4    0    0  0.11626772213E+02 -0.24756578359E+02 -0.16576884312E+03  0.20946333200E+03  0.12509000000E+03 0.  0.
         25    1    3    3    0    0  0.46249913345E+02  0.66050523432E+02 -0.33992277626E+02  0.15265879984E+03  0.12509000000E+03 0.  0.
         25    1    4    4    0    0 -0.57876685558E+02 -0.41293945073E+02 -0.11357713341E+03  0.18330895767E+03  0.12509000000E+03 0.  0.
<mgrwt>
<rscale>  2 0.44644620E+03</rscale>
<asrwt>0</asrwt>
<pdfrwt beam="1">  1       21 0.17065650E-01 0.44644620E+03</pdfrwt>
<pdfrwt beam="2">  1       21 0.63144804E-01 0.44644620E+03</pdfrwt>
<totfact> 0.66561467E+04</totfact>
</mgrwt>
</event>
<event>
 7    0  0.4766352E-002  0.4518873E+03  0.7546771E-02  0.1027161E+00
         21   -1    0    0  502  501  0.00000000000E+00  0.00000000000E+00  0.25836314697E+03  0.25836314697E+03  0.00000000000E+00 0. -1.
         21   -1    0    0  501  502 -0.00000000000E+00 -0.00000000000E+00 -0.19759213218E+03  0.19759213218E+03  0.00000000000E+00 0. -1.
      99926    2    1    2    0    0  0.71054273576E-14  0.00000000000E+00  0.60771014786E+02  0.45595527915E+03  0.45188726509E+03 0.  0.
      99925    2    3    3    0    0 -0.59147559006E+02 -0.92924313844E+02  0.40904583350E+02  0.28809955230E+03  0.26304905485E+03 0.  0.
         25    1    4    4    0    0 -0.18662377366E+02 -0.23577363402E+02 -0.14491654896E+02  0.12946695546E+03  0.12509000000E+03 0.  0.
         25    1    3    3    0    0  0.59147559006E+02  0.92924313844E+02  0.19866431436E+02  0.16785572685E+03  0.12509000000E+03 0.  0.
         25    1    4    4    0    0 -0.40485181640E+02 -0.69346950443E+02  0.55396238246E+02  0.15863259684E+03  0.12509000000E+03 0.  0.
<mgrwt>
<rscale>  2 0.45188727E+03</rscale>
<asrwt>0</asrwt>
<pdfrwt beam="1">  1       21 0.37994581E-01 0.45188727E+03</pdfrwt>
<pdfrwt beam="2">  1       21 0.29057666E-01 0.45188727E+03</pdfrwt>
<totfact> 0.70202904E+04</totfact>
</mgrwt>
</event>
<event>
 7    0  0.4766352E-002  0.4540464E+03  0.7546771E-02  0.1026522E+00
         21   -1    0    0  502  501  0.00000000000E+00  0.00000000000E+00  0.46704230465E+02  0.46704230465E+02  0.00000000000E+00 0. -1.
         21   -1    0    0  501  502 -0.00000000000E+00 -0.00000000000E+00 -0.11035304595E+04  0.11035304595E+04  0.00000000000E+00 0. -1.
      99926    2    1    2    0    0 -0.71054273576E-14  0.14210854715E-13 -0.10568262290E+04  0.11502346900E+04  0.45404643334E+03 0.  0.
      99925    2    3    3    0    0  0.56698575122E+02 -0.89873114792E+02 -0.57003290378E+03  0.63651574463E+03  0.26253166778E+03 0.  0.
         25    1    3    3    0    0 -0.56698575122E+02  0.89873114792E+02 -0.48679332526E+03  0.51371894534E+03  0.12509000000E+03 0.  0.
         25    1    4    4    0    0  0.62933766741E+02 -0.62522153755E+02 -0.34457726520E+03  0.37716134279E+03  0.12509000000E+03 0.  0.
         25    1    4    4    0    0 -0.62351916193E+01 -0.27350961037E+02 -0.22545563858E+03  0.25935440184E+03  0.12509000000E+03 0.  0.
<mgrwt>
<rscale>  2 0.45404643E+03</rscale>
<asrwt>0</asrwt>
<pdfrwt beam="1">  1       21 0.68682678E-02 0.45404643E+03</pdfrwt>
<pdfrwt beam="2">  1       21 0.16228392E+00 0.45404643E+03</pdfrwt>
<totfact> 0.34026699E+04</totfact>
</mgrwt>
</event>
<event>
 7    0  0.4766352E-002  0.4533710E+03  0.7546771E-02  0.1026722E+00
         21   -1    0    0  502  501  0.00000000000E+00  0.00000000000E+00  0.63335034854E+02  0.63335034854E+02  0.00000000000E+00 0. -1.
         21   -1    0    0  501  502 -0.00000000000E+00 -0.00000000000E+00 -0.81134106946E+03  0.81134106946E+03  0.00000000000E+00 0. -1.
      99926    2    1    2    0    0  0.14210854715E-13 -0.71054273576E-14 -0.74800603461E+03  0.87467610432E+03  0.45337099560E+03 0.  0.
      99925    2    3    3    0    0 -0.75268858734E+02  0.44341518970E+02 -0.33756031021E+03  0.43678939274E+03  0.26307116752E+03 0.  0.
         25    1    4    4    0    0 -0.26378578330E+02  0.10673225129E+02 -0.10345728680E+03  0.16480493143E+03  0.12509000000E+03 0.  0.
         25    1    3    3    0    0  0.75268858734E+02 -0.44341518970E+02 -0.41044572439E+03  0.43788671157E+03  0.12509000000E+03 0.  0.
         25    1    4    4    0    0 -0.48890280404E+02  0.33668293841E+02 -0.23410302341E+03  0.27198446132E+03  0.12509000000E+03 0.  0.
<mgrwt>
<rscale>  2 0.45337100E+03</rscale>
<asrwt>0</asrwt>
<pdfrwt beam="1">  1       21 0.93139764E-02 0.45337100E+03</pdfrwt>
<pdfrwt beam="2">  1       21 0.11931485E+00 0.45337100E+03</pdfrwt>
<totfact> 0.44917128E+04</totfact>
</mgrwt>
</event>
<event>
 7    0  0.4766352E-002  0.4597458E+03  0.7546771E-02  0.1024855E+00
         21   -1    0    0  502  501  0.00000000000E+00  0.00000000000E+00  0.39723826224E+03  0.39723826224E+03  0.00000000000E+00 0.  1.
         21   -1    0    0  501  502 -0.00000000000E+00 -0.00000000000E+00 -0.13302231843E+03  0.13302231843E+03  0.00000000000E+00 0.  1.
      99926    2    1    2    0    0  0.00000000000E+00 -0.71054273576E-14  0.26421594380E+03  0.53026058067E+03  0.45974581940E+03 0.  0.
      99925    2    3    3    0    0  0.68783878147E+02 -0.29051186610E+02  0.60940788601E+02  0.28017361548E+03  0.26307466955E+03 0.  0.
         25    1    4    4    0    0  0.17427764564E+02  0.21424202033E+02  0.16555813122E+02  0.12916782285E+03  0.12509000000E+03 0.  0.
         25    1    4    4    0    0  0.51356113583E+02 -0.50475388643E+02  0.44384975479E+02  0.15100579263E+03  0.12509000000E+03 0.  0.
         25    1    3    3    0    0 -0.68783878147E+02  0.29051186610E+02  0.20327515520E+03  0.25008696519E+03  0.12509000000E+03 0.  0.
<mgrwt>
<rscale>  2 0.45974582E+03</rscale>
<asrwt>0</asrwt>
<pdfrwt beam="1">  1       21 0.58417391E-01 0.45974582E+03</pdfrwt>
<pdfrwt beam="2">  1       21 0.19562106E-01 0.45974582E+03</pdfrwt>
<totfact> 0.60866763E+04</totfact>
</mgrwt>
</event>
<event>
 7    0  0.4766352E-002  0.4547546E+03  0.7546771E-02  0.1026314E+00
         21   -1    0    0  502  501  0.00000000000E+00  0.00000000000E+00  0.10988351732E+03  0.10988351732E+03  0.00000000000E+00 0.  1.
         21   -1    0    0  501  502 -0.00000000000E+00 -0.00000000000E+00 -0.47050221878E+03  0.47050221878E+03  0.00000000000E+00 0.  1.
      99926    2    1    2    0    0 -0.71054273576E-14  0.00000000000E+00 -0.36061870146E+03  0.58038573610E+03  0.45475460945E+03 0.  0.
      99925    2    3    3    0    0  0.52390902937E+02 -0.85411846021E+02 -0.16055657854E+03  0.32404153140E+03  0.26302948316E+03 0.  0.
         25    1    4    4    0    0  0.58666818736E+02 -0.22856471690E+02 -0.63999589246E+02  0.15397295036E+03  0.12509000000E+03 0.  0.
         25    1    3    3    0    0 -0.52390902937E+02  0.85411846021E+02 -0.20006212293E+03  0.25634420469E+03  0.12509000000E+03 0.  0.
         25    1    4    4    0    0 -0.62759157993E+01 -0.62555374331E+02 -0.96556989290E+02  0.17006858104E+03  0.12509000000E+03 0.  0.
<mgrwt>
<rscale>  2 0.45475461E+03</rscale>
<asrwt>0</asrwt>
<pdfrwt beam="1">  1       21 0.16159341E-01 0.45475461E+03</pdfrwt>
<pdfrwt beam="2">  1       21 0.69191502E-01 0.45475461E+03</pdfrwt>
<totfact> 0.60018464E+04</totfact>
</mgrwt>
</event>
<event>
 7    0  0.4766352E-002  0.4096876E+03  0.7546771E-02  0.1040476E+00
         21   -1    0    0  502  501  0.00000000000E+00  0.00000000000E+00  0.31265142270E+02  0.31265142270E+02  0.00000000000E+00 0.  1.
         21   -1    0    0  501  502 -0.00000000000E+00 -0.00000000000E+00 -0.13421014122E+04  0.13421014122E+04  0.00000000000E+00 0.  1.
      99926    2    1    2    0    0  0.17763568394E-14  0.00000000000E+00 -0.13108362699E+04  0.13733665544E+04  0.40968764488E+03 0.  0.
      99925    2    3    3    0    0  0.69999510567E+01 -0.58881673576E+02 -0.92297863713E+03  0.96154486706E+03  0.26298843316E+03 0.  0.
         25    1    4    4    0    0  0.24571776515E+02 -0.10791631166E+02 -0.55424646208E+03  0.56882060470E+03  0.12509000000E+03 0.  0.
         25    1    3    3    0    0 -0.69999510567E+01  0.58881673576E+02 -0.38785763276E+03  0.41182168737E+03  0.12509000000E+03 0.  0.
         25    1    4    4    0    0 -0.17571825458E+02 -0.48090042410E+02 -0.36873217506E+03  0.39272426237E+03  0.12509000000E+03 0.  0.
<mgrwt>
<rscale>  2 0.40968764E+03</rscale>
<asrwt>0</asrwt>
<pdfrwt beam="1">  1       21 0.45978151E-02 0.40968764E+03</pdfrwt>
<pdfrwt beam="2">  1       21 0.19736785E+00 0.40968764E+03</pdfrwt>
<totfact> 0.39119122E+04</totfact>
</mgrwt>
</event>
<event>
 7    0  0.4766352E-002  0.4562123E+03  0.7546771E-02  0.1025886E+00
         21   -1    0    0  502  501  0.00000000000E+00  0.00000000000E+00  0.36195022885E+02  0.36195022885E+02  0.00000000000E+00 0. -1.
         21   -1    0    0  501  502 -0.00000000000E+00 -0.00000000000E+00 -0.14375570171E+04  0.14375570171E+04  0.00000000000E+00 0. -1.
      99926    2    1    2    0    0  0.00000000000E+00  0.00000000000E+00 -0.14013619942E+04  0.14737520400E+04  0.45621227134E+03 0.  0.
      99925    2    3    3    0    0  0.39001786884E+02 -0.69417210234E+02 -0.11456535737E+04  0.11781607801E+04  0.26306049597E+03 0.  0.
         25    1    3    3    0    0 -0.39001786884E+02  0.69417210234E+02 -0.25570842052E+03  0.29559125982E+03  0.12509000000E+03 0.  0.
         25    1    4    4    0    0  0.10465612674E+02 -0.61703057930E+01 -0.41403791196E+03  0.43269215658E+03  0.12509000000E+03 0.  0.
         25    1    4    4    0    0  0.28536174210E+02 -0.63246904440E+02 -0.73161566171E+03  0.74546862356E+03  0.12509000000E+03 0.  0.
<mgrwt>
<rscale>  2 0.45621227E+03</rscale>
<asrwt>0</asrwt>
<pdfrwt beam="1">  1       21 0.53227970E-02 0.45621227E+03</pdfrwt>
<pdfrwt beam="2">  1       21 0.21140546E+00 0.45621227E+03</pdfrwt>
<totfact> 0.24201096E+04</totfact>
</mgrwt>
</event>
<event>
 7    0  0.4766352E-002  0.4563098E+03  0.7546771E-02  0.1025857E+00
         21   -1    0    0  502  501  0.00000000000E+00  0.00000000000E+00  0.34912868007E+03  0.34912868007E+03  0.00000000000E+00 0. -1.
         21   -1    0    0  501  502 -0.00000000000E+00 -0.00000000000E+00 -0.14909876877E+03  0.14909876877E+03  0.00000000000E+00 0. -1.
      99926    2    1    2    0    0 -0.71054273576E-14  0.00000000000E+00  0.20002991131E+03  0.49822744884E+03  0.45630979100E+03 0.  0.
      99925    2    3    3    0    0 -0.61375645752E+02 -0.64932340540E+02  0.20369837424E+03  0.34446092303E+03  0.26301543888E+03 0.  0.
         25    1    4    4    0    0 -0.61051734141E+02 -0.50073371413E+02  0.13838845333E+03  0.20256734406E+03  0.12509000000E+03 0.  0.
         25    1    4    4    0    0 -0.32391161167E+00 -0.14858969127E+02  0.65309920907E+02  0.14189357896E+03  0.12509000000E+03 0.  0.
         25    1    3    3    0    0  0.61375645752E+02  0.64932340540E+02 -0.36684629294E+01  0.15376652581E+03  0.12509000000E+03 0.  0.
<mgrwt>
<rscale>  2 0.45630979E+03</rscale>
<asrwt>0</asrwt>
<pdfrwt beam="1">  1       21 0.51342453E-01 0.45630979E+03</pdfrwt>
<pdfrwt beam="2">  1       21 0.21926290E-01 0.45630979E+03</pdfrwt>
<totfact> 0.64719816E+04</totfact>
</mgrwt>
</event>
<event>
 7    0  0.4766352E-002  0.4558811E+03  0.7546771E-02  0.1025983E+00
         21   -1    0    0  502  501  0.00000000000E+00  0.00000000000E+00  0.23924858855E+03  0.23924858855E+03  0.00000000000E+00 0. -1.
         21   -1    0    0  501  502 -0.00000000000E+00 -0.00000000000E+00 -0.21716695898E+03  0.21716695898E+03  0.00000000000E+00 0. -1.
      99926    2    1    2    0    0  0.00000000000E+00  0.00000000000E+00  0.22081629564E+02  0.45641554753E+03  0.45588107403E+03 0.  0.
      99925    2    3    3    0    0  0.37202006369E+02  0.78983870389E+02 -0.59465558695E+02  0.28344187013E+03  0.26302224243E+03 0.  0.
         25    1    4    4    0    0 -0.12114078143E+02  0.65672882013E+02 -0.36046756656E+02  0.14630979149E+03  0.12509000000E+03 0.  0.
         25    1    4    4    0    0  0.49316084512E+02  0.13310988375E+02 -0.23418802039E+02  0.13713207864E+03  0.12509000000E+03 0.  0.
         25    1    3    3    0    0 -0.37202006369E+02 -0.78983870389E+02  0.81547188259E+02  0.17297367740E+03  0.12509000000E+03 0.  0.
<mgrwt>
<rscale>  2 0.45588107E+03</rscale>
<asrwt>0</asrwt>
<pdfrwt beam="1">  1       21 0.35183616E-01 0.45588107E+03</pdfrwt>
<pdfrwt beam="2">  1       21 0.31936317E-01 0.45588107E+03</pdfrwt>
<totfact> 0.67963203E+04</totfact>
</mgrwt>
</event>
<event>
 7    0  0.4766352E-002  0.4418486E+03  0.7546771E-02  0.1030181E+00
         21   -1    0    0  502  501  0.00000000000E+00  0.00000000000E+00  0.83702436862E+03  0.83702436862E+03  0.00000000000E+00 0. -1.
         21   -1    0    0  501  502 -0.00000000000E+00 -0.00000000000E+00 -0.58310781684E+02  0.58310781684E+02  0.00000000000E+00 0. -1.
      99926    2    1    2    0    0 -0.71054273576E-14  0.00000000000E+00  0.77871358694E+03  0.89533515031E+03  0.44184859499E+03 0.  0.
      99925    2    3    3    0    0  0.54285946810E+02  0.62201436444E+02  0.61174296173E+03  0.67096340409E+03  0.26295713660E+03 0.  0.
         25    1    4    4    0    0  0.37859695695E+02  0.68837847425E+02  0.36499865841E+03  0.39375567873E+03  0.12509000000E+03 0.  0.
         25    1    3    3    0    0 -0.54285946810E+02 -0.62201436444E+02  0.16697062521E+03  0.22437174621E+03  0.12509000000E+03 0.  0.
         25    1    4    4    0    0  0.16426251115E+02 -0.66364109813E+01  0.24674430332E+03  0.27720772536E+03  0.12509000000E+03 0.  0.
<mgrwt>
<rscale>  2 0.44184859E+03</rscale>
<asrwt>0</asrwt>
<pdfrwt beam="1">  1       21 0.12309181E+00 0.44184859E+03</pdfrwt>
<pdfrwt beam="2">  1       21 0.85751155E-02 0.44184859E+03</pdfrwt>
<totfact> 0.48210325E+04</totfact>
</mgrwt>
</event>
<event>
 7    0  0.4766352E-002  0.4568626E+03  0.7546771E-02  0.1025695E+00
         21   -1    0    0  502  501  0.00000000000E+00  0.00000000000E+00  0.65130377609E+02  0.65130377609E+02  0.00000000000E+00 0.  1.
         21   -1    0    0  501  502 -0.00000000000E+00 -0.00000000000E+00 -0.80117537343E+03  0.80117537343E+03  0.00000000000E+00 0.  1.
      99926    2    1    2    0    0 -0.35527136788E-14 -0.14210854715E-13 -0.73604499582E+03  0.86630575104E+03  0.45686258154E+03 0.  0.
      99925    2    3    3    0    0 -0.28131900422E+02 -0.67455913406E+02 -0.29434901942E+03  0.40145679950E+03  0.26302948990E+03 0.  0.
         25    1    4    4    0    0  0.19772290020E+02 -0.15977012182E+02 -0.16195966942E+03  0.20621506004E+03  0.12509000000E+03 0.  0.
         25    1    4    4    0    0 -0.47904190442E+02 -0.51478901224E+02 -0.13238935000E+03  0.19524173946E+03  0.12509000000E+03 0.  0.
         25    1    3    3    0    0  0.28131900422E+02  0.67455913406E+02 -0.44169597640E+03  0.46484895154E+03  0.12509000000E+03 0.  0.
<mgrwt>
<rscale>  2 0.45686258E+03</rscale>
<asrwt>0</asrwt>
<pdfrwt beam="1">  1       21 0.95779965E-02 0.45686258E+03</pdfrwt>
<pdfrwt beam="2">  1       21 0.11781991E+00 0.45686258E+03</pdfrwt>
<totfact> 0.44071114E+04</totfact>
</mgrwt>
</event>
<event>
 7    0  0.4766352E-002  0.4560632E+03  0.7546771E-02  0.1025929E+00
         21   -1    0    0  502  501  0.00000000000E+00  0.00000000000E+00  0.16399440358E+04  0.16399440358E+04  0.00000000000E+00 0.  1.
         21   -1    0    0  501  502 -0.00000000000E+00 -0.00000000000E+00 -0.31707433308E+02  0.31707433308E+02  0.00000000000E+00 0.  1.
      99926    2    1    2    0    0 -0.14210854715E-13 -0.71054273576E-14  0.16082366025E+04  0.16716514691E+04  0.45606322432E+03 0.  0.
      99925    2    3    3    0    0 -0.65578997357E+02 -0.60406157067E+02  0.12722577613E+04  0.13022210988E+04  0.26304081465E+03 0.  0.
         25    1    4    4    0    0  0.71061056704E+01 -0.22035842172E+02  0.63557918700E+03  0.64818553372E+03  0.12509000000E+03 0.  0.
         25    1    4    4    0    0 -0.72685103027E+02 -0.38370314895E+02  0.63667857430E+03  0.65403556504E+03  0.12509000000E+03 0.  0.
         25    1    3    3    0    0  0.65578997357E+02  0.60406157067E+02  0.33597884123E+03  0.36943037038E+03  0.12509000000E+03 0.  0.
<mgrwt>
<rscale>  2 0.45606322E+03</rscale>
<asrwt>0</asrwt>
<pdfrwt beam="1">  1       21 0.24116818E+00 0.45606322E+03</pdfrwt>
<pdfrwt beam="2">  1       21 0.46628589E-02 0.45606322E+03</pdfrwt>
<totfact> 0.19694975E+04</totfact>
</mgrwt>
</event>
<event>
 7    0  0.4766352E-002  0.4400692E+03  0.7546771E-02  0.1030726E+00
         21   -1    0    0  502  501  0.00000000000E+00  0.00000000000E+00  0.10871534725E+03  0.10871534725E+03  0.00000000000E+00 0.  1.
         21   -1    0    0  501  502 -0.00000000000E+00 -0.00000000000E+00 -0.44533945729E+03  0.44533945729E+03  0.00000000000E+00 0.  1.
      99926    2    1    2    0    0  0.00000000000E+00  0.00000000000E+00 -0.33662411004E+03  0.55405480453E+03  0.44006923883E+03 0.  0.
      99925    2    3    3    0    0  0.78219529289E+02 -0.59783792523E+02 -0.21127873063E+03  0.35144343059E+03  0.26302354700E+03 0.  0.
         25    1    4    4    0    0  0.15958847663E+02 -0.36270066371E+02 -0.60361195257E+02  0.14443401444E+03  0.12509000000E+03 0.  0.
         25    1    3    3    0    0 -0.78219529289E+02  0.59783792523E+02 -0.12534537941E+03  0.20261137394E+03  0.12509000000E+03 0.  0.
         25    1    4    4    0    0  0.62260681626E+02 -0.23513726153E+02 -0.15091753537E+03  0.20700941616E+03  0.12509000000E+03 0.  0.
<mgrwt>
<rscale>  2 0.44006924E+03</rscale>
<asrwt>0</asrwt>
<pdfrwt beam="1">  1       21 0.15987551E-01 0.44006924E+03</pdfrwt>
<pdfrwt beam="2">  1       21 0.65491096E-01 0.44006924E+03</pdfrwt>
<totfact> 0.69445659E+04</totfact>
</mgrwt>
</event>
<event>
 7    0  0.4766352E-002  0.4535703E+03  0.7546771E-02  0.1026663E+00
         21   -1    0    0  502  501  0.00000000000E+00  0.00000000000E+00  0.99886575200E+03  0.99886575200E+03  0.00000000000E+00 0.  1.
         21   -1    0    0  501  502 -0.00000000000E+00 -0.00000000000E+00 -0.51489916968E+02  0.51489916968E+02  0.00000000000E+00 0.  1.
      99926    2    1    2    0    0  0.71054273576E-14  0.00000000000E+00  0.94737583503E+03  0.10503556690E+04  0.45357034574E+03 0.  0.
      99925    2    3    3    0    0  0.41188533455E+02 -0.71640854016E+02  0.42278663034E+03  0.50476401853E+03  0.26307655227E+03 0.  0.
         25    1    4    4    0    0  0.57414758532E+02 -0.46308655361E+02  0.25333210016E+03  0.29200275192E+03  0.12509000000E+03 0.  0.
         25    1    4    4    0    0 -0.16226225077E+02 -0.25332198655E+02  0.16945453019E+03  0.21276126661E+03  0.12509000000E+03 0.  0.
         25    1    3    3    0    0 -0.41188533455E+02  0.71640854016E+02  0.52458920469E+03  0.54559165044E+03  0.12509000000E+03 0.  0.
<mgrwt>
<rscale>  2 0.45357035E+03</rscale>
<asrwt>0</asrwt>
<pdfrwt beam="1">  1       21 0.14689201E+00 0.45357035E+03</pdfrwt>
<pdfrwt beam="2">  1       21 0.75720472E-02 0.45357035E+03</pdfrwt>
<totfact> 0.37683083E+04</totfact>
</mgrwt>
</event>
<event>
 7    0  0.4766352E-002  0.4469760E+03  0.7546771E-02  0.1028628E+00
         21   -1    0    0  502  501  0.00000000000E+00  0.00000000000E+00  0.86507777852E+03  0.86507777852E+03  0.00000000000E+00 0.  1.
         21   -1    0    0  501  502 -0.00000000000E+00 -0.00000000000E+00 -0.57736872557E+02  0.57736872557E+02  0.00000000000E+00 0.  1.
      99926    2    1    2    0    0  0.00000000000E+00  0.00000000000E+00  0.80734090596E+03  0.92281465107E+03  0.44697599690E+03 0.  0.
      99925    2    3    3    0    0  0.53542829829E+02  0.62122405413E+02  0.37310944465E+03  0.46354294721E+03  0.26255547669E+03 0.  0.
         25    1    4    4    0    0  0.65957917882E+02  0.28614728353E+02  0.21256247167E+03  0.25690379926E+03  0.12509000000E+03 0.  0.
         25    1    4    4    0    0 -0.12415088053E+02  0.33507677059E+02  0.16054697298E+03  0.20663914795E+03  0.12509000000E+03 0.  0.
         25    1    3    3    0    0 -0.53542829829E+02 -0.62122405413E+02  0.43423146131E+03  0.45927170386E+03  0.12509000000E+03 0.  0.
<mgrwt>
<rscale>  2 0.44697600E+03</rscale>
<asrwt>0</asrwt>
<pdfrwt beam="1">  1       21 0.12721731E+00 0.44697600E+03</pdfrwt>
<pdfrwt beam="2">  1       21 0.84907170E-02 0.44697600E+03</pdfrwt>
<totfact> 0.45021760E+04</totfact>
</mgrwt>
</event>
<event>
 7    0  0.4766352E-002  0.4542874E+03  0.7546771E-02  0.1026451E+00
         21   -1    0    0  502  501  0.00000000000E+00  0.00000000000E+00  0.39482509404E+03  0.39482509404E+03  0.00000000000E+00 0.  1.
         21   -1    0    0  501  502 -0.00000000000E+00 -0.00000000000E+00 -0.13067624978E+03  0.13067624978E+03  0.00000000000E+00 0.  1.
      99926    2    1    2    0    0  0.00000000000E+00  0.00000000000E+00  0.26414884426E+03  0.52550134382E+03  0.45428740950E+03 0.  0.
      99925    2    3    3    0    0 -0.41257662220E+02 -0.41932435090E+02  0.27723409852E+03  0.38665158407E+03  0.26302125061E+03 0.  0.
         25    1    4    4    0    0 -0.57778576506E+02 -0.21894066314E+02  0.11974341848E+03  0.18385784838E+03  0.12509000000E+03 0.  0.
         25    1    4    4    0    0  0.16520914285E+02 -0.20038368776E+02  0.15749068005E+03  0.20279373569E+03  0.12509000000E+03 0.  0.
         25    1    3    3    0    0  0.41257662220E+02  0.41932435090E+02 -0.13085254262E+02  0.13884975975E+03  0.12509000000E+03 0.  0.
<mgrwt>
<rscale>  2 0.45428741E+03</rscale>
<asrwt>0</asrwt>
<pdfrwt beam="1">  1       21 0.58062513E-01 0.45428741E+03</pdfrwt>
<pdfrwt beam="2">  1       21 0.19217096E-01 0.45428741E+03</pdfrwt>
<totfact> 0.63872121E+04</totfact>
</mgrwt>
</event>
<event>
 7    0  0.4766352E-002  0.4549943E+03  0.7546771E-02  0.1026243E+00
         21   -1    0    0  502  501  0.00000000000E+00  0.00000000000E+00  0.31698986622E+03  0.31698986622E+03  0.00000000000E+00 0. -1.
         21   -1    0    0  501  502 -0.00000000000E+00 -0.00000000000E+00 -0.16327008715E+03  0.16327008715E+03  0.00000000000E+00 0. -1.
      99926    2    1    2    0    0  0.00000000000E+00  0.14210854715E-13  0.15371977907E+03  0.48025995337E+03  0.45499434319E+03 0.  0.
      99925    2    3    3    0    0  0.80676639938E+01  0.10007067566E+03  0.15163043334E+03  0.31985078657E+03  0.26312261404E+03 0.  0.
         25    1    3    3    0    0 -0.80676639938E+01 -0.10007067566E+03  0.20893457310E+01  0.16040916681E+03  0.12509000000E+03 0.  0.
         25    1    4    4    0    0  0.13324865555E+01  0.79311681869E+02  0.11550484612E+03  0.18783236137E+03  0.12509000000E+03 0.  0.
         25    1    4    4    0    0  0.67351774383E+01  0.20758993795E+02  0.36125587220E+02  0.13201842519E+03  0.12509000000E+03 0.  0.
<mgrwt>
<rscale>  2 0.45499434E+03</rscale>
<asrwt>0</asrwt>
<pdfrwt beam="1">  1       21 0.46616157E-01 0.45499434E+03</pdfrwt>
<pdfrwt beam="2">  1       21 0.24010307E-01 0.45499434E+03</pdfrwt>
<totfact> 0.66684174E+04</totfact>
</mgrwt>
</event>
<event>
 7    0  0.4766352E-002  0.4522750E+03  0.7546771E-02  0.1027046E+00
         21   -1    0    0  502  501  0.00000000000E+00  0.00000000000E+00  0.80998393274E+02  0.80998393274E+02  0.00000000000E+00 0.  1.
         21   -1    0    0  501  502 -0.00000000000E+00 -0.00000000000E+00 -0.63134802213E+03  0.63134802213E+03  0.00000000000E+00 0.  1.
      99926    2    1    2    0    0  0.00000000000E+00  0.00000000000E+00 -0.55034962886E+03  0.71234641540E+03  0.45227502867E+03 0.  0.
      99925    2    3    3    0    0  0.45757630068E+02  0.74899785596E+02 -0.45322593961E+03  0.53128217900E+03  0.26295106540E+03 0.  0.
         25    1    4    4    0    0  0.20543346488E+02  0.28462684095E+02 -0.29770888772E+03  0.32482340341E+03  0.12509000000E+03 0.  0.
         25    1    3    3    0    0 -0.45757630068E+02 -0.74899785596E+02 -0.97123689243E+02  0.18106423640E+03  0.12509000000E+03 0.  0.
         25    1    4    4    0    0  0.25214283580E+02  0.46437101501E+02 -0.15551705189E+03  0.20645877559E+03  0.12509000000E+03 0.  0.
<mgrwt>
<rscale>  2 0.45227503E+03</rscale>
<asrwt>0</asrwt>
<pdfrwt beam="1">  1       21 0.11911529E-01 0.45227503E+03</pdfrwt>
<pdfrwt beam="2">  1       21 0.92845293E-01 0.45227503E+03</pdfrwt>
<totfact> 0.53372788E+04</totfact>
</mgrwt>
</event>
<event>
 7    0  0.4766352E-002  0.4515961E+03  0.7546771E-02  0.1027247E+00
         21   -1    0    0  502  501  0.00000000000E+00  0.00000000000E+00  0.38100674957E+02  0.38100674957E+02  0.00000000000E+00 0.  1.
         21   -1    0    0  501  502 -0.00000000000E+00 -0.00000000000E+00 -0.13381591639E+04  0.13381591639E+04  0.00000000000E+00 0.  1.
      99926    2    1    2    0    0  0.35527136788E-14  0.00000000000E+00 -0.13000584890E+04  0.13762598389E+04  0.45159613526E+03 0.  0.
      99925    2    3    3    0    0 -0.24359605718E+02  0.54493500711E+02 -0.54035959242E+03  0.60402098106E+03  0.26322979397E+03 0.  0.
         25    1    4    4    0    0 -0.36000768754E+02 -0.51146753990E+01 -0.24145182339E+03  0.27435142860E+03  0.12509000000E+03 0.  0.
         25    1    4    4    0    0  0.11641163036E+02  0.59608176110E+02 -0.29890776902E+03  0.32966955246E+03  0.12509000000E+03 0.  0.
         25    1    3    3    0    0  0.24359605718E+02 -0.54493500711E+02 -0.75969889656E+03  0.77223885783E+03  0.12509000000E+03 0.  0.
<mgrwt>
<rscale>  2 0.45159614E+03</rscale>
<asrwt>0</asrwt>
<pdfrwt beam="1">  1       21 0.56030410E-02 0.45159614E+03</pdfrwt>
<pdfrwt beam="2">  1       21 0.19678809E+00 0.45159614E+03</pdfrwt>
<totfact> 0.27697091E+04</totfact>
</mgrwt>
</event>
<event>
 7    0  0.4766352E-002  0.4503592E+03  0.7546771E-02  0.1027615E+00
         21   -1    0    0  502  501  0.00000000000E+00  0.00000000000E+00  0.93055340949E+03  0.93055340949E+03  0.00000000000E+00 0. -1.
         21   -1    0    0  501  502 -0.00000000000E+00 -0.00000000000E+00 -0.54489993669E+02  0.54489993669E+02  0.00000000000E+00 0. -1.
      99926    2    1    2    0    0  0.00000000000E+00  0.00000000000E+00  0.87606341582E+03  0.98504340316E+03  0.45035918728E+03 0.  0.
      99925    2    3    3    0    0 -0.24485456745E+02 -0.19683345718E+02  0.32732785179E+03  0.42135448272E+03  0.26345607957E+03 0.  0.
         25    1    4    4    0    0  0.55156362774E+01 -0.46937042475E+02  0.17110140231E+03  0.21715594897E+03  0.12509000000E+03 0.  0.
         25    1    3    3    0    0  0.24485456745E+02  0.19683345718E+02  0.54873556404E+03  0.56368892044E+03  0.12509000000E+03 0.  0.
         25    1    4    4    0    0 -0.30001093023E+02  0.27253696757E+02  0.15622644948E+03  0.20419853375E+03  0.12509000000E+03 0.  0.
<mgrwt>
<rscale>  2 0.45035919E+03</rscale>
<asrwt>0</asrwt>
<pdfrwt beam="1">  1       21 0.13684608E+00 0.45035919E+03</pdfrwt>
<pdfrwt beam="2">  1       21 0.80132350E-02 0.45035919E+03</pdfrwt>
<totfact> 0.41227877E+04</totfact>
</mgrwt>
</event>
<event>
 7    0  0.4766352E-002  0.4558920E+03  0.7546771E-02  0.1025979E+00
         21   -1    0    0  502  501  0.00000000000E+00  0.00000000000E+00  0.72079735615E+02  0.72079735615E+02  0.00000000000E+00 0.  1.
         21   -1    0    0  501  502 -0.00000000000E+00 -0.00000000000E+00 -0.72085961870E+03  0.72085961870E+03  0.00000000000E+00 0.  1.
      99926    2    1    2    0    0  0.00000000000E+00  0.35527136788E-14 -0.64877988308E+03  0.79293935431E+03  0.45589196409E+03 0.  0.
      99925    2    3    3    0    0 -0.10168528308E+03  0.12178870526E+02 -0.32065863834E+03  0.42715351392E+03  0.26296376258E+03 0.  0.
         25    1    3    3    0    0  0.10168528308E+03 -0.12178870526E+02 -0.32812124474E+03  0.36578584039E+03  0.12509000000E+03 0.  0.
         25    1    4    4    0    0 -0.45348693189E+02  0.43046171641E+02 -0.13624150541E+03  0.19524019249E+03  0.12509000000E+03 0.  0.
         25    1    4    4    0    0 -0.56336589889E+02 -0.30867301115E+02 -0.18441713293E+03  0.23191332143E+03  0.12509000000E+03 0.  0.
<mgrwt>
<rscale>  2 0.45589196E+03</rscale>
<asrwt>0</asrwt>
<pdfrwt beam="1">  1       21 0.10599961E-01 0.45589196E+03</pdfrwt>
<pdfrwt beam="2">  1       21 0.10600877E+00 0.45589196E+03</pdfrwt>
<totfact> 0.47772924E+04</totfact>
</mgrwt>
</event>
<event>
 7    0  0.4766352E-002  0.4549509E+03  0.7546771E-02  0.1026256E+00
         21   -1    0    0  502  501  0.00000000000E+00  0.00000000000E+00  0.14319279921E+03  0.14319279921E+03  0.00000000000E+00 0.  1.
         21   -1    0    0  501  502 -0.00000000000E+00 -0.00000000000E+00 -0.36136649737E+03  0.36136649737E+03  0.00000000000E+00 0.  1.
      99926    2    1    2    0    0  0.14210854715E-13  0.71054273576E-14 -0.21817369816E+03  0.50455929659E+03  0.45495089977E+03 0.  0.
      99925    2    3    3    0    0 -0.82496004540E+02 -0.57145041208E+02 -0.79014528134E+02  0.29222953136E+03  0.26283770057E+03 0.  0.
         25    1    3    3    0    0  0.82496004540E+02  0.57145041208E+02 -0.13915917003E+03  0.21232976523E+03  0.12509000000E+03 0.  0.
         25    1    4    4    0    0 -0.45971373031E+02 -0.43797624616E+02 -0.20488052192E+01  0.14029720155E+03  0.12509000000E+03 0.  0.
         25    1    4    4    0    0 -0.36524631509E+02 -0.13347416592E+02 -0.76965722915E+02  0.15193232981E+03  0.12509000000E+03 0.  0.
<mgrwt>
<rscale>  2 0.45495090E+03</rscale>
<asrwt>0</asrwt>
<pdfrwt beam="1">  1       21 0.21057765E-01 0.45495090E+03</pdfrwt>
<pdfrwt beam="2">  1       21 0.53142132E-01 0.45495090E+03</pdfrwt>
<totfact> 0.64976850E+04</totfact>
</mgrwt>
</event>
<event>
 7    0  0.4766352E-002  0.4543281E+03  0.7546771E-02  0.1026439E+00
         21   -1    0    0  502  501  0.00000000000E+00  0.00000000000E+00  0.61653896946E+03  0.61653896946E+03  0.00000000000E+00 0.  1.
         21   -1    0    0  501  502 -0.00000000000E+00 -0.00000000000E+00 -0.83698689465E+02  0.83698689465E+02  0.00000000000E+00 0.  1.
      99926    2    1    2    0    0  0.00000000000E+00  0.00000000000E+00  0.53284027999E+03  0.70023765892E+03  0.45432809179E+03 0.  0.
      99925    2    3    3    0    0  0.45865929933E+02  0.93823264749E+02  0.27091744687E+03  0.39176145701E+03  0.26301005236E+03 0.  0.
         25    1    4    4    0    0  0.11874850319E+02  0.40240368863E+02  0.78092167912E+02  0.15331729891E+03  0.12509000000E+03 0.  0.
         25    1    4    4    0    0  0.33991079614E+02  0.53582895886E+02  0.19282527896E+03  0.23844415810E+03  0.12509000000E+03 0.  0.
         25    1    3    3    0    0 -0.45865929933E+02 -0.93823264749E+02  0.26192283312E+03  0.30847620191E+03  0.12509000000E+03 0.  0.
<mgrwt>
<rscale>  2 0.45432809E+03</rscale>
<asrwt>0</asrwt>
<pdfrwt beam="1">  1       21 0.90667494E-01 0.45432809E+03</pdfrwt>
<pdfrwt beam="2">  1       21 0.12308631E-01 0.45432809E+03</pdfrwt>
<totfact> 0.53170650E+04</totfact>
</mgrwt>
</event>
<event>
 7    0  0.4766352E-002  0.4491432E+03  0.7546771E-02  0.1027978E+00
         21   -1    0    0  502  501  0.00000000000E+00  0.00000000000E+00  0.79864954275E+03  0.79864954275E+03  0.00000000000E+00 0.  1.
         21   -1    0    0  501  502 -0.00000000000E+00 -0.00000000000E+00 -0.63147090504E+02  0.63147090504E+02  0.00000000000E+00 0.  1.
      99926    2    1    2    0    0 -0.71054273576E-14 -0.14210854715E-13  0.73550245225E+03  0.86179663325E+03  0.44914316184E+03 0.  0.
      99925    2    3    3    0    0  0.33028688723E+02  0.10129920593E+03  0.44836683209E+03  0.53096919204E+03  0.26371015030E+03 0.  0.
         25    1    3    3    0    0 -0.33028688723E+02 -0.10129920593E+03  0.28713562015E+03  0.33082744122E+03  0.12509000000E+03 0.  0.
         25    1    4    4    0    0  0.33282468323E+02  0.11658797494E+02  0.18873118887E+03  0.22915195833E+03  0.12509000000E+03 0.  0.
         25    1    4    4    0    0 -0.25377959938E+00  0.89640408433E+02  0.25963564323E+03  0.30181723371E+03  0.12509000000E+03 0.  0.
<mgrwt>
<rscale>  2 0.44914316E+03</rscale>
<asrwt>0</asrwt>
<pdfrwt beam="1">  1       21 0.11744846E+00 0.44914316E+03</pdfrwt>
<pdfrwt beam="2">  1       21 0.92863373E-02 0.44914316E+03</pdfrwt>
<totfact> 0.47040050E+04</totfact>
</mgrwt>
</event>
<event>
 7    0  0.4766352E-002  0.4550853E+03  0.7546771E-02  0.1026216E+00
         21   -1    0    0  502  501  0.00000000000E+00  0.00000000000E+00  0.81696400613E+02  0.81696400613E+02  0.00000000000E+00 0. -1.
         21   -1    0    0  501  502 -0.00000000000E+00 -0.00000000000E+00 -0.63375699911E+03  0.63375699911E+03  0.00000000000E+00 0. -1.
      99926    2    1    2    0    0  0.00000000000E+00  0.00000000000E+00 -0.55206059850E+03  0.71545339973E+03  0.45508533569E+03 0.  0.
      99925    2    3    3    0    0  0.94672090829E+02  0.32888612640E+02 -0.26430584210E+03  0.38606795143E+03  0.26295706745E+03 0.  0.
         25    1    4    4    0    0  0.45363635963E+02 -0.95308899378E+01 -0.85858512611E+02  0.15864390823E+03  0.12509000000E+03 0.  0.
         25    1    3    3    0    0 -0.94672090829E+02 -0.32888612640E+02 -0.28775475640E+03  0.32938544830E+03  0.12509000000E+03 0.  0.
         25    1    4    4    0    0  0.49308454866E+02  0.42419502578E+02 -0.17844732949E+03  0.22742404320E+03  0.12509000000E+03 0.  0.
<mgrwt>
<rscale>  2 0.45508534E+03</rscale>
<asrwt>0</asrwt>
<pdfrwt beam="1">  1       21 0.12014177E-01 0.45508534E+03</pdfrwt>
<pdfrwt beam="2">  1       21 0.93199557E-01 0.45508534E+03</pdfrwt>
<totfact> 0.52037045E+04</totfact>
</mgrwt>
</event>
<event>
 7    0  0.4766352E-002  0.4563015E+03  0.7546771E-02  0.1025859E+00
         21   -1    0    0  502  501  0.00000000000E+00  0.00000000000E+00  0.66053425839E+03  0.66053425839E+03  0.00000000000E+00 0. -1.
         21   -1    0    0  501  502 -0.00000000000E+00 -0.00000000000E+00 -0.78804020491E+02  0.78804020491E+02  0.00000000000E+00 0. -1.
      99926    2    1    2    0    0  0.00000000000E+00 -0.35527136788E-14  0.58173023790E+03  0.73933827888E+03  0.45630145840E+03 0.  0.
      99925    2    3    3    0    0 -0.29875915513E+02  0.28529695791E+02  0.53844242662E+03  0.60067373196E+03  0.26302503988E+03 0.  0.
         25    1    4    4    0    0 -0.35021696413E+02 -0.19642979882E+02  0.28863228665E+03  0.31712532361E+03  0.12509000000E+03 0.  0.
         25    1    4    4    0    0  0.51457808999E+01  0.48172675673E+02  0.24981013997E+03  0.28354840834E+03  0.12509000000E+03 0.  0.
         25    1    3    3    0    0  0.29875915513E+02 -0.28529695791E+02  0.43287811281E+02  0.13866454693E+03  0.12509000000E+03 0.  0.
<mgrwt>
<rscale>  2 0.45630146E+03</rscale>
<asrwt>0</asrwt>
<pdfrwt beam="1">  1       21 0.97137388E-01 0.45630146E+03</pdfrwt>
<pdfrwt beam="2">  1       21 0.11588827E-01 0.45630146E+03</pdfrwt>
<totfact> 0.50301996E+04</totfact>
</mgrwt>
</event>
<event>
 7    0  0.4766352E-002  0.4572811E+03  0.7546771E-02  0.1025573E+00
         21   -1    0    0  502  501  0.00000000000E+00  0.00000000000E+00  0.14293100613E+03  0.14293100613E+03  0.00000000000E+00 0.  1.
         21   -1    0    0  501  502 -0.00000000000E+00 -0.00000000000E+00 -0.36574641636E+03  0.36574641636E+03  0.00000000000E+00 0.  1.
      99926    2    1    2    0    0  0.00000000000E+00  0.00000000000E+00 -0.22281541023E+03  0.50867742250E+03  0.45728110952E+03 0.  0.
      99925    2    3    3    0    0 -0.10900944679E+03 -0.35337737772E+02 -0.12554175453E+03  0.31312311446E+03  0.26297060192E+03 0.  0.
         25    1    3    3    0    0  0.10900944679E+03  0.35337737772E+02 -0.97273655703E+02  0.19555430804E+03  0.12509000000E+03 0.  0.
         25    1    4    4    0    0 -0.26995860301E+02 -0.47294649135E+02 -0.67720979464E+02  0.15231283423E+03  0.12509000000E+03 0.  0.
         25    1    4    4    0    0 -0.82013586492E+02  0.11956911363E+02 -0.57820775064E+02  0.16081028023E+03  0.12509000000E+03 0.  0.
<mgrwt>
<rscale>  2 0.45728111E+03</rscale>
<asrwt>0</asrwt>
<pdfrwt beam="1">  1       21 0.21019266E-01 0.45728111E+03</pdfrwt>
<pdfrwt beam="2">  1       21 0.53786237E-01 0.45728111E+03</pdfrwt>
<totfact> 0.63507639E+04</totfact>
</mgrwt>
</event>
<event>
 7    0  0.4766352E-002  0.4585791E+03  0.7546771E-02  0.1025194E+00
         21   -1    0    0  502  501  0.00000000000E+00  0.00000000000E+00  0.82973504258E+02  0.82973504258E+02  0.00000000000E+00 0. -1.
         21   -1    0    0  501  502 -0.00000000000E+00 -0.00000000000E+00 -0.63362035001E+03  0.63362035001E+03  0.00000000000E+00 0. -1.
      99926    2    1    2    0    0 -0.44408920985E-15  0.35527136788E-14 -0.55064684575E+03  0.71659385427E+03  0.45857911339E+03 0.  0.
      99925    2    3    3    0    0  0.28319525902E+01 -0.15491086540E+02 -0.16523824099E+03  0.31108763429E+03  0.26310424969E+03 0.  0.
         25    1    4    4    0    0 -0.16508049174E+01 -0.48102278548E+02 -0.90086546030E+02  0.16149194480E+03  0.12509000000E+03 0.  0.
         25    1    3    3    0    0 -0.28319525902E+01  0.15491086540E+02 -0.38540860476E+03  0.40550621998E+03  0.12509000000E+03 0.  0.
         25    1    4    4    0    0  0.44827575076E+01  0.32611192008E+02 -0.75151694958E+02  0.14959568949E+03  0.12509000000E+03 0.  0.
<mgrwt>
<rscale>  2 0.45857911E+03</rscale>
<asrwt>0</asrwt>
<pdfrwt beam="1">  1       21 0.12201986E-01 0.45857911E+03</pdfrwt>
<pdfrwt beam="2">  1       21 0.93179463E-01 0.45857911E+03</pdfrwt>
<totfact> 0.50572340E+04</totfact>
</mgrwt>
</event>
<event>
 7    0  0.4766352E-002  0.4531811E+03  0.7546771E-02  0.1026778E+00
         21   -1    0    0  502  501  0.00000000000E+00  0.00000000000E+00  0.11831381291E+03  0.11831381291E+03  0.00000000000E+00 0.  1.
         21   -1    0    0  501  502 -0.00000000000E+00 -0.00000000000E+00 -0.43395843935E+03  0.43395843935E+03  0.00000000000E+00 0.  1.
      99926    2    1    2    0    0  0.00000000000E+00  0.00000000000E+00 -0.31564462643E+03  0.55227225226E+03  0.45318110113E+03 0.  0.
      99925    2    3    3    0    0 -0.94603648320E+02 -0.53111552381E+02 -0.22907793718E+03  0.36542475546E+03  0.26322587891E+03 0.  0.
         25    1    4    4    0    0 -0.88342356850E+02 -0.15784538614E+02 -0.11997696641E+03  0.19518069639E+03  0.12509000000E+03 0.  0.
         25    1    4    4    0    0 -0.62612914700E+01 -0.37327013766E+02 -0.10910097077E+03  0.17024405907E+03  0.12509000000E+03 0.  0.
         25    1    3    3    0    0  0.94603648320E+02  0.53111552381E+02 -0.86566689255E+02  0.18684749680E+03  0.12509000000E+03 0.  0.
<mgrwt>
<rscale>  2 0.45318110E+03</rscale>
<asrwt>0</asrwt>
<pdfrwt beam="1">  1       21 0.17399090E-01 0.45318110E+03</pdfrwt>
<pdfrwt beam="2">  1       21 0.63817418E-01 0.45318110E+03</pdfrwt>
<totfact> 0.62612758E+04</totfact>
</mgrwt>
</event>
<event>
 7    0  0.4766352E-002  0.4529996E+03  0.7546771E-02  0.1026831E+00
         21   -1    0    0  502  501  0.00000000000E+00  0.00000000000E+00  0.10009973088E+03  0.10009973088E+03  0.00000000000E+00 0. -1.
         21   -1    0    0  501  502 -0.00000000000E+00 -0.00000000000E+00 -0.51251056931E+03  0.51251056931E+03  0.00000000000E+00 0. -1.
      99926    2    1    2    0    0  0.00000000000E+00  0.00000000000E+00 -0.41241083843E+03  0.61261030018E+03  0.45299964706E+03 0.  0.
      99925    2    3    3    0    0 -0.58008253215E+02 -0.38257703905E+02 -0.37736500204E+03  0.46528641177E+03  0.26317007973E+03 0.  0.
         25    1    3    3    0    0  0.58008253215E+02  0.38257703905E+02 -0.35045836392E+02  0.14732388841E+03  0.12509000000E+03 0.  0.
         25    1    4    4    0    0 -0.70373049540E+02 -0.15880136734E+02 -0.19363901183E+03  0.24155355482E+03  0.12509000000E+03 0.  0.
         25    1    4    4    0    0  0.12364796326E+02 -0.22377567170E+02 -0.18372599021E+03  0.22373285695E+03  0.12509000000E+03 0.  0.
<mgrwt>
<rscale>  2 0.45299965E+03</rscale>
<asrwt>0</asrwt>
<pdfrwt beam="1">  1       21 0.14720549E-01 0.45299965E+03</pdfrwt>
<pdfrwt beam="2">  1       21 0.75369202E-01 0.45299965E+03</pdfrwt>
<totfact> 0.58832726E+04</totfact>
</mgrwt>
</event>
<event>
 7    0  0.4766352E-002  0.4761654E+03  0.7546771E-02  0.1020194E+00
         21   -1    0    0  502  501  0.00000000000E+00  0.00000000000E+00  0.10534391166E+03  0.10534391166E+03  0.00000000000E+00 0.  1.
         21   -1    0    0  501  502 -0.00000000000E+00 -0.00000000000E+00 -0.53807921458E+03  0.53807921458E+03  0.00000000000E+00 0.  1.
      99926    2    1    2    0    0  0.00000000000E+00  0.00000000000E+00 -0.43273530292E+03  0.64342312624E+03  0.47616538827E+03 0.  0.
      99925    2    3    3    0    0  0.15573682324E+02  0.79565849363E+02 -0.12668217750E+03  0.30299796905E+03  0.26303256678E+03 0.  0.
         25    1    3    3    0    0 -0.15573682324E+02 -0.79565849363E+02 -0.30605312542E+03  0.34042515719E+03  0.12509000000E+03 0.  0.
         25    1    4    4    0    0  0.17323784088E+02  0.79872336582E+01 -0.31905370370E+02  0.13049662890E+03  0.12509000000E+03 0.  0.
         25    1    4    4    0    0 -0.17501017646E+01  0.71578615705E+02 -0.94776807126E+02  0.17250134014E+03  0.12509000000E+03 0.  0.
<mgrwt>
<rscale>  2 0.47616539E+03</rscale>
<asrwt>0</asrwt>
<pdfrwt beam="1">  1       21 0.15491752E-01 0.47616539E+03</pdfrwt>
<pdfrwt beam="2">  1       21 0.79129294E-01 0.47616539E+03</pdfrwt>
<totfact> 0.47615796E+04</totfact>
</mgrwt>
</event>
<event>
 7    0  0.4766352E-002  0.4615084E+03  0.7546771E-02  0.1024345E+00
         21   -1    0    0  502  501  0.00000000000E+00  0.00000000000E+00  0.11038328282E+03  0.11038328282E+03  0.00000000000E+00 0. -1.
         21   -1    0    0  501  502 -0.00000000000E+00 -0.00000000000E+00 -0.48238731943E+03  0.48238731943E+03  0.00000000000E+00 0. -1.
      99926    2    1    2    0    0  0.71054273576E-14  0.14210854715E-13 -0.37200403661E+03  0.59277060225E+03  0.46150837873E+03 0.  0.
      99925    2    3    3    0    0 -0.38004825014E+02 -0.85677004737E+02 -0.32729628677E+03  0.43019383004E+03  0.26298090464E+03 0.  0.
         25    1    3    3    0    0  0.38004825014E+02  0.85677004737E+02 -0.44707749837E+02  0.16257677220E+03  0.12509000000E+03 0.  0.
         25    1    4    4    0    0 -0.14136726024E+02 -0.84744701472E+02 -0.18310884213E+03  0.23781898078E+03  0.12509000000E+03 0.  0.
         25    1    4    4    0    0 -0.23868098990E+02 -0.93230326506E+00 -0.14418744464E+03  0.19237484927E+03  0.12509000000E+03 0.  0.
<mgrwt>
<rscale>  2 0.46150838E+03</rscale>
<asrwt>0</asrwt>
<pdfrwt beam="1">  1       21 0.16232835E-01 0.46150838E+03</pdfrwt>
<pdfrwt beam="2">  1       21 0.70939313E-01 0.46150838E+03</pdfrwt>
<totfact> 0.56179547E+04</totfact>
</mgrwt>
</event>
<event>
 7    0  0.4766352E-002  0.4612599E+03  0.7546771E-02  0.1024416E+00
         21   -1    0    0  502  501  0.00000000000E+00  0.00000000000E+00  0.51494595809E+03  0.51494595809E+03  0.00000000000E+00 0.  1.
         21   -1    0    0  501  502 -0.00000000000E+00 -0.00000000000E+00 -0.10329273049E+03  0.10329273049E+03  0.00000000000E+00 0.  1.
      99926    2    1    2    0    0 -0.71054273576E-14  0.00000000000E+00  0.41165322760E+03  0.61823868858E+03  0.46125990099E+03 0.  0.
      99925    2    3    3    0    0  0.60706765047E+02 -0.81598143478E+02  0.33960557680E+03  0.44165459975E+03  0.26340704119E+03 0.  0.
         25    1    4    4    0    0  0.65594183701E+02 -0.66022172890E+02  0.17764464486E+03  0.23636127473E+03  0.12509000000E+03 0.  0.
         25    1    4    4    0    0 -0.48874186539E+01 -0.15575970587E+02  0.16196093195E+03  0.20529332502E+03  0.12509000000E+03 0.  0.
         25    1    3    3    0    0 -0.60706765047E+02  0.81598143478E+02  0.72047650803E+02  0.17658408883E+03  0.12509000000E+03 0.  0.
<mgrwt>
<rscale>  2 0.46125990E+03</rscale>
<asrwt>0</asrwt>
<pdfrwt beam="1">  1       21 0.75727345E-01 0.46125990E+03</pdfrwt>
<pdfrwt beam="2">  1       21 0.15190108E-01 0.46125990E+03</pdfrwt>
<totfact> 0.54809218E+04</totfact>
</mgrwt>
</event>
<event>
 7    0  0.4766352E-002  0.4512724E+03  0.7546771E-02  0.1027343E+00
         21   -1    0    0  502  501  0.00000000000E+00  0.00000000000E+00  0.34035179432E+02  0.34035179432E+02  0.00000000000E+00 0. -1.
         21   -1    0    0  501  502 -0.00000000000E+00 -0.00000000000E+00 -0.14958552875E+04  0.14958552875E+04  0.00000000000E+00 0. -1.
      99926    2    1    2    0    0  0.00000000000E+00 -0.53290705182E-14 -0.14618201081E+04  0.15298904670E+04  0.45127243708E+03 0.  0.
      99925    2    3    3    0    0  0.99280479793E+02  0.11845115406E+02 -0.77035989194E+03  0.82012877523E+03  0.26298274548E+03 0.  0.
         25    1    4    4    0    0  0.38240204558E+02  0.37470286554E+02 -0.44456191130E+03  0.46491841940E+03  0.12509000000E+03 0.  0.
         25    1    3    3    0    0 -0.99280479793E+02 -0.11845115406E+02 -0.69146021617E+03  0.70976169174E+03  0.12509000000E+03 0.  0.
         25    1    4    4    0    0  0.61040275236E+02 -0.25625171148E+02 -0.32579798065E+03  0.35521035583E+03  0.12509000000E+03 0.  0.
<mgrwt>
<rscale>  2 0.45127244E+03</rscale>
<asrwt>0</asrwt>
<pdfrwt beam="1">  1       21 0.50051720E-02 0.45127244E+03</pdfrwt>
<pdfrwt beam="2">  1       21 0.21997878E+00 0.45127244E+03</pdfrwt>
<totfact> 0.23735739E+04</totfact>
</mgrwt>
</event>
<event>
 7    0  0.4766352E-002  0.4671814E+03  0.7546771E-02  0.1022719E+00
         21   -1    0    0  502  501  0.00000000000E+00  0.00000000000E+00  0.39910978226E+02  0.39910978226E+02  0.00000000000E+00 0. -1.
         21   -1    0    0  501  502 -0.00000000000E+00 -0.00000000000E+00 -0.13671580046E+04  0.13671580046E+04  0.00000000000E+00 0. -1.
      99926    2    1    2    0    0  0.00000000000E+00  0.00000000000E+00 -0.13272470263E+04  0.14070689828E+04  0.46718139240E+03 0.  0.
      99925    2    3    3    0    0  0.65977131566E+02 -0.18591585320E+02 -0.11380435502E+04  0.11701215362E+04  0.26332994237E+03 0.  0.
         25    1    3    3    0    0 -0.65977131566E+02  0.18591585320E+02 -0.18920347617E+03  0.23694744656E+03  0.12509000000E+03 0.  0.
         25    1    4    4    0    0  0.13397584819E+02 -0.11421419777E+02 -0.70605942381E+03  0.71727077325E+03  0.12509000000E+03 0.  0.
         25    1    4    4    0    0  0.52579546747E+02 -0.71701655426E+01 -0.43198412636E+03  0.45285076298E+03  0.12509000000E+03 0.  0.
<mgrwt>
<rscale>  2 0.46718139E+03</rscale>
<asrwt>0</asrwt>
<pdfrwt beam="1">  1       21 0.58692629E-02 0.46718139E+03</pdfrwt>
<pdfrwt beam="2">  1       21 0.20105260E+00 0.46718139E+03</pdfrwt>
<totfact> 0.23809420E+04</totfact>
</mgrwt>
</event>
<event>
 7    0  0.4766352E-002  0.4515819E+03  0.7546771E-02  0.1027251E+00
         21   -1    0    0  502  501  0.00000000000E+00  0.00000000000E+00  0.19164751336E+03  0.19164751336E+03  0.00000000000E+00 0.  1.
         21   -1    0    0  501  502 -0.00000000000E+00 -0.00000000000E+00 -0.26601724748E+03  0.26601724748E+03  0.00000000000E+00 0.  1.
      99926    2    1    2    0    0  0.00000000000E+00  0.66613381478E-15 -0.74369734119E+02  0.45766476084E+03  0.45158185965E+03 0.  0.
      99925    2    3    3    0    0  0.37060008971E+02  0.12823385367E+01  0.57856744762E+02  0.27190567365E+03  0.26307832254E+03 0.  0.
         25    1    3    3    0    0 -0.37060008971E+02 -0.12823385367E+01 -0.13222647888E+03  0.18575908719E+03  0.12509000000E+03 0.  0.
         25    1    4    4    0    0  0.36680874083E+02 -0.21639574295E+02 -0.11790644783E+00  0.13214113554E+03  0.12509000000E+03 0.  0.
         25    1    4    4    0    0  0.37913488828E+00  0.22921912832E+02  0.57974651209E+02  0.13976453811E+03  0.12509000000E+03 0.  0.
<mgrwt>
<rscale>  2 0.45158186E+03</rscale>
<asrwt>0</asrwt>
<pdfrwt beam="1">  1       21 0.28183458E-01 0.45158186E+03</pdfrwt>
<pdfrwt beam="2">  1       21 0.39120183E-01 0.45158186E+03</pdfrwt>
<totfact> 0.70246352E+04</totfact>
</mgrwt>
</event>
<event>
 7    0  0.4766352E-002  0.4673283E+03  0.7546771E-02  0.1022677E+00
         21   -1    0    0  502  501  0.00000000000E+00  0.00000000000E+00  0.10264855432E+03  0.10264855432E+03  0.00000000000E+00 0.  1.
         21   -1    0    0  501  502 -0.00000000000E+00 -0.00000000000E+00 -0.53190162218E+03  0.53190162218E+03  0.00000000000E+00 0.  1.
      99926    2    1    2    0    0  0.00000000000E+00  0.00000000000E+00 -0.42925306787E+03  0.63455017650E+03  0.46732828956E+03 0.  0.
      99925    2    3    3    0    0 -0.91373111702E+02  0.83681145732E+02 -0.28005858944E+03  0.40377305418E+03  0.26315069080E+03 0.  0.
         25    1    4    4    0    0 -0.26743257956E+02  0.78030183483E+02 -0.14986440762E+03  0.21192158963E+03  0.12509000000E+03 0.  0.
         25    1    4    4    0    0 -0.64629853746E+02  0.56509622492E+01 -0.13019418182E+03  0.19185146455E+03  0.12509000000E+03 0.  0.
         25    1    3    3    0    0  0.91373111702E+02 -0.83681145732E+02 -0.14919447842E+03  0.23077712232E+03  0.12509000000E+03 0.  0.
<mgrwt>
<rscale>  2 0.46732829E+03</rscale>
<asrwt>0</asrwt>
<pdfrwt beam="1">  1       21 0.15095376E-01 0.46732829E+03</pdfrwt>
<pdfrwt beam="2">  1       21 0.78220827E-01 0.46732829E+03</pdfrwt>
<totfact> 0.51411647E+04</totfact>
</mgrwt>
</event>
<event>
 7    0  0.4766352E-002  0.4567831E+03  0.7546771E-02  0.1025718E+00
         21   -1    0    0  502  501  0.00000000000E+00  0.00000000000E+00  0.27972691028E+03  0.27972691028E+03  0.00000000000E+00 0. -1.
         21   -1    0    0  501  502 -0.00000000000E+00 -0.00000000000E+00 -0.18647725945E+03  0.18647725945E+03  0.00000000000E+00 0. -1.
      99926    2    1    2    0    0  0.00000000000E+00  0.00000000000E+00  0.93249650828E+02  0.46620416973E+03  0.45678313289E+03 0.  0.
      99925    2    3    3    0    0 -0.12730092163E+02  0.10978994245E+03  0.90316345943E+02  0.29925507842E+03  0.26302219090E+03 0.  0.
         25    1    3    3    0    0  0.12730092163E+02 -0.10978994245E+03  0.29333048851E+01  0.16694909130E+03  0.12509000000E+03 0.  0.
         25    1    4    4    0    0 -0.28424117276E+02  0.60193527859E+02  0.10666974883E+02  0.14210025930E+03  0.12509000000E+03 0.  0.
         25    1    4    4    0    0  0.15694025113E+02  0.49596414591E+02  0.79649371059E+02  0.15715481913E+03  0.12509000000E+03 0.  0.
<mgrwt>
<rscale>  2 0.45678313E+03</rscale>
<asrwt>0</asrwt>
<pdfrwt beam="1">  1       21 0.41136310E-01 0.45678313E+03</pdfrwt>
<pdfrwt beam="2">  1       21 0.27423126E-01 0.45678313E+03</pdfrwt>
<totfact> 0.66769521E+04</totfact>
</mgrwt>
</event>
<event>
 7    0  0.4766352E-002  0.4593893E+03  0.7546771E-02  0.1024958E+00
         21   -1    0    0  502  501  0.00000000000E+00  0.00000000000E+00  0.15200478724E+04  0.15200478724E+04  0.00000000000E+00 0. -1.
         21   -1    0    0  501  502 -0.00000000000E+00 -0.00000000000E+00 -0.34709188802E+02  0.34709188802E+02  0.00000000000E+00 0. -1.
      99926    2    1    2    0    0  0.00000000000E+00  0.00000000000E+00  0.14853386836E+04  0.15547570612E+04  0.45938928411E+03 0.  0.
      99925    2    3    3    0    0  0.79914233766E+02  0.85646591740E+02  0.94258491003E+03  0.98559031037E+03  0.26305954427E+03 0.  0.
         25    1    4    4    0    0  0.31594756604E+02  0.67483500276E+02  0.59591912777E+03  0.61344874798E+03  0.12509000000E+03 0.  0.
         25    1    4    4    0    0  0.48319477162E+02  0.18163091464E+02  0.34666578226E+03  0.37214156239E+03  0.12509000000E+03 0.  0.
         25    1    3    3    0    0 -0.79914233766E+02 -0.85646591740E+02  0.54275377352E+03  0.56916675079E+03  0.12509000000E+03 0.  0.
<mgrwt>
<rscale>  2 0.45938928E+03</rscale>
<asrwt>0</asrwt>
<pdfrwt beam="1">  1       21 0.22353641E+00 0.45938928E+03</pdfrwt>
<pdfrwt beam="2">  1       21 0.51042935E-02 0.45938928E+03</pdfrwt>
<totfact> 0.21718658E+04</totfact>
</mgrwt>
</event>
<event>
 7    0  0.4766352E-002  0.4080872E+03  0.7546771E-02  0.1041015E+00
         21   -1    0    0  502  501  0.00000000000E+00  0.00000000000E+00  0.27322532364E+02  0.27322532364E+02  0.00000000000E+00 0. -1.
         21   -1    0    0  501  502 -0.00000000000E+00 -0.00000000000E+00 -0.15237895046E+04  0.15237895046E+04  0.00000000000E+00 0. -1.
      99926    2    1    2    0    0  0.00000000000E+00  0.35527136788E-14 -0.14964669722E+04  0.15511120370E+04  0.40808718703E+03 0.  0.
      99925    2    3    3    0    0 -0.31191548283E+02  0.26243130466E+02 -0.82578664440E+03  0.86764936437E+03  0.26311636750E+03 0.  0.
         25    1    4    4    0    0  0.22722885296E+02  0.29762944487E+01 -0.43140732898E+03  0.44976102482E+03  0.12509000000E+03 0.  0.
         25    1    3    3    0    0  0.31191548283E+02 -0.26243130466E+02 -0.67068032783E+03  0.68346267258E+03  0.12509000000E+03 0.  0.
         25    1    4    4    0    0 -0.53914433579E+02  0.23266836017E+02 -0.39437931542E+03  0.41788833956E+03  0.12509000000E+03 0.  0.
<mgrwt>
<rscale>  2 0.40808719E+03</rscale>
<asrwt>0</asrwt>
<pdfrwt beam="1">  1       21 0.40180189E-02 0.40808719E+03</pdfrwt>
<pdfrwt beam="2">  1       21 0.22408672E+00 0.40808719E+03</pdfrwt>
<totfact> 0.33055464E+04</totfact>
</mgrwt>
</event>
<event>
 7    0  0.4766352E-002  0.4573262E+03  0.7546771E-02  0.1025560E+00
         21   -1    0    0  502  501  0.00000000000E+00  0.00000000000E+00  0.39555871441E+03  0.39555871441E+03  0.00000000000E+00 0. -1.
         21   -1    0    0  501  502 -0.00000000000E+00 -0.00000000000E+00 -0.13218472683E+03  0.13218472683E+03  0.00000000000E+00 0. -1.
      99926    2    1    2    0    0  0.00000000000E+00  0.00000000000E+00  0.26337398758E+03  0.52774344124E+03  0.45732623196E+03 0.  0.
      99925    2    3    3    0    0 -0.57416795128E+02  0.60139089073E+02  0.25742590750E+03  0.37742283003E+03  0.26318528906E+03 0.  0.
         25    1    3    3    0    0  0.57416795128E+02 -0.60139089073E+02  0.59480800718E+01  0.15032061121E+03  0.12509000000E+03 0.  0.
         25    1    4    4    0    0 -0.70598539044E+01  0.59143367703E+02  0.15631314396E+03  0.20887576823E+03  0.12509000000E+03 0.  0.
         25    1    4    4    0    0 -0.50356941224E+02  0.99572136942E+00  0.10111276355E+03  0.16854706180E+03  0.12509000000E+03 0.  0.
<mgrwt>
<rscale>  2 0.45732623E+03</rscale>
<asrwt>0</asrwt>
<pdfrwt beam="1">  1       21 0.58170399E-01 0.45732623E+03</pdfrwt>
<pdfrwt beam="2">  1       21 0.19438931E-01 0.45732623E+03</pdfrwt>
<totfact> 0.62204569E+04</totfact>
</mgrwt>
</event>
<event>
 7    0  0.4766352E-002  0.4553619E+03  0.7546771E-02  0.1026135E+00
         21   -1    0    0  502  501  0.00000000000E+00  0.00000000000E+00  0.78441623714E+02  0.78441623714E+02  0.00000000000E+00 0. -1.
         21   -1    0    0  501  502 -0.00000000000E+00 -0.00000000000E+00 -0.66085602454E+03  0.66085602454E+03  0.00000000000E+00 0. -1.
      99926    2    1    2    0    0  0.00000000000E+00  0.00000000000E+00 -0.58241440082E+03  0.73929764825E+03  0.45536192026E+03 0.  0.
      99925    2    3    3    0    0  0.43863187232E+02 -0.92166673721E+02 -0.44720583945E+03  0.52870909655E+03  0.26290981533E+03 0.  0.
         25    1    4    4    0    0  0.35232890495E+02 -0.62252510783E+02 -0.30150377885E+03  0.33416877238E+03  0.12509000000E+03 0.  0.
         25    1    3    3    0    0 -0.43863187232E+02  0.92166673721E+02 -0.13520856138E+03  0.21058855170E+03  0.12509000000E+03 0.  0.
         25    1    4    4    0    0  0.86302967369E+01 -0.29914162938E+02 -0.14570206060E+03  0.19454032417E+03  0.12509000000E+03 0.  0.
<mgrwt>
<rscale>  2 0.45536192E+03</rscale>
<asrwt>0</asrwt>
<pdfrwt beam="1">  1       21 0.11535533E-01 0.45536192E+03</pdfrwt>
<pdfrwt beam="2">  1       21 0.97184710E-01 0.45536192E+03</pdfrwt>
<totfact> 0.50676402E+04</totfact>
</mgrwt>
</event>
<event>
 7    0  0.4766352E-002  0.4545496E+03  0.7546771E-02  0.1026374E+00
         21   -1    0    0  502  501  0.00000000000E+00  0.00000000000E+00  0.33960456939E+03  0.33960456939E+03  0.00000000000E+00 0. -1.
         21   -1    0    0  501  502 -0.00000000000E+00 -0.00000000000E+00 -0.15209991502E+03  0.15209991502E+03  0.00000000000E+00 0. -1.
      99926    2    1    2    0    0  0.00000000000E+00 -0.14210854715E-13  0.18750465438E+03  0.49170448441E+03  0.45454956229E+03 0.  0.
      99925    2    3    3    0    0 -0.52163985509E+02 -0.86009058494E+02  0.62952219125E+02  0.28853101972E+03  0.26299910251E+03 0.  0.
         25    1    3    3    0    0  0.52163985509E+02  0.86009058494E+02  0.12455243525E+03  0.20317346469E+03  0.12509000000E+03 0.  0.
         25    1    4    4    0    0  0.71804224367E+01 -0.25167677119E+02  0.48183775472E+02  0.13658021364E+03  0.12509000000E+03 0.  0.
         25    1    4    4    0    0 -0.59344407946E+02 -0.60841381375E+02  0.14768443654E+02  0.15195080609E+03  0.12509000000E+03 0.  0.
<mgrwt>
<rscale>  2 0.45454956E+03</rscale>
<asrwt>0</asrwt>
<pdfrwt beam="1">  1       21 0.49941849E-01 0.45454956E+03</pdfrwt>
<pdfrwt beam="2">  1       21 0.22367635E-01 0.45454956E+03</pdfrwt>
<totfact> 0.66093487E+04</totfact>
</mgrwt>
</event>
<event>
 7    0  0.4766352E-002  0.4518397E+03  0.7546771E-02  0.1027175E+00
         21   -1    0    0  502  501  0.00000000000E+00  0.00000000000E+00  0.11175856701E+03  0.11175856701E+03  0.00000000000E+00 0.  1.
         21   -1    0    0  501  502 -0.00000000000E+00 -0.00000000000E+00 -0.45669669154E+03  0.45669669154E+03  0.00000000000E+00 0.  1.
      99926    2    1    2    0    0  0.17763568394E-14  0.00000000000E+00 -0.34493812453E+03  0.56845525855E+03  0.45183965212E+03 0.  0.
      99925    2    3    3    0    0  0.86413051683E+01  0.54982857064E+02 -0.97149384946E+02  0.28535712311E+03  0.26247456637E+03 0.  0.
         25    1    4    4    0    0 -0.22104125886E+02  0.54089478434E+00 -0.60993691666E+02  0.14091353190E+03  0.12509000000E+03 0.  0.
         25    1    3    3    0    0 -0.86413051683E+01 -0.54982857064E+02 -0.24778873958E+03  0.28309813544E+03  0.12509000000E+03 0.  0.
         25    1    4    4    0    0  0.30745431055E+02  0.54441962279E+02 -0.36155693280E+02  0.14444359122E+03  0.12509000000E+03 0.  0.
<mgrwt>
<rscale>  2 0.45183965E+03</rscale>
<asrwt>0</asrwt>
<pdfrwt beam="1">  1       21 0.16435084E-01 0.45183965E+03</pdfrwt>
<pdfrwt beam="2">  1       21 0.67161276E-01 0.45183965E+03</pdfrwt>
<totfact> 0.62203283E+04</totfact>
</mgrwt>
</event>
<event>
 7    0  0.4766352E-002  0.4552177E+03  0.7546771E-02  0.1026177E+00
         21   -1    0    0  502  501  0.00000000000E+00  0.00000000000E+00  0.90669868596E+02  0.90669868596E+02  0.00000000000E+00 0.  1.
         21   -1    0    0  501  502 -0.00000000000E+00 -0.00000000000E+00 -0.57136723028E+03  0.57136723028E+03  0.00000000000E+00 0.  1.
      99926    2    1    2    0    0  0.88817841970E-15  0.00000000000E+00 -0.48069736168E+03  0.66203709887E+03  0.45521771358E+03 0.  0.
      99925    2    3    3    0    0 -0.72660082200E+01 -0.10520046940E+03 -0.24143647322E+03  0.37218676770E+03  0.26289063469E+03 0.  0.
         25    1    4    4    0    0 -0.15367708735E+02 -0.13961975601E+02 -0.90294298674E+02  0.15566525530E+03  0.12509000000E+03 0.  0.
         25    1    4    4    0    0  0.81017005154E+01 -0.91238493802E+02 -0.15114217455E+03  0.21652151240E+03  0.12509000000E+03 0.  0.
         25    1    3    3    0    0  0.72660082200E+01  0.10520046940E+03 -0.23926088846E+03  0.28985033118E+03  0.12509000000E+03 0.  0.
<mgrwt>
<rscale>  2 0.45521771E+03</rscale>
<asrwt>0</asrwt>
<pdfrwt beam="1">  1       21 0.13333804E-01 0.45521771E+03</pdfrwt>
<pdfrwt beam="2">  1       21 0.84024593E-01 0.45521771E+03</pdfrwt>
<totfact> 0.54918325E+04</totfact>
</mgrwt>
</event>
<event>
 7    0  0.4766352E-002  0.4529071E+03  0.7546771E-02  0.1026859E+00
         21   -1    0    0  502  501  0.00000000000E+00  0.00000000000E+00  0.51364054314E+02  0.51364054314E+02  0.00000000000E+00 0.  1.
         21   -1    0    0  501  502 -0.00000000000E+00 -0.00000000000E+00 -0.99838726779E+03  0.99838726779E+03  0.00000000000E+00 0.  1.
      99926    2    1    2    0    0  0.14210854715E-13  0.00000000000E+00 -0.94702321348E+03  0.10497513221E+04  0.45290713330E+03 0.  0.
      99925    2    3    3    0    0  0.78473630730E+02 -0.78337530709E+02 -0.61260759252E+03  0.67588477495E+03  0.26312979148E+03 0.  0.
         25    1    4    4    0    0  0.76452150694E+02 -0.42404985423E+02 -0.37689238271E+03  0.40661835962E+03  0.12509000000E+03 0.  0.
         25    1    3    3    0    0 -0.78473630730E+02  0.78337530709E+02 -0.33441562096E+03  0.37386654715E+03  0.12509000000E+03 0.  0.
         25    1    4    4    0    0  0.20214800357E+01 -0.35932545286E+02 -0.23571520981E+03  0.26926641533E+03  0.12509000000E+03 0.  0.
<mgrwt>
<rscale>  2 0.45290713E+03</rscale>
<asrwt>0</asrwt>
<pdfrwt beam="1">  1       21 0.75535378E-02 0.45290713E+03</pdfrwt>
<pdfrwt beam="2">  1       21 0.14682165E+00 0.45290713E+03</pdfrwt>
<totfact> 0.37901878E+04</totfact>
</mgrwt>
</event>
<event>
 7    0  0.4766352E-002  0.4557035E+03  0.7546771E-02  0.1026035E+00
         21   -1    0    0  502  501  0.00000000000E+00  0.00000000000E+00  0.98795431288E+03  0.98795431288E+03  0.00000000000E+00 0.  1.
         21   -1    0    0  501  502 -0.00000000000E+00 -0.00000000000E+00 -0.52549410432E+02  0.52549410432E+02  0.00000000000E+00 0.  1.
      99926    2    1    2    0    0  0.35527136788E-14  0.00000000000E+00  0.93540490245E+03  0.10405037233E+04  0.45570348551E+03 0.  0.
      99925    2    3    3    0    0 -0.20133055827E+02 -0.99558798387E+02  0.46958987732E+03  0.54760572169E+03  0.26275478924E+03 0.  0.
         25    1    4    4    0    0 -0.17506028263E+02 -0.60667920476E+02  0.16787588077E+03  0.21867070459E+03  0.12509000000E+03 0.  0.
         25    1    3    3    0    0  0.20133055827E+02  0.99558798387E+02  0.46581502513E+03  0.49289800163E+03  0.12509000000E+03 0.  0.
         25    1    4    4    0    0 -0.26270275640E+01 -0.38890877911E+02  0.30171399655E+03  0.32893501710E+03  0.12509000000E+03 0.  0.
<mgrwt>
<rscale>  2 0.45570349E+03</rscale>
<asrwt>0</asrwt>
<pdfrwt beam="1">  1       21 0.14528739E+00 0.45570349E+03</pdfrwt>
<pdfrwt beam="2">  1       21 0.77278551E-02 0.45570349E+03</pdfrwt>
<totfact> 0.37421860E+04</totfact>
</mgrwt>
</event>
<event>
 7    0  0.4766352E-002  0.4586765E+03  0.7546771E-02  0.1025166E+00
         21   -1    0    0  502  501  0.00000000000E+00  0.00000000000E+00  0.93133475283E+02  0.93133475283E+02  0.00000000000E+00 0.  1.
         21   -1    0    0  501  502 -0.00000000000E+00 -0.00000000000E+00 -0.56473814033E+03  0.56473814033E+03  0.00000000000E+00 0.  1.
      99926    2    1    2    0    0  0.00000000000E+00  0.00000000000E+00 -0.47160466504E+03  0.65787161561E+03  0.45867646826E+03 0.  0.
      99925    2    3    3    0    0  0.73121125032E+02 -0.32798945098E+02 -0.17436672350E+03  0.32557600667E+03  0.26300857806E+03 0.  0.
         25    1    4    4    0    0  0.92293445777E+01 -0.45236749544E+02 -0.74036167439E+02  0.15251362726E+03  0.12509000000E+03 0.  0.
         25    1    4    4    0    0  0.63891780455E+02  0.12437804447E+02 -0.10033055606E+03  0.17306237942E+03  0.12509000000E+03 0.  0.
         25    1    3    3    0    0 -0.73121125032E+02  0.32798945098E+02 -0.29723794154E+03  0.33229560893E+03  0.12509000000E+03 0.  0.
<mgrwt>
<rscale>  2 0.45867647E+03</rscale>
<asrwt>0</asrwt>
<pdfrwt beam="1">  1       21 0.13696099E-01 0.45867647E+03</pdfrwt>
<pdfrwt beam="2">  1       21 0.83049726E-01 0.45867647E+03</pdfrwt>
<totfact> 0.53676784E+04</totfact>
</mgrwt>
</event>
<event>
 7    0  0.4766352E-002  0.4532423E+03  0.7546771E-02  0.1026760E+00
         21   -1    0    0  502  501  0.00000000000E+00  0.00000000000E+00  0.17812726943E+03  0.17812726943E+03  0.00000000000E+00 0.  1.
         21   -1    0    0  501  502 -0.00000000000E+00 -0.00000000000E+00 -0.28831717278E+03  0.28831717278E+03  0.00000000000E+00 0.  1.
      99926    2    1    2    0    0 -0.66613381478E-15 -0.35527136788E-14 -0.11018990335E+03  0.46644444221E+03  0.45324232246E+03 0.  0.
      99925    2    3    3    0    0  0.12974138928E+01 -0.27192466228E+02  0.41851393198E+02  0.26768534819E+03  0.26298819939E+03 0.  0.
         25    1    3    3    0    0 -0.12974138928E+01  0.27192466228E+02 -0.15204129655E+03  0.19875909403E+03  0.12509000000E+03 0.  0.
         25    1    4    4    0    0  0.35092640164E+02  0.98031945348E+00  0.48322785676E+01  0.13001274336E+03  0.12509000000E+03 0.  0.
         25    1    4    4    0    0 -0.33795226271E+02 -0.28172785682E+02  0.37019114630E+02  0.13767260483E+03  0.12509000000E+03 0.  0.
<mgrwt>
<rscale>  2 0.45324232E+03</rscale>
<asrwt>0</asrwt>
<pdfrwt beam="1">  1       21 0.26195187E-01 0.45324232E+03</pdfrwt>
<pdfrwt beam="2">  1       21 0.42399583E-01 0.45324232E+03</pdfrwt>
<totfact> 0.68653423E+04</totfact>
</mgrwt>
</event>
<event>
 7    0  0.4766352E-002  0.4540917E+03  0.7546771E-02  0.1026509E+00
         21   -1    0    0  502  501  0.00000000000E+00  0.00000000000E+00  0.23454138334E+03  0.23454138334E+03  0.00000000000E+00 0.  1.
         21   -1    0    0  501  502 -0.00000000000E+00 -0.00000000000E+00 -0.21978984655E+03  0.21978984655E+03  0.00000000000E+00 0.  1.
      99926    2    1    2    0    0 -0.14210854715E-13  0.00000000000E+00  0.14751536791E+02  0.45433122989E+03  0.45409168526E+03 0.  0.
      99925    2    3    3    0    0 -0.82609415858E+02  0.61226865127E+02  0.54277984442E+02  0.28764921897E+03  0.26310250660E+03 0.  0.
         25    1    4    4    0    0 -0.83983022669E+02  0.33568089014E+02  0.30142920491E+02  0.15727704363E+03  0.12509000000E+03 0.  0.
         25    1    4    4    0    0  0.13736068118E+01  0.27658776112E+02  0.24135063951E+02  0.13037217534E+03  0.12509000000E+03 0.  0.
         25    1    3    3    0    0  0.82609415858E+02 -0.61226865127E+02 -0.39526447651E+02  0.16668201092E+03  0.12509000000E+03 0.  0.
<mgrwt>
<rscale>  2 0.45409169E+03</rscale>
<asrwt>0</asrwt>
<pdfrwt beam="1">  1       21 0.34491380E-01 0.45409169E+03</pdfrwt>
<pdfrwt beam="2">  1       21 0.32322036E-01 0.45409169E+03</pdfrwt>
<totfact> 0.69094221E+04</totfact>
</mgrwt>
</event>
<event>
 7    0  0.4766352E-002  0.4547035E+03  0.7546771E-02  0.1026329E+00
         21   -1    0    0  502  501  0.00000000000E+00  0.00000000000E+00  0.87860472959E+03  0.87860472959E+03  0.00000000000E+00 0. -1.
         21   -1    0    0  501  502 -0.00000000000E+00 -0.00000000000E+00 -0.58830581908E+02  0.58830581908E+02  0.00000000000E+00 0. -1.
      99926    2    1    2    0    0  0.14210854715E-13  0.00000000000E+00  0.81977414768E+03  0.93743531150E+03  0.45470354082E+03 0.  0.
      99925    2    3    3    0    0 -0.80763840226E+02 -0.70108014666E+02  0.59047079429E+03  0.65518459390E+03  0.26300791160E+03 0.  0.
         25    1    4    4    0    0 -0.72135292964E+02 -0.59465331231E+02  0.28875021470E+03  0.32827400247E+03  0.12509000000E+03 0.  0.
         25    1    4    4    0    0 -0.86285472621E+01 -0.10642683436E+02  0.30172057960E+03  0.32691059143E+03  0.12509000000E+03 0.  0.
         25    1    3    3    0    0  0.80763840226E+02  0.70108014666E+02  0.22930335339E+03  0.28225071760E+03  0.12509000000E+03 0.  0.
<mgrwt>
<rscale>  2 0.45470354E+03</rscale>
<asrwt>0</asrwt>
<pdfrwt beam="1">  1       21 0.12920657E+00 0.45470354E+03</pdfrwt>
<pdfrwt beam="2">  1       21 0.86515567E-02 0.45470354E+03</pdfrwt>
<totfact> 0.41750537E+04</totfact>
</mgrwt>
</event>
<event>
 7    0  0.4766352E-002  0.4276177E+03  0.7546771E-02  0.1034615E+00
         21   -1    0    0  502  501  0.00000000000E+00  0.00000000000E+00  0.51546105027E+03  0.51546105027E+03  0.00000000000E+00 0.  1.
         21   -1    0    0  501  502 -0.00000000000E+00 -0.00000000000E+00 -0.88686097276E+02  0.88686097276E+02  0.00000000000E+00 0.  1.
      99926    2    1    2    0    0  0.17763568394E-14  0.71054273576E-14  0.42677495299E+03  0.60414714754E+03  0.42761772108E+03 0.  0.
      99925    2    3    3    0    0 -0.13207232523E+02  0.36998937549E+02  0.38256965768E+03  0.46578180288E+03  0.26277327212E+03 0.  0.
         25    1    3    3    0    0  0.13207232523E+02 -0.36998937549E+02  0.44205295305E+02  0.13836534466E+03  0.12509000000E+03 0.  0.
         25    1    4    4    0    0  0.12784112358E+02 -0.17180589521E+02  0.18083699945E+03  0.22092563150E+03  0.12509000000E+03 0.  0.
         25    1    4    4    0    0 -0.25991344881E+02  0.54179527070E+02  0.20173265824E+03  0.24485617138E+03  0.12509000000E+03 0.  0.
<mgrwt>
<rscale>  2 0.42761772E+03</rscale>
<asrwt>0</asrwt>
<pdfrwt beam="1">  1       21 0.75803094E-01 0.42761772E+03</pdfrwt>
<pdfrwt beam="2">  1       21 0.13042073E-01 0.42761772E+03</pdfrwt>
<totfact> 0.72972348E+04</totfact>
</mgrwt>
</event>
<event>
 7    0  0.4766352E-002  0.4233407E+03  0.7546771E-02  0.1035984E+00
         21   -1    0    0  502  501  0.00000000000E+00  0.00000000000E+00  0.28116525577E+03  0.28116525577E+03  0.00000000000E+00 0.  1.
         21   -1    0    0  501  502 -0.00000000000E+00 -0.00000000000E+00 -0.15935234111E+03  0.15935234111E+03  0.00000000000E+00 0.  1.
      99926    2    1    2    0    0 -0.14210854715E-13  0.00000000000E+00  0.12181291466E+03  0.44051759688E+03  0.42334072209E+03 0.  0.
      99925    2    3    3    0    0 -0.67813556664E+02  0.19421296112E+02  0.11800316328E+03  0.29685866915E+03  0.26310541176E+03 0.  0.
         25    1    4    4    0    0 -0.24099282098E+02 -0.19453113784E+02  0.27551333833E+02  0.13177929704E+03  0.12509000000E+03 0.  0.
         25    1    3    3    0    0  0.67813556664E+02 -0.19421296112E+02  0.38097513825E+01  0.14365892773E+03  0.12509000000E+03 0.  0.
         25    1    4    4    0    0 -0.43714274566E+02  0.38874409896E+02  0.90451829447E+02  0.16507937211E+03  0.12509000000E+03 0.  0.
<mgrwt>
<rscale>  2 0.42334072E+03</rscale>
<asrwt>0</asrwt>
<pdfrwt beam="1">  1       21 0.41347832E-01 0.42334072E+03</pdfrwt>
<pdfrwt beam="2">  1       21 0.23434168E-01 0.42334072E+03</pdfrwt>
<totfact> 0.90335047E+04</totfact>
</mgrwt>
</event>
<event>
 7    0  0.4766352E-002  0.4478912E+03  0.7546771E-02  0.1028353E+00
         21   -1    0    0  502  501  0.00000000000E+00  0.00000000000E+00  0.24329037381E+03  0.24329037381E+03  0.00000000000E+00 0.  1.
         21   -1    0    0  501  502 -0.00000000000E+00 -0.00000000000E+00 -0.20613902967E+03  0.20613902967E+03  0.00000000000E+00 0.  1.
      99926    2    1    2    0    0  0.00000000000E+00  0.00000000000E+00  0.37151344143E+02  0.44942940348E+03  0.44789124388E+03 0.  0.
      99925    2    3    3    0    0 -0.82198371975E+02  0.48755173783E+02  0.70789430681E+02  0.28845528043E+03  0.26279586372E+03 0.  0.
         25    1    4    4    0    0 -0.20683139138E+02  0.24371916235E+02 -0.24070104522E+01  0.12913204229E+03  0.12509000000E+03 0.  0.
         25    1    3    3    0    0  0.82198371975E+02 -0.48755173783E+02 -0.33638086538E+02  0.16097412305E+03  0.12509000000E+03 0.  0.
         25    1    4    4    0    0 -0.61515232836E+02  0.24383257548E+02  0.73196441134E+02  0.15932323815E+03  0.12509000000E+03 0.  0.
<mgrwt>
<rscale>  2 0.44789124E+03</rscale>
<asrwt>0</asrwt>
<pdfrwt beam="1">  1       21 0.35777996E-01 0.44789124E+03</pdfrwt>
<pdfrwt beam="2">  1       21 0.30314563E-01 0.44789124E+03</pdfrwt>
<totfact> 0.73009820E+04</totfact>
</mgrwt>
</event>
<event>
 7    0  0.4766352E-002  0.4567000E+03  0.7546771E-02  0.1025743E+00
         21   -1    0    0  502  501  0.00000000000E+00  0.00000000000E+00  0.14136741092E+03  0.14136741092E+03  0.00000000000E+00 0.  1.
         21   -1    0    0  501  502 -0.00000000000E+00 -0.00000000000E+00 -0.36885242975E+03  0.36885242975E+03  0.00000000000E+00 0.  1.
      99926    2    1    2    0    0  0.14210854715E-13  0.00000000000E+00 -0.22748501883E+03  0.51021984066E+03  0.45669995842E+03 0.  0.
      99925    2    3    3    0    0 -0.11350329942E+03 -0.15738834032E+02 -0.14702678062E+03  0.32246535717E+03  0.26312795838E+03 0.  0.
         25    1    4    4    0    0 -0.16392432393E+02  0.81346643844E+01 -0.73599724558E+02  0.14628503737E+03  0.12509000000E+03 0.  0.
         25    1    4    4    0    0 -0.97110867029E+02 -0.23873498417E+02 -0.73427056063E+02  0.17618031980E+03  0.12509000000E+03 0.  0.
         25    1    3    3    0    0  0.11350329942E+03  0.15738834032E+02 -0.80458238206E+02  0.18775448349E+03  0.12509000000E+03 0.  0.
<mgrwt>
<rscale>  2 0.45669996E+03</rscale>
<asrwt>0</asrwt>
<pdfrwt beam="1">  1       21 0.20789325E-01 0.45669996E+03</pdfrwt>
<pdfrwt beam="2">  1       21 0.54243005E-01 0.45669996E+03</pdfrwt>
<totfact> 0.63694790E+04</totfact>
</mgrwt>
</event>
<event>
 7    0  0.4766352E-002  0.4455710E+03  0.7546771E-02  0.1029051E+00
         21   -1    0    0  502  501  0.00000000000E+00  0.00000000000E+00  0.38772605411E+02  0.38772605411E+02  0.00000000000E+00 0.  1.
         21   -1    0    0  501  502 -0.00000000000E+00 -0.00000000000E+00 -0.12801144090E+04  0.12801144090E+04  0.00000000000E+00 0.  1.
      99926    2    1    2    0    0  0.00000000000E+00 -0.14210854715E-13 -0.12413418036E+04  0.13188870144E+04  0.44557096343E+03 0.  0.
      99925    2    3    3    0    0  0.61139943671E+02 -0.82201632809E+02 -0.73228233404E+03  0.78476694103E+03  0.26291925347E+03 0.  0.
         25    1    4    4    0    0  0.72021109207E+02 -0.45885750857E+02 -0.39077151679E+03  0.41909715906E+03  0.12509000000E+03 0.  0.
         25    1    3    3    0    0 -0.61139943671E+02  0.82201632809E+02 -0.50905946957E+03  0.53412007340E+03  0.12509000000E+03 0.  0.
         25    1    4    4    0    0 -0.10881165536E+02 -0.36315881952E+02 -0.34151081725E+03  0.36566978197E+03  0.12509000000E+03 0.  0.
<mgrwt>
<rscale>  2 0.44557096E+03</rscale>
<asrwt>0</asrwt>
<pdfrwt beam="1">  1       21 0.57018537E-02 0.44557096E+03</pdfrwt>
<pdfrwt beam="2">  1       21 0.18825212E+00 0.44557096E+03</pdfrwt>
<totfact> 0.30765776E+04</totfact>
</mgrwt>
</event>
<event>
 7    0  0.4766352E-002  0.4581053E+03  0.7546771E-02  0.1025332E+00
         21   -1    0    0  502  501  0.00000000000E+00  0.00000000000E+00  0.24218798068E+03  0.24218798068E+03  0.00000000000E+00 0. -1.
         21   -1    0    0  501  502 -0.00000000000E+00 -0.00000000000E+00 -0.21662976078E+03  0.21662976078E+03  0.00000000000E+00 0. -1.
      99926    2    1    2    0    0  0.00000000000E+00  0.00000000000E+00  0.25558219901E+02  0.45881774147E+03  0.45810533426E+03 0.  0.
      99925    2    3    3    0    0 -0.24534720890E+02 -0.10454039514E+03  0.59929343410E+02  0.29041486448E+03  0.26309431876E+03 0.  0.
         25    1    4    4    0    0 -0.19452410647E+00 -0.85542891143E+02  0.55848306836E+02  0.16150593036E+03  0.12509000000E+03 0.  0.
         25    1    4    4    0    0 -0.24340196783E+02 -0.18997503997E+02  0.40810365743E+01  0.12890893412E+03  0.12509000000E+03 0.  0.
         25    1    3    3    0    0  0.24534720890E+02  0.10454039514E+03 -0.34371123509E+02  0.16840287698E+03  0.12509000000E+03 0.  0.
<mgrwt>
<rscale>  2 0.45810533E+03</rscale>
<asrwt>0</asrwt>
<pdfrwt beam="1">  1       21 0.35615880E-01 0.45810533E+03</pdfrwt>
<pdfrwt beam="2">  1       21 0.31857317E-01 0.45810533E+03</pdfrwt>
<totfact> 0.66601498E+04</totfact>
</mgrwt>
</event>
<event>
 7    0  0.4766352E-002  0.4624085E+03  0.7546771E-02  0.1024085E+00
         21   -1    0    0  502  501  0.00000000000E+00  0.00000000000E+00  0.14395070724E+04  0.14395070724E+04  0.00000000000E+00 0.  1.
         21   -1    0    0  501  502 -0.00000000000E+00 -0.00000000000E+00 -0.37134522118E+02  0.37134522118E+02  0.00000000000E+00 0.  1.
      99926    2    1    2    0    0 -0.71054273576E-14  0.00000000000E+00  0.14023725503E+04  0.14766415946E+04  0.46240850866E+03 0.  0.
      99925    2    3    3    0    0  0.54490284659E+02 -0.10370698384E+03  0.79468458403E+03  0.84524908423E+03  0.26305531107E+03 0.  0.
         25    1    4    4    0    0  0.67593234008E+02 -0.64354424554E+02  0.41943734411E+03  0.44753271498E+03  0.12509000000E+03 0.  0.
         25    1    4    4    0    0 -0.13102949349E+02 -0.39352559284E+02  0.37524723992E+03  0.39771636925E+03  0.12509000000E+03 0.  0.
         25    1    3    3    0    0 -0.54490284659E+02  0.10370698384E+03  0.60768796630E+03  0.63139251033E+03  0.12509000000E+03 0.  0.
<mgrwt>
<rscale>  2 0.46240851E+03</rscale>
<asrwt>0</asrwt>
<pdfrwt beam="1">  1       21 0.21169218E+00 0.46240851E+03</pdfrwt>
<pdfrwt beam="2">  1       21 0.54609601E-02 0.46240851E+03</pdfrwt>
<totfact> 0.23004818E+04</totfact>
</mgrwt>
</event>
<event>
 7    0  0.4766352E-002  0.4359580E+03  0.7546771E-02  0.1031994E+00
         21   -1    0    0  502  501  0.00000000000E+00  0.00000000000E+00  0.23175161027E+03  0.23175161027E+03  0.00000000000E+00 0.  1.
         21   -1    0    0  501  502 -0.00000000000E+00 -0.00000000000E+00 -0.20502485237E+03  0.20502485237E+03  0.00000000000E+00 0.  1.
      99926    2    1    2    0    0 -0.71054273576E-14  0.00000000000E+00  0.26726757907E+02  0.43677646264E+03  0.43595797817E+03 0.  0.
      99925    2    3    3    0    0 -0.55108682974E+02  0.73467006875E+02 -0.40618665762E+01  0.27856832273E+03  0.26296281796E+03 0.  0.
         25    1    4    4    0    0 -0.41279504748E+02  0.52097924166E+01  0.20168192921E+02  0.13336192693E+03  0.12509000000E+03 0.  0.
         25    1    4    4    0    0 -0.13829178226E+02  0.68257214458E+02 -0.24230059497E+02  0.14520639579E+03  0.12509000000E+03 0.  0.
         25    1    3    3    0    0  0.55108682974E+02 -0.73467006875E+02  0.30788624483E+02  0.15820813992E+03  0.12509000000E+03 0.  0.
<mgrwt>
<rscale>  2 0.43595798E+03</rscale>
<asrwt>0</asrwt>
<pdfrwt beam="1">  1       21 0.34081119E-01 0.43595798E+03</pdfrwt>
<pdfrwt beam="2">  1       21 0.30150713E-01 0.43595798E+03</pdfrwt>
<totfact> 0.81614819E+04</totfact>
</mgrwt>
</event>
<event>
 7    0  0.4766352E-002  0.4512289E+03  0.7546771E-02  0.1027356E+00
         21   -1    0    0  502  501  0.00000000000E+00  0.00000000000E+00  0.27715536814E+03  0.27715536814E+03  0.00000000000E+00 0. -1.
         21   -1    0    0  501  502 -0.00000000000E+00 -0.00000000000E+00 -0.18365830932E+03  0.18365830932E+03  0.00000000000E+00 0. -1.
      99926    2    1    2    0    0 -0.44408920985E-15 -0.14210854715E-13  0.93497058825E+02  0.46081367746E+03  0.45122892785E+03 0.  0.
      99925    2    3    3    0    0 -0.21293524601E+01 -0.10609227157E+03  0.86971388952E+02  0.29664852678E+03  0.26301372914E+03 0.  0.
         25    1    3    3    0    0  0.21293524601E+01  0.10609227157E+03  0.65256698734E+01  0.16416515068E+03  0.12509000000E+03 0.  0.
         25    1    4    4    0    0 -0.21283661514E+02 -0.68098267882E+02  0.11452956242E+02  0.14446122886E+03  0.12509000000E+03 0.  0.
         25    1    4    4    0    0  0.19154309054E+02 -0.37994003689E+02  0.75518432710E+02  0.15218729793E+03  0.12509000000E+03 0.  0.
<mgrwt>
<rscale>  2 0.45122893E+03</rscale>
<asrwt>0</asrwt>
<pdfrwt beam="1">  1       21 0.40758142E-01 0.45122893E+03</pdfrwt>
<pdfrwt beam="2">  1       21 0.27008575E-01 0.45122893E+03</pdfrwt>
<totfact> 0.70202363E+04</totfact>
</mgrwt>
</event>
<event>
 7    0  0.4766352E-002  0.4575639E+03  0.7546771E-02  0.1025490E+00
         21   -1    0    0  502  501  0.00000000000E+00  0.00000000000E+00  0.13243310103E+04  0.13243310103E+04  0.00000000000E+00 0. -1.
         21   -1    0    0  501  502 -0.00000000000E+00 -0.00000000000E+00 -0.39522732400E+02  0.39522732400E+02  0.00000000000E+00 0. -1.
      99926    2    1    2    0    0  0.00000000000E+00  0.00000000000E+00  0.12848082779E+04  0.13638537427E+04  0.45756389774E+03 0.  0.
      99925    2    3    3    0    0  0.82402063348E+01 -0.11443770749E+02  0.11485822544E+04  0.11783708635E+04  0.26290271199E+03 0.  0.
         25    1    3    3    0    0 -0.82402063348E+01  0.11443770749E+02  0.13622602347E+03  0.18548287916E+03  0.12509000000E+03 0.  0.
         25    1    4    4    0    0  0.43011691360E+02 -0.16655114872E+02  0.57428740408E+03  0.58955994524E+03  0.12509000000E+03 0.  0.
         25    1    4    4    0    0 -0.34771485025E+02  0.52113441227E+01  0.57429485035E+03  0.58881091831E+03  0.12509000000E+03 0.  0.
<mgrwt>
<rscale>  2 0.45756390E+03</rscale>
<asrwt>0</asrwt>
<pdfrwt beam="1">  1       21 0.19475453E+00 0.45756390E+03</pdfrwt>
<pdfrwt beam="2">  1       21 0.58121674E-02 0.45756390E+03</pdfrwt>
<totfact> 0.26773832E+04</totfact>
</mgrwt>
</event>
<event>
 7    0  0.4766352E-002  0.4512122E+03  0.7546771E-02  0.1027361E+00
         21   -1    0    0  502  501  0.00000000000E+00  0.00000000000E+00  0.15121302815E+03  0.15121302815E+03  0.00000000000E+00 0. -1.
         21   -1    0    0  501  502 -0.00000000000E+00 -0.00000000000E+00 -0.33659875838E+03  0.33659875838E+03  0.00000000000E+00 0. -1.
      99926    2    1    2    0    0  0.00000000000E+00 -0.71054273576E-14 -0.18538573023E+03  0.48781178652E+03  0.45121222291E+03 0.  0.
      99925    2    3    3    0    0  0.81889614758E+02 -0.61757778721E+02 -0.15855489364E+03  0.32383820899E+03  0.26308097435E+03 0.  0.
         25    1    3    3    0    0 -0.81889614758E+02  0.61757778721E+02 -0.26830836588E+02  0.16397357754E+03  0.12509000000E+03 0.  0.
         25    1    4    4    0    0  0.79707278190E+02 -0.25524961829E+02 -0.67705795431E+02  0.16503441068E+03  0.12509000000E+03 0.  0.
         25    1    4    4    0    0  0.21823365678E+01 -0.36232816892E+02 -0.90849098208E+02  0.15880379831E+03  0.12509000000E+03 0.  0.
<mgrwt>
<rscale>  2 0.45121222E+03</rscale>
<asrwt>0</asrwt>
<pdfrwt beam="1">  1       21 0.22237210E-01 0.45121222E+03</pdfrwt>
<pdfrwt beam="2">  1       21 0.49499816E-01 0.45121222E+03</pdfrwt>
<totfact> 0.68162402E+04</totfact>
</mgrwt>
</event>
<event>
 7    0  0.4766352E-002  0.4624291E+03  0.7546771E-02  0.1024079E+00
         21   -1    0    0  502  501  0.00000000000E+00  0.00000000000E+00  0.16557226318E+04  0.16557226318E+04  0.00000000000E+00 0. -1.
         21   -1    0    0  501  502 -0.00000000000E+00 -0.00000000000E+00 -0.32288123000E+02  0.32288123000E+02  0.00000000000E+00 0. -1.
      99926    2    1    2    0    0 -0.35527136788E-14  0.00000000000E+00  0.16234345088E+04  0.16880107548E+04  0.46242913399E+03 0.  0.
      99925    2    3    3    0    0  0.25469084561E+02 -0.11493930777E+03  0.11005094027E+04  0.11375946455E+04  0.26294659760E+03 0.  0.
         25    1    3    3    0    0 -0.25469084561E+02  0.11493930777E+03  0.52292510609E+03  0.55041610934E+03  0.12509000000E+03 0.  0.
         25    1    4    4    0    0  0.52793276361E+02 -0.59159850387E+02  0.53902031403E+03  0.55899680229E+03  0.12509000000E+03 0.  0.
         25    1    4    4    0    0 -0.27324191800E+02 -0.55779457385E+02  0.56148908869E+03  0.57859784319E+03  0.12509000000E+03 0.  0.
<mgrwt>
<rscale>  2 0.46242913E+03</rscale>
<asrwt>0</asrwt>
<pdfrwt beam="1">  1       21 0.24348856E+00 0.46242913E+03</pdfrwt>
<pdfrwt beam="2">  1       21 0.47482545E-02 0.46242913E+03</pdfrwt>
<totfact> 0.18426219E+04</totfact>
</mgrwt>
</event>
<event>
 7    0  0.4766352E-002  0.4581605E+03  0.7546771E-02  0.1025316E+00
         21   -1    0    0  502  501  0.00000000000E+00  0.00000000000E+00  0.13994741456E+03  0.13994741456E+03  0.00000000000E+00 0.  1.
         21   -1    0    0  501  502 -0.00000000000E+00 -0.00000000000E+00 -0.37498191800E+03  0.37498191800E+03  0.00000000000E+00 0.  1.
      99926    2    1    2    0    0  0.00000000000E+00  0.00000000000E+00 -0.23503450344E+03  0.51492933257E+03  0.45816045195E+03 0.  0.
      99925    2    3    3    0    0 -0.53964756079E+01  0.49769171269E+02 -0.29730693100E+02  0.26936212181E+03  0.26299419423E+03 0.  0.
         25    1    3    3    0    0  0.53964756079E+01 -0.49769171269E+02 -0.20530381034E+03  0.24556721076E+03  0.12509000000E+03 0.  0.
         25    1    4    4    0    0 -0.10569480426E+02 -0.10829059869E+02 -0.32930073463E+02  0.13023394447E+03  0.12509000000E+03 0.  0.
         25    1    4    4    0    0  0.51730048177E+01  0.60598231138E+02  0.31993803634E+01  0.13912817734E+03  0.12509000000E+03 0.  0.
<mgrwt>
<rscale>  2 0.45816045E+03</rscale>
<asrwt>0</asrwt>
<pdfrwt beam="1">  1       21 0.20580502E-01 0.45816045E+03</pdfrwt>
<pdfrwt beam="2">  1       21 0.55144399E-01 0.45816045E+03</pdfrwt>
<totfact> 0.62648036E+04</totfact>
</mgrwt>
</event>
<event>
 7    0  0.4766352E-002  0.4539178E+03  0.7546771E-02  0.1026560E+00
         21   -1    0    0  502  501  0.00000000000E+00  0.00000000000E+00  0.11859470549E+03  0.11859470549E+03  0.00000000000E+00 0. -1.
         21   -1    0    0  501  502 -0.00000000000E+00 -0.00000000000E+00 -0.43433928917E+03  0.43433928917E+03  0.00000000000E+00 0. -1.
      99926    2    1    2    0    0  0.00000000000E+00  0.00000000000E+00 -0.31574458368E+03  0.55293399466E+03  0.45391779028E+03 0.  0.
      99925    2    3    3    0    0  0.10218552088E+03  0.17072002801E+02 -0.14571575844E+03  0.31779436919E+03  0.26272960410E+03 0.  0.
         25    1    4    4    0    0  0.76866992815E+02  0.15886656263E+02 -0.11323833276E+03  0.18609499869E+03  0.12509000000E+03 0.  0.
         25    1    3    3    0    0 -0.10218552088E+03 -0.17072002801E+02 -0.17002882524E+03  0.23513962548E+03  0.12509000000E+03 0.  0.
         25    1    4    4    0    0  0.25318528066E+02  0.11853465375E+01 -0.32477425682E+02  0.13169937049E+03  0.12509000000E+03 0.  0.
<mgrwt>
<rscale>  2 0.45391779E+03</rscale>
<asrwt>0</asrwt>
<pdfrwt beam="1">  1       21 0.17440398E-01 0.45391779E+03</pdfrwt>
<pdfrwt beam="2">  1       21 0.63873426E-01 0.45391779E+03</pdfrwt>
<totfact> 0.62203908E+04</totfact>
</mgrwt>
</event>
<event>
 7    0  0.4766352E-002  0.4331337E+03  0.7546771E-02  0.1032875E+00
         21   -1    0    0  502  501  0.00000000000E+00  0.00000000000E+00  0.35773501855E+03  0.35773501855E+03  0.00000000000E+00 0. -1.
         21   -1    0    0  501  502 -0.00000000000E+00 -0.00000000000E+00 -0.13110596035E+03  0.13110596035E+03  0.00000000000E+00 0. -1.
      99926    2    1    2    0    0 -0.17763568394E-14  0.00000000000E+00  0.22662905820E+03  0.48884097890E+03  0.43313366601E+03 0.  0.
      99925    2    3    3    0    0  0.83932383371E+01  0.90626127376E+02  0.14473427900E+03  0.31380439880E+03  0.26313807739E+03 0.  0.
         25    1    4    4    0    0  0.15626249676E+02  0.11224875966E+02  0.41936893381E+02  0.13332812399E+03  0.12509000000E+03 0.  0.
         25    1    3    3    0    0 -0.83932383371E+01 -0.90626127376E+02  0.81894779202E+02  0.17503658010E+03  0.12509000000E+03 0.  0.
         25    1    4    4    0    0 -0.72330113391E+01  0.79401251411E+02  0.10279738562E+03  0.18047627481E+03  0.12509000000E+03 0.  0.
<mgrwt>
<rscale>  2 0.43313367E+03</rscale>
<asrwt>0</asrwt>
<pdfrwt beam="1">  1       21 0.52608091E-01 0.43313367E+03</pdfrwt>
<pdfrwt beam="2">  1       21 0.19280288E-01 0.43313367E+03</pdfrwt>
<totfact> 0.78891151E+04</totfact>
</mgrwt>
</event>
<event>
 7    0  0.4766352E-002  0.4477489E+03  0.7546771E-02  0.1028395E+00
         21   -1    0    0  502  501  0.00000000000E+00  0.00000000000E+00  0.38803081063E+03  0.38803081063E+03  0.00000000000E+00 0. -1.
         21   -1    0    0  501  502 -0.00000000000E+00 -0.00000000000E+00 -0.12916442851E+03  0.12916442851E+03  0.00000000000E+00 0. -1.
      99926    2    1    2    0    0  0.00000000000E+00  0.14210854715E-13  0.25886638212E+03  0.51719523914E+03  0.44774893813E+03 0.  0.
      99925    2    3    3    0    0 -0.26356382275E+02 -0.95837975266E+02  0.20713287831E+03  0.34925644104E+03  0.26305219243E+03 0.  0.
         25    1    4    4    0    0 -0.25648570847E+02 -0.79238352414E+02  0.14408706955E+03  0.20819499848E+03  0.12509000000E+03 0.  0.
         25    1    4    4    0    0 -0.70781142782E+00 -0.16599622852E+02  0.63045808761E+02  0.14106144256E+03  0.12509000000E+03 0.  0.
         25    1    3    3    0    0  0.26356382275E+02  0.95837975266E+02  0.51733503807E+02  0.16793879810E+03  0.12509000000E+03 0.  0.
<mgrwt>
<rscale>  2 0.44774894E+03</rscale>
<asrwt>0</asrwt>
<pdfrwt beam="1">  1       21 0.57063354E-01 0.44774894E+03</pdfrwt>
<pdfrwt beam="2">  1       21 0.18994769E-01 0.44774894E+03</pdfrwt>
<totfact> 0.67901522E+04</totfact>
</mgrwt>
</event>
<event>
 7    0  0.4766352E-002  0.4443061E+03  0.7546771E-02  0.1029434E+00
         21   -1    0    0  502  501  0.00000000000E+00  0.00000000000E+00  0.64684975945E+02  0.64684975945E+02  0.00000000000E+00 0. -1.
         21   -1    0    0  501  502 -0.00000000000E+00 -0.00000000000E+00 -0.76295874214E+03  0.76295874214E+03  0.00000000000E+00 0. -1.
      99926    2    1    2    0    0  0.00000000000E+00  0.00000000000E+00 -0.69827376620E+03  0.82764371809E+03  0.44430605615E+03 0.  0.
      99925    2    3    3    0    0 -0.95684765572E+02  0.98794707003E+01 -0.51028665616E+03  0.58220566085E+03  0.26328270311E+03 0.  0.
         25    1    3    3    0    0  0.95684765572E+02 -0.98794707003E+01 -0.18798711004E+03  0.24543805724E+03  0.12509000000E+03 0.  0.
         25    1    4    4    0    0 -0.67164702659E+02  0.98259725139E+01 -0.19170166720E+03  0.23875653777E+03  0.12509000000E+03 0.  0.
         25    1    4    4    0    0 -0.28520062913E+02  0.53498186427E-01 -0.31858498897E+03  0.34344912308E+03  0.12509000000E+03 0.  0.
<mgrwt>
<rscale>  2 0.44430606E+03</rscale>
<asrwt>0</asrwt>
<pdfrwt beam="1">  1       21 0.95124963E-02 0.44430606E+03</pdfrwt>
<pdfrwt beam="2">  1       21 0.11219982E+00 0.44430606E+03</pdfrwt>
<totfact> 0.50567924E+04</totfact>
</mgrwt>
</event>
<event>
 7    0  0.4766352E-002  0.4649037E+03  0.7546771E-02  0.1023369E+00
         21   -1    0    0  502  501  0.00000000000E+00  0.00000000000E+00  0.50724817207E+03  0.50724817207E+03  0.00000000000E+00 0. -1.
         21   -1    0    0  501  502 -0.00000000000E+00 -0.00000000000E+00 -0.10652350679E+03  0.10652350679E+03  0.00000000000E+00 0. -1.
      99926    2    1    2    0    0 -0.14210854715E-13  0.14210854715E-13  0.40072466527E+03  0.61377167886E+03  0.46490366358E+03 0.  0.
      99925    2    3    3    0    0 -0.71039999324E+02  0.84987793374E+02  0.18173771763E+03  0.33832223184E+03  0.26298997703E+03 0.  0.
         25    1    3    3    0    0  0.71039999324E+02 -0.84987793374E+02  0.21898694764E+03  0.27544944702E+03  0.12509000000E+03 0.  0.
         25    1    4    4    0    0 -0.32633722827E+02  0.53333338304E+02  0.13874868213E+03  0.19699774042E+03  0.12509000000E+03 0.  0.
         25    1    4    4    0    0 -0.38406276496E+02  0.31654455070E+02  0.42989035509E+02  0.14132449142E+03  0.12509000000E+03 0.  0.
<mgrwt>
<rscale>  2 0.46490366E+03</rscale>
<asrwt>0</asrwt>
<pdfrwt beam="1">  1       21 0.74595318E-01 0.46490366E+03</pdfrwt>
<pdfrwt beam="2">  1       21 0.15665222E-01 0.46490366E+03</pdfrwt>
<totfact> 0.53526903E+04</totfact>
</mgrwt>
</event>
<event>
 7    0  0.4766352E-002  0.4615337E+03  0.7546771E-02  0.1024337E+00
         21   -1    0    0  502  501  0.00000000000E+00  0.00000000000E+00  0.92400983353E+02  0.92400983353E+02  0.00000000000E+00 0. -1.
         21   -1    0    0  501  502 -0.00000000000E+00 -0.00000000000E+00 -0.57632864570E+03  0.57632864570E+03  0.00000000000E+00 0. -1.
      99926    2    1    2    0    0  0.00000000000E+00  0.00000000000E+00 -0.48392766235E+03  0.66872962906E+03  0.46153367633E+03 0.  0.
      99925    2    3    3    0    0 -0.79910709827E+01 -0.47095019006E+02 -0.46099157442E+03  0.53287908522E+03  0.26299256597E+03 0.  0.
         25    1    3    3    0    0  0.79910709827E+01  0.47095019006E+02 -0.22936087935E+02  0.13585054384E+03  0.12509000000E+03 0.  0.
         25    1    4    4    0    0 -0.34846294090E+02  0.26031011280E+01 -0.23343147685E+03  0.26713068493E+03  0.12509000000E+03 0.  0.
         25    1    4    4    0    0  0.26855223107E+02 -0.49698120134E+02 -0.22756009756E+03  0.26574840029E+03  0.12509000000E+03 0.  0.
<mgrwt>
<rscale>  2 0.46153368E+03</rscale>
<asrwt>0</asrwt>
<pdfrwt beam="1">  1       21 0.13588380E-01 0.46153368E+03</pdfrwt>
<pdfrwt beam="2">  1       21 0.84754213E-01 0.46153368E+03</pdfrwt>
<totfact> 0.51907934E+04</totfact>
</mgrwt>
</event>
<event>
 7    0  0.4766352E-002  0.4344405E+03  0.7546771E-02  0.1032466E+00
         21   -1    0    0  502  501  0.00000000000E+00  0.00000000000E+00  0.32564951524E+03  0.32564951524E+03  0.00000000000E+00 0.  1.
         21   -1    0    0  501  502 -0.00000000000E+00 -0.00000000000E+00 -0.14489391987E+03  0.14489391987E+03  0.00000000000E+00 0.  1.
      99926    2    1    2    0    0  0.00000000000E+00  0.00000000000E+00  0.18075559537E+03  0.47054343510E+03  0.43444048966E+03 0.  0.
      99925    2    3    3    0    0  0.26860490667E+02  0.76806739145E+02  0.68120919142E+02  0.28358130117E+03  0.26297743935E+03 0.  0.
         25    1    4    4    0    0  0.19384553632E+01  0.26785306020E+02  0.71440139351E+02  0.14653467794E+03  0.12509000000E+03 0.  0.
         25    1    4    4    0    0  0.24922035303E+02  0.50021433125E+02 -0.33192202092E+01  0.13704662323E+03  0.12509000000E+03 0.  0.
         25    1    3    3    0    0 -0.26860490667E+02 -0.76806739145E+02  0.11263467623E+03  0.18696213394E+03  0.12509000000E+03 0.  0.
<mgrwt>
<rscale>  2 0.43444049E+03</rscale>
<asrwt>0</asrwt>
<pdfrwt beam="1">  1       21 0.47889634E-01 0.43444049E+03</pdfrwt>
<pdfrwt beam="2">  1       21 0.21307930E-01 0.43444049E+03</pdfrwt>
<totfact> 0.79616082E+04</totfact>
</mgrwt>
</event>
<event>
 7    0  0.4766352E-002  0.4544521E+03  0.7546771E-02  0.1026403E+00
         21   -1    0    0  502  501  0.00000000000E+00  0.00000000000E+00  0.27578413682E+03  0.27578413682E+03  0.00000000000E+00 0. -1.
         21   -1    0    0  501  502 -0.00000000000E+00 -0.00000000000E+00 -0.18721775137E+03  0.18721775137E+03  0.00000000000E+00 0. -1.
      99926    2    1    2    0    0  0.00000000000E+00  0.00000000000E+00  0.88566385447E+02  0.46300188818E+03  0.45445213591E+03 0.  0.
      99925    2    3    3    0    0  0.44326193777E+02 -0.10297232003E+03  0.46009585102E+02  0.28971974974E+03  0.26315877588E+03 0.  0.
         25    1    4    4    0    0  0.32285285762E+02 -0.94141229234E+02  0.31286847942E+02  0.16288427080E+03  0.12509000000E+03 0.  0.
         25    1    4    4    0    0  0.12040908014E+02 -0.88310907950E+01  0.14722737159E+02  0.12683547895E+03  0.12509000000E+03 0.  0.
         25    1    3    3    0    0 -0.44326193777E+02  0.10297232003E+03  0.42556800346E+02  0.17328213844E+03  0.12509000000E+03 0.  0.
<mgrwt>
<rscale>  2 0.45445214E+03</rscale>
<asrwt>0</asrwt>
<pdfrwt beam="1">  1       21 0.40556491E-01 0.45445214E+03</pdfrwt>
<pdfrwt beam="2">  1       21 0.27532022E-01 0.45445214E+03</pdfrwt>
<totfact> 0.68255558E+04</totfact>
</mgrwt>
</event>
<event>
 7    0  0.4766352E-002  0.4303201E+03  0.7546771E-02  0.1033759E+00
         21   -1    0    0  502  501  0.00000000000E+00  0.00000000000E+00  0.52045713052E+02  0.52045713052E+02  0.00000000000E+00 0.  1.
         21   -1    0    0  501  502 -0.00000000000E+00 -0.00000000000E+00 -0.88948421186E+03  0.88948421186E+03  0.00000000000E+00 0.  1.
      99926    2    1    2    0    0 -0.35527136788E-14 -0.71054273576E-14 -0.83743849881E+03  0.94152992491E+03  0.43032006718E+03 0.  0.
      99925    2    3    3    0    0 -0.17830579853E+02 -0.61594738207E+02 -0.40778111807E+03  0.48946265749E+03  0.26301408987E+03 0.  0.
         25    1    4    4    0    0 -0.29802520895E+00 -0.22007833748E+02 -0.27008652456E+03  0.29846050394E+03  0.12509000000E+03 0.  0.
         25    1    4    4    0    0 -0.17532554645E+02 -0.39586904459E+02 -0.13769459351E+03  0.19100215355E+03  0.12509000000E+03 0.  0.
         25    1    3    3    0    0  0.17830579853E+02  0.61594738207E+02 -0.42965738074E+03  0.45206726742E+03  0.12509000000E+03 0.  0.
<mgrwt>
<rscale>  2 0.43032007E+03</rscale>
<asrwt>0</asrwt>
<pdfrwt beam="1">  1       21 0.76537816E-02 0.43032007E+03</pdfrwt>
<pdfrwt beam="2">  1       21 0.13080650E+00 0.43032007E+03</pdfrwt>
<totfact> 0.50561562E+04</totfact>
</mgrwt>
</event>
<event>
 7    0  0.4766352E-002  0.4460682E+03  0.7546771E-02  0.1028901E+00
         21   -1    0    0  502  501  0.00000000000E+00  0.00000000000E+00  0.10207974327E+03  0.10207974327E+03  0.00000000000E+00 0. -1.
         21   -1    0    0  501  502 -0.00000000000E+00 -0.00000000000E+00 -0.48730730668E+03  0.48730730668E+03  0.00000000000E+00 0. -1.
      99926    2    1    2    0    0  0.00000000000E+00 -0.37747582837E-14 -0.38522756341E+03  0.58938704995E+03  0.44606817757E+03 0.  0.
      99925    2    3    3    0    0  0.10170051426E+03 -0.15558671076E+01 -0.21266045403E+03  0.35322538782E+03  0.26305567959E+03 0.  0.
         25    1    4    4    0    0  0.62307573010E+02 -0.39882142565E+02 -0.11367666441E+03  0.18450666948E+03  0.12509000000E+03 0.  0.
         25    1    4    4    0    0  0.39392941249E+02  0.38326275458E+02 -0.98983789624E+02  0.16871871834E+03  0.12509000000E+03 0.  0.
         25    1    3    3    0    0 -0.10170051426E+03  0.15558671076E+01 -0.17256710938E+03  0.23616166213E+03  0.12509000000E+03 0.  0.
<mgrwt>
<rscale>  2 0.44606818E+03</rscale>
<asrwt>0</asrwt>
<pdfrwt beam="1">  1       21 0.15011727E-01 0.44606818E+03</pdfrwt>
<pdfrwt beam="2">  1       21 0.71662839E-01 0.44606818E+03</pdfrwt>
<totfact> 0.63716445E+04</totfact>
</mgrwt>
</event>
<event>
 7    0  0.4766352E-002  0.4589325E+03  0.7546771E-02  0.1025091E+00
         21   -1    0    0  502  501  0.00000000000E+00  0.00000000000E+00  0.26278221492E+03  0.26278221492E+03  0.00000000000E+00 0.  1.
         21   -1    0    0  501  502 -0.00000000000E+00 -0.00000000000E+00 -0.20037409813E+03  0.20037409813E+03  0.00000000000E+00 0.  1.
      99926    2    1    2    0    0 -0.14210854715E-13  0.00000000000E+00  0.62408116789E+02  0.46315631305E+03  0.45893245394E+03 0.  0.
      99925    2    3    3    0    0  0.72765178178E+02  0.71485528201E+02  0.96045695428E+02  0.29828076394E+03  0.26332809692E+03 0.  0.
         25    1    4    4    0    0  0.79712851646E+01  0.88670598636E+01  0.23236585232E+02  0.12778737469E+03  0.12509000000E+03 0.  0.
         25    1    4    4    0    0  0.64793893014E+02  0.62618468337E+02  0.72809110197E+02  0.17049338925E+03  0.12509000000E+03 0.  0.
         25    1    3    3    0    0 -0.72765178178E+02 -0.71485528201E+02 -0.33637578640E+02  0.16487554911E+03  0.12509000000E+03 0.  0.
<mgrwt>
<rscale>  2 0.45893245E+03</rscale>
<asrwt>0</asrwt>
<pdfrwt beam="1">  1       21 0.38644444E-01 0.45893245E+03</pdfrwt>
<pdfrwt beam="2">  1       21 0.29466779E-01 0.45893245E+03</pdfrwt>
<totfact> 0.65861347E+04</totfact>
</mgrwt>
</event>
<event>
 7    0  0.4766352E-002  0.4546216E+03  0.7546771E-02  0.1026353E+00
         21   -1    0    0  502  501  0.00000000000E+00  0.00000000000E+00  0.23533036890E+03  0.23533036890E+03  0.00000000000E+00 0.  1.
         21   -1    0    0  501  502 -0.00000000000E+00 -0.00000000000E+00 -0.21956451636E+03  0.21956451636E+03  0.00000000000E+00 0.  1.
      99926    2    1    2    0    0  0.00000000000E+00  0.00000000000E+00  0.15765852534E+02  0.45489488526E+03  0.45462159488E+03 0.  0.
      99925    2    3    3    0    0  0.16506505489E+02 -0.11086260869E+03  0.22458478190E+02  0.28680180965E+03  0.26303595200E+03 0.  0.
         25    1    3    3    0    0 -0.16506505489E+02  0.11086260869E+03 -0.66926256568E+01  0.16809307561E+03  0.12509000000E+03 0.  0.
         25    1    4    4    0    0  0.16962336122E+01 -0.51139915908E+02  0.51094483576E+02  0.14448640960E+03  0.12509000000E+03 0.  0.
         25    1    4    4    0    0  0.14810271876E+02 -0.59722692783E+02 -0.28636005386E+02  0.14231540005E+03  0.12509000000E+03 0.  0.
<mgrwt>
<rscale>  2 0.45462159E+03</rscale>
<asrwt>0</asrwt>
<pdfrwt beam="1">  1       21 0.34607407E-01 0.45462159E+03</pdfrwt>
<pdfrwt beam="2">  1       21 0.32288900E-01 0.45462159E+03</pdfrwt>
<totfact> 0.68760881E+04</totfact>
</mgrwt>
</event>
<event>
 7    0  0.4766352E-002  0.4519955E+03  0.7546771E-02  0.1027129E+00
         21   -1    0    0  502  501  0.00000000000E+00  0.00000000000E+00  0.19596593826E+03  0.19596593826E+03  0.00000000000E+00 0.  1.
         21   -1    0    0  501  502 -0.00000000000E+00 -0.00000000000E+00 -0.26063189832E+03  0.26063189832E+03  0.00000000000E+00 0.  1.
      99926    2    1    2    0    0  0.00000000000E+00  0.00000000000E+00 -0.64665960057E+02  0.45659783658E+03  0.45199546234E+03 0.  0.
      99925    2    3    3    0    0  0.84738937868E+02 -0.22207009459E+02 -0.10863954969E+03  0.29767954454E+03  0.26293862520E+03 0.  0.
         25    1    3    3    0    0 -0.84738937868E+02  0.22207009459E+02  0.43973589631E+02  0.15891829204E+03  0.12509000000E+03 0.  0.
         25    1    4    4    0    0  0.33072904577E+02  0.17375229703E+02 -0.82027835967E+02  0.15418102866E+03  0.12509000000E+03 0.  0.
         25    1    4    4    0    0  0.51666033291E+02 -0.39582239162E+02 -0.26611713721E+02  0.14349851588E+03  0.12509000000E+03 0.  0.
<mgrwt>
<rscale>  2 0.45199546E+03</rscale>
<asrwt>0</asrwt>
<pdfrwt beam="1">  1       21 0.28818520E-01 0.45199546E+03</pdfrwt>
<pdfrwt beam="2">  1       21 0.38328221E-01 0.45199546E+03</pdfrwt>
<totfact> 0.70093703E+04</totfact>
</mgrwt>
</event>
<event>
 7    0  0.4766352E-002  0.4581141E+03  0.7546771E-02  0.1025330E+00
         21   -1    0    0  502  501  0.00000000000E+00  0.00000000000E+00  0.45082648720E+03  0.45082648720E+03  0.00000000000E+00 0.  1.
         21   -1    0    0  501  502 -0.00000000000E+00 -0.00000000000E+00 -0.11637989165E+03  0.11637989165E+03  0.00000000000E+00 0.  1.
      99926    2    1    2    0    0  0.00000000000E+00  0.00000000000E+00  0.33444659555E+03  0.56720637885E+03  0.45811412435E+03 0.  0.
      99925    2    3    3    0    0  0.88678096313E+02  0.48725073773E+02  0.28014927851E+03  0.39740165477E+03  0.26307131996E+03 0.  0.
         25    1    3    3    0    0 -0.88678096313E+02 -0.48725073773E+02  0.54297317038E+02  0.16980472407E+03  0.12509000000E+03 0.  0.
         25    1    4    4    0    0  0.36474131679E+02  0.46470240858E+02  0.94538517962E+02  0.16755561777E+03  0.12509000000E+03 0.  0.
         25    1    4    4    0    0  0.52203964634E+02  0.22548329156E+01  0.18561076055E+03  0.22984603701E+03  0.12509000000E+03 0.  0.
<mgrwt>
<rscale>  2 0.45811412E+03</rscale>
<asrwt>0</asrwt>
<pdfrwt beam="1">  1       21 0.66298012E-01 0.45811412E+03</pdfrwt>
<pdfrwt beam="2">  1       21 0.17114690E-01 0.45811412E+03</pdfrwt>
<totfact> 0.59270365E+04</totfact>
</mgrwt>
</event>
<event>
 7    0  0.4766352E-002  0.4545125E+03  0.7546771E-02  0.1026385E+00
         21   -1    0    0  502  501  0.00000000000E+00  0.00000000000E+00  0.95326902176E+03  0.95326902176E+03  0.00000000000E+00 0.  1.
         21   -1    0    0  501  502 -0.00000000000E+00 -0.00000000000E+00 -0.54177165395E+02  0.54177165395E+02  0.00000000000E+00 0.  1.
      99926    2    1    2    0    0  0.00000000000E+00  0.00000000000E+00  0.89909185636E+03  0.10074461872E+04  0.45451254530E+03 0.  0.
      99925    2    3    3    0    0  0.87164125389E+02  0.46517491043E+02  0.44576044133E+03  0.52690655124E+03  0.26299559114E+03 0.  0.
         25    1    4    4    0    0  0.52320343917E+02  0.32968866014E+02  0.15728476415E+03  0.21026262066E+03  0.12509000000E+03 0.  0.
         25    1    4    4    0    0  0.34843781472E+02  0.13548625029E+02  0.28847567718E+03  0.31664393058E+03  0.12509000000E+03 0.  0.
         25    1    3    3    0    0 -0.87164125389E+02 -0.46517491043E+02  0.45333141503E+03  0.48053963591E+03  0.12509000000E+03 0.  0.
<mgrwt>
<rscale>  2 0.45451255E+03</rscale>
<asrwt>0</asrwt>
<pdfrwt beam="1">  1       21 0.14018661E+00 0.45451255E+03</pdfrwt>
<pdfrwt beam="2">  1       21 0.79672308E-02 0.45451255E+03</pdfrwt>
<totfact> 0.39026756E+04</totfact>
</mgrwt>
</event>
<event>
 7    0  0.4766352E-002  0.4543511E+03  0.7546771E-02  0.1026432E+00
         21   -1    0    0  502  501  0.00000000000E+00  0.00000000000E+00  0.10165723895E+03  0.10165723895E+03  0.00000000000E+00 0. -1.
         21   -1    0    0  501  502 -0.00000000000E+00 -0.00000000000E+00 -0.50767393805E+03  0.50767393805E+03  0.00000000000E+00 0. -1.
      99926    2    1    2    0    0 -0.71054273576E-14 -0.14210854715E-13 -0.40601669910E+03  0.60933117701E+03  0.45435110137E+03 0.  0.
      99925    2    3    3    0    0 -0.37195275387E+02  0.10258517964E+03 -0.21820865018E+03  0.35867887015E+03  0.26292262984E+03 0.  0.
         25    1    3    3    0    0  0.37195275387E+02 -0.10258517964E+03 -0.18780804892E+03  0.25065230686E+03  0.12509000000E+03 0.  0.
         25    1    4    4    0    0  0.25937823954E+01  0.15770669090E+02 -0.80930237570E+02  0.14984209410E+03  0.12509000000E+03 0.  0.
         25    1    4    4    0    0 -0.39789057782E+02  0.86814510551E+02 -0.13727841261E+03  0.20883677605E+03  0.12509000000E+03 0.  0.
<mgrwt>
<rscale>  2 0.45435110E+03</rscale>
<asrwt>0</asrwt>
<pdfrwt beam="1">  1       21 0.14949594E-01 0.45435110E+03</pdfrwt>
<pdfrwt beam="2">  1       21 0.74657931E-01 0.45435110E+03</pdfrwt>
<totfact> 0.58406354E+04</totfact>
</mgrwt>
</event>
<event>
 7    0  0.4766352E-002  0.4702013E+03  0.7546771E-02  0.1021863E+00
         21   -1    0    0  502  501  0.00000000000E+00  0.00000000000E+00  0.58253348208E+02  0.58253348208E+02  0.00000000000E+00 0.  1.
         21   -1    0    0  501  502 -0.00000000000E+00 -0.00000000000E+00 -0.94882632840E+03  0.94882632840E+03  0.00000000000E+00 0.  1.
      99926    2    1    2    0    0  0.00000000000E+00  0.35527136788E-14 -0.89057298019E+03  0.10070796766E+04  0.47020127817E+03 0.  0.
      99925    2    3    3    0    0 -0.87695516123E+02  0.19322365325E+02 -0.74509991977E+03  0.79524536221E+03  0.26301604194E+03 0.  0.
         25    1    3    3    0    0  0.87695516123E+02 -0.19322365325E+02 -0.14547306042E+03  0.21183431440E+03  0.12509000000E+03 0.  0.
         25    1    4    4    0    0 -0.13821712351E+02 -0.92715675055E+01 -0.40781254574E+03  0.42689059753E+03  0.12509000000E+03 0.  0.
         25    1    4    4    0    0 -0.73873803772E+02  0.28593932831E+02 -0.33728737404E+03  0.36835476468E+03  0.12509000000E+03 0.  0.
<mgrwt>
<rscale>  2 0.47020128E+03</rscale>
<asrwt>0</asrwt>
<pdfrwt beam="1">  1       21 0.85666691E-02 0.47020128E+03</pdfrwt>
<pdfrwt beam="2">  1       21 0.13953328E+00 0.47020128E+03</pdfrwt>
<totfact> 0.34599091E+04</totfact>
</mgrwt>
</event>
<event>
 7    0  0.4766352E-002  0.4562291E+03  0.7546771E-02  0.1025881E+00
         21   -1    0    0  502  501  0.00000000000E+00  0.00000000000E+00  0.72800681442E+02  0.72800681442E+02  0.00000000000E+00 0.  1.
         21   -1    0    0  501  502 -0.00000000000E+00 -0.00000000000E+00 -0.71477694801E+03  0.71477694801E+03  0.00000000000E+00 0.  1.
      99926    2    1    2    0    0  0.71054273576E-14  0.00000000000E+00 -0.64197626657E+03  0.78757762946E+03  0.45622910426E+03 0.  0.
      99925    2    3    3    0    0  0.63205981692E+02 -0.85712707715E+02 -0.47545333855E+03  0.55365657858E+03  0.26294118255E+03 0.  0.
         25    1    4    4    0    0  0.51623895816E+02 -0.37571367308E+02 -0.17445841876E+03  0.22396401996E+03  0.12509000000E+03 0.  0.
         25    1    4    4    0    0  0.11582085876E+02 -0.48141340407E+02 -0.30099491979E+03  0.32969255862E+03  0.12509000000E+03 0.  0.
         25    1    3    3    0    0 -0.63205981692E+02  0.85712707715E+02 -0.16652292802E+03  0.23392105087E+03  0.12509000000E+03 0.  0.
<mgrwt>
<rscale>  2 0.45622910E+03</rscale>
<asrwt>0</asrwt>
<pdfrwt beam="1">  1       21 0.10705982E-01 0.45622910E+03</pdfrwt>
<pdfrwt beam="2">  1       21 0.10511426E+00 0.45622910E+03</pdfrwt>
<totfact> 0.47907733E+04</totfact>
</mgrwt>
</event>
<event>
 7    0  0.4766352E-002  0.4527201E+03  0.7546771E-02  0.1026914E+00
         21   -1    0    0  502  501  0.00000000000E+00  0.00000000000E+00  0.22089234717E+03  0.22089234717E+03  0.00000000000E+00 0.  1.
         21   -1    0    0  501  502 -0.00000000000E+00 -0.00000000000E+00 -0.23196313830E+03  0.23196313830E+03  0.00000000000E+00 0.  1.
      99926    2    1    2    0    0  0.00000000000E+00  0.14210854715E-13 -0.11070791137E+02  0.45285548547E+03  0.45272014347E+03 0.  0.
      99925    2    3    3    0    0 -0.37755865239E+02 -0.10144557371E+03  0.17895225033E+02  0.28491725880E+03  0.26294656396E+03 0.  0.
         25    1    4    4    0    0  0.86230189126E+01 -0.37094408380E+02  0.36182377921E+02  0.13567248859E+03  0.12509000000E+03 0.  0.
         25    1    3    3    0    0  0.37755865239E+02  0.10144557371E+03 -0.28966016169E+02  0.16793822667E+03  0.12509000000E+03 0.  0.
         25    1    4    4    0    0 -0.46378884152E+02 -0.64351165329E+02 -0.18287152889E+02  0.14924477021E+03  0.12509000000E+03 0.  0.
<mgrwt>
<rscale>  2 0.45272014E+03</rscale>
<asrwt>0</asrwt>
<pdfrwt beam="1">  1       21 0.32484169E-01 0.45272014E+03</pdfrwt>
<pdfrwt beam="2">  1       21 0.34112226E-01 0.45272014E+03</pdfrwt>
<totfact> 0.69967318E+04</totfact>
</mgrwt>
</event>
<event>
 7    0  0.4766352E-002  0.4515256E+03  0.7546771E-02  0.1027268E+00
         21   -1    0    0  502  501  0.00000000000E+00  0.00000000000E+00  0.23415852566E+03  0.23415852566E+03  0.00000000000E+00 0.  1.
         21   -1    0    0  501  502 -0.00000000000E+00 -0.00000000000E+00 -0.21766807758E+03  0.21766807758E+03  0.00000000000E+00 0.  1.
      99926    2    1    2    0    0  0.17763568394E-14  0.00000000000E+00  0.16490448077E+02  0.45182660323E+03  0.45152557459E+03 0.  0.
      99925    2    3    3    0    0 -0.37027464557E+01 -0.27318727282E+02 -0.96072917090E+02  0.28130375295E+03  0.26294823223E+03 0.  0.
         25    1    3    3    0    0  0.37027464557E+01  0.27318727282E+02  0.11256336517E+03  0.17052285028E+03  0.12509000000E+03 0.  0.
         25    1    4    4    0    0  0.35464222364E+02 -0.22326063507E+01 -0.58966028088E+02  0.14278373916E+03  0.12509000000E+03 0.  0.
         25    1    4    4    0    0 -0.39166968820E+02 -0.25086120932E+02 -0.37106889002E+02  0.13852001379E+03  0.12509000000E+03 0.  0.
<mgrwt>
<rscale>  2 0.45152557E+03</rscale>
<asrwt>0</asrwt>
<pdfrwt beam="1">  1       21 0.34435078E-01 0.45152557E+03</pdfrwt>
<pdfrwt beam="2">  1       21 0.32010011E-01 0.45152557E+03</pdfrwt>
<totfact> 0.70719161E+04</totfact>
</mgrwt>
</event>
<event>
 7    0  0.4766352E-002  0.4599727E+03  0.7546771E-02  0.1024789E+00
         21   -1    0    0  502  501  0.00000000000E+00  0.00000000000E+00  0.21486093368E+03  0.21486093368E+03  0.00000000000E+00 0. -1.
         21   -1    0    0  501  502 -0.00000000000E+00 -0.00000000000E+00 -0.24617657735E+03  0.24617657735E+03  0.00000000000E+00 0. -1.
      99926    2    1    2    0    0  0.00000000000E+00  0.71054273576E-14 -0.31315643671E+02  0.46103751104E+03  0.45997273511E+03 0.  0.
      99925    2    3    3    0    0 -0.39103066930E+02  0.55625007866E+02 -0.11551663598E+03  0.29562739481E+03  0.26349245156E+03 0.  0.
         25    1    4    4    0    0 -0.12667012683E+02  0.65466402256E+02 -0.42126568173E+02  0.14787987991E+03  0.12509000000E+03 0.  0.
         25    1    3    3    0    0  0.39103066930E+02 -0.55625007866E+02  0.84200992314E+02  0.16541011623E+03  0.12509000000E+03 0.  0.
         25    1    4    4    0    0 -0.26436054247E+02 -0.98413943901E+01 -0.73390067811E+02  0.14774751491E+03  0.12509000000E+03 0.  0.
<mgrwt>
<rscale>  2 0.45997274E+03</rscale>
<asrwt>0</asrwt>
<pdfrwt beam="1">  1       21 0.31597196E-01 0.45997274E+03</pdfrwt>
<pdfrwt beam="2">  1       21 0.36202438E-01 0.45997274E+03</pdfrwt>
<totfact> 0.65469370E+04</totfact>
</mgrwt>
</event>
<event>
 7    0  0.4766352E-002  0.4540616E+03  0.7546771E-02  0.1026518E+00
         21   -1    0    0  502  501  0.00000000000E+00  0.00000000000E+00  0.39529385015E+03  0.39529385015E+03  0.00000000000E+00 0.  1.
         21   -1    0    0  501  502 -0.00000000000E+00 -0.00000000000E+00 -0.13039155754E+03  0.13039155754E+03  0.00000000000E+00 0.  1.
      99926    2    1    2    0    0  0.35527136788E-14  0.00000000000E+00  0.26490229261E+03  0.52568540770E+03  0.45406158529E+03 0.  0.
      99925    2    3    3    0    0  0.30301317835E+02  0.64604345955E+02  0.66344465435E+02  0.28040065438E+03  0.26292783706E+03 0.  0.
         25    1    3    3    0    0 -0.30301317835E+02 -0.64604345955E+02  0.19855782717E+03  0.24528475332E+03  0.12509000000E+03 0.  0.
         25    1    4    4    0    0  0.42622960913E+01  0.67782363342E+02  0.16812737993E+02  0.14332756960E+03  0.12509000000E+03 0.  0.
         25    1    4    4    0    0  0.26039021744E+02 -0.31780173863E+01  0.49531727441E+02  0.13707308478E+03  0.12509000000E+03 0.  0.
<mgrwt>
<rscale>  2 0.45406159E+03</rscale>
<asrwt>0</asrwt>
<pdfrwt beam="1">  1       21 0.58131448E-01 0.45406159E+03</pdfrwt>
<pdfrwt beam="2">  1       21 0.19175229E-01 0.45406159E+03</pdfrwt>
<totfact> 0.63974113E+04</totfact>
</mgrwt>
</event>
<event>
 7    0  0.4766352E-002  0.4494809E+03  0.7546771E-02  0.1027877E+00
         21   -1    0    0  502  501  0.00000000000E+00  0.00000000000E+00  0.80237008815E+03  0.80237008815E+03  0.00000000000E+00 0. -1.
         21   -1    0    0  501  502 -0.00000000000E+00 -0.00000000000E+00 -0.62948840724E+02  0.62948840724E+02  0.00000000000E+00 0. -1.
      99926    2    1    2    0    0  0.00000000000E+00  0.00000000000E+00  0.73942124743E+03  0.86531892887E+03  0.44948088672E+03 0.  0.
      99925    2    3    3    0    0  0.67857798207E+02 -0.58373801544E+02  0.35367957510E+03  0.45004031474E+03  0.26350495549E+03 0.  0.
         25    1    4    4    0    0  0.69965389547E+02 -0.52938196160E+02  0.18436472207E+03  0.23944825577E+03  0.12509000000E+03 0.  0.
         25    1    4    4    0    0 -0.21075913395E+01 -0.54356053842E+01  0.16931485303E+03  0.21059205898E+03  0.12509000000E+03 0.  0.
         25    1    3    3    0    0 -0.67857798207E+02  0.58373801544E+02  0.38574167233E+03  0.41527861413E+03  0.12509000000E+03 0.  0.
<mgrwt>
<rscale>  2 0.44948089E+03</rscale>
<asrwt>0</asrwt>
<pdfrwt beam="1">  1       21 0.11799560E+00 0.44948089E+03</pdfrwt>
<pdfrwt beam="2">  1       21 0.92571829E-02 0.44948089E+03</pdfrwt>
<totfact> 0.46752680E+04</totfact>
</mgrwt>
</event>
<event>
 7    0  0.4766352E-002  0.4411039E+03  0.7546771E-02  0.1030409E+00
         21   -1    0    0  502  501  0.00000000000E+00  0.00000000000E+00  0.62949360894E+02  0.62949360894E+02  0.00000000000E+00 0. -1.
         21   -1    0    0  501  502 -0.00000000000E+00 -0.00000000000E+00 -0.77273472508E+03  0.77273472508E+03  0.00000000000E+00 0. -1.
      99926    2    1    2    0    0  0.35527136788E-14  0.17763568394E-14 -0.70978536419E+03  0.83568408597E+03  0.44110387477E+03 0.  0.
      99925    2    3    3    0    0 -0.20744370420E+02 -0.13647666104E+02 -0.63516467686E+03  0.68792636952E+03  0.26304359992E+03 0.  0.
         25    1    4    4    0    0  0.25897818453E+02  0.10826993046E+02 -0.32449834362E+03  0.34890486367E+03  0.12509000000E+03 0.  0.
         25    1    4    4    0    0 -0.46642188874E+02 -0.24474659150E+02 -0.31066633323E+03  0.33902150585E+03  0.12509000000E+03 0.  0.
         25    1    3    3    0    0  0.20744370420E+02  0.13647666104E+02 -0.74620687329E+02  0.14775771645E+03  0.12509000000E+03 0.  0.
<mgrwt>
<rscale>  2 0.44110387E+03</rscale>
<asrwt>0</asrwt>
<pdfrwt beam="1">  1       21 0.92572596E-02 0.44110387E+03</pdfrwt>
<pdfrwt beam="2">  1       21 0.11363745E+00 0.44110387E+03</pdfrwt>
<totfact> 0.51473177E+04</totfact>
</mgrwt>
</event>
<event>
 7    0  0.4766352E-002  0.4567894E+03  0.7546771E-02  0.1025717E+00
         21   -1    0    0  502  501  0.00000000000E+00  0.00000000000E+00  0.33777056992E+03  0.33777056992E+03  0.00000000000E+00 0. -1.
         21   -1    0    0  501  502 -0.00000000000E+00 -0.00000000000E+00 -0.15443657638E+03  0.15443657638E+03  0.00000000000E+00 0. -1.
      99926    2    1    2    0    0  0.00000000000E+00  0.00000000000E+00  0.18333399353E+03  0.49220714630E+03  0.45678936249E+03 0.  0.
      99925    2    3    3    0    0 -0.55871780542E+02  0.92900709069E+02  0.15591500866E+03  0.32442303967E+03  0.26303729990E+03 0.  0.
         25    1    4    4    0    0 -0.66901310298E+02  0.35145288849E+02  0.85128070699E+02  0.16913093498E+03  0.12509000000E+03 0.  0.
         25    1    3    3    0    0  0.55871780542E+02 -0.92900709069E+02  0.27418984870E+02  0.16778410663E+03  0.12509000000E+03 0.  0.
         25    1    4    4    0    0  0.11029529756E+02  0.57755420221E+02  0.70786937965E+02  0.15529210469E+03  0.12509000000E+03 0.  0.
<mgrwt>
<rscale>  2 0.45678936E+03</rscale>
<asrwt>0</asrwt>
<pdfrwt beam="1">  1       21 0.49672143E-01 0.45678936E+03</pdfrwt>
<pdfrwt beam="2">  1       21 0.22711261E-01 0.45678936E+03</pdfrwt>
<totfact> 0.64894916E+04</totfact>
</mgrwt>
</event>
<event>
 7    0  0.4766352E-002  0.4586062E+03  0.7546771E-02  0.1025186E+00
         21   -1    0    0  502  501  0.00000000000E+00  0.00000000000E+00  0.58717508826E+03  0.58717508826E+03  0.00000000000E+00 0. -1.
         21   -1    0    0  501  502 -0.00000000000E+00 -0.00000000000E+00 -0.89547262517E+02  0.89547262517E+02  0.00000000000E+00 0. -1.
      99926    2    1    2    0    0  0.14210854715E-13 -0.35527136788E-14  0.49762782574E+03  0.67672235077E+03  0.45860624405E+03 0.  0.
      99925    2    3    3    0    0 -0.10773762981E+03 -0.29621160501E+02  0.36236553688E+03  0.46125029942E+03  0.26259902203E+03 0.  0.
         25    1    4    4    0    0 -0.31321217357E+02 -0.40052157798E+02  0.20915715479E+03  0.24895665788E+03  0.12509000000E+03 0.  0.
         25    1    3    3    0    0  0.10773762981E+03  0.29621160501E+02  0.13526228886E+03  0.21547205135E+03  0.12509000000E+03 0.  0.
         25    1    4    4    0    0 -0.76416412455E+02  0.10430997297E+02  0.15320838209E+03  0.21229364154E+03  0.12509000000E+03 0.  0.
<mgrwt>
<rscale>  2 0.45860624E+03</rscale>
<asrwt>0</asrwt>
<pdfrwt beam="1">  1       21 0.86349276E-01 0.45860624E+03</pdfrwt>
<pdfrwt beam="2">  1       21 0.13168715E-01 0.45860624E+03</pdfrwt>
<totfact> 0.52672487E+04</totfact>
</mgrwt>
</event>
<event>
 7    0  0.4766352E-002  0.4547189E+03  0.7546771E-02  0.1026324E+00
         21   -1    0    0  502  501  0.00000000000E+00  0.00000000000E+00  0.15420652316E+03  0.15420652316E+03  0.00000000000E+00 0.  1.
         21   -1    0    0  501  502 -0.00000000000E+00 -0.00000000000E+00 -0.33521487256E+03  0.33521487256E+03  0.00000000000E+00 0.  1.
      99926    2    1    2    0    0  0.00000000000E+00  0.00000000000E+00 -0.18100834941E+03  0.48942139572E+03  0.45471890221E+03 0.  0.
      99925    2    3    3    0    0 -0.54931776085E+02  0.67991367032E+02 -0.19084173540E+03  0.33650138527E+03  0.26300625146E+03 0.  0.
         25    1    3    3    0    0  0.54931776085E+02 -0.67991367032E+02  0.98333859896E+01  0.15292001045E+03  0.12509000000E+03 0.  0.
         25    1    4    4    0    0 -0.23418656943E+02  0.81300718751E+01 -0.51889300328E+02  0.13767548493E+03  0.12509000000E+03 0.  0.
         25    1    4    4    0    0 -0.31513119141E+02  0.59861295157E+02 -0.13895243507E+03  0.19882590034E+03  0.12509000000E+03 0.  0.
<mgrwt>
<rscale>  2 0.45471890E+03</rscale>
<asrwt>0</asrwt>
<pdfrwt beam="1">  1       21 0.22677430E-01 0.45471890E+03</pdfrwt>
<pdfrwt beam="2">  1       21 0.49296305E-01 0.45471890E+03</pdfrwt>
<totfact> 0.66167955E+04</totfact>
</mgrwt>
</event>
<event>
 7    0  0.4766352E-002  0.4464552E+03  0.7546771E-02  0.1028784E+00
         21   -1    0    0  502  501  0.00000000000E+00  0.00000000000E+00  0.82415734030E+02  0.82415734030E+02  0.00000000000E+00 0. -1.
         21   -1    0    0  501  502 -0.00000000000E+00 -0.00000000000E+00 -0.60462438059E+03  0.60462438059E+03  0.00000000000E+00 0. -1.
      99926    2    1    2    0    0  0.00000000000E+00  0.00000000000E+00 -0.52220864656E+03  0.68704011462E+03  0.44645520330E+03 0.  0.
      99925    2    3    3    0    0  0.43426767713E+02 -0.49884401737E+02 -0.20575666411E+03  0.34039374872E+03  0.26297863346E+03 0.  0.
         25    1    3    3    0    0 -0.43426767713E+02  0.49884401737E+02 -0.31645198245E+03  0.34664636589E+03  0.12509000000E+03 0.  0.
         25    1    4    4    0    0  0.62259894433E+02 -0.28157888076E+02 -0.10053971305E+03  0.17442735771E+03  0.12509000000E+03 0.  0.
         25    1    4    4    0    0 -0.18833126720E+02 -0.21726513661E+02 -0.10521695106E+03  0.16596639102E+03  0.12509000000E+03 0.  0.
<mgrwt>
<rscale>  2 0.44645520E+03</rscale>
<asrwt>0</asrwt>
<pdfrwt beam="1">  1       21 0.12119960E-01 0.44645520E+03</pdfrwt>
<pdfrwt beam="2">  1       21 0.88915354E-01 0.44645520E+03</pdfrwt>
<totfact> 0.57375677E+04</totfact>
</mgrwt>
</event>
<event>
 7    0  0.4766352E-002  0.4677721E+03  0.7546771E-02  0.1022551E+00
         21   -1    0    0  502  501  0.00000000000E+00  0.00000000000E+00  0.14535082437E+03  0.14535082437E+03  0.00000000000E+00 0. -1.
         21   -1    0    0  501  502 -0.00000000000E+00 -0.00000000000E+00 -0.37634933775E+03  0.37634933775E+03  0.00000000000E+00 0. -1.
      99926    2    1    2    0    0  0.00000000000E+00  0.00000000000E+00 -0.23099851339E+03  0.52170016212E+03  0.46777210901E+03 0.  0.
      99925    2    3    3    0    0 -0.11147094169E+03 -0.47229307726E+02 -0.17758354925E+03  0.33960940221E+03  0.26294914101E+03 0.  0.
         25    1    4    4    0    0 -0.41473194810E+02 -0.49004438353E+02 -0.12097609237E+03  0.18548364858E+03  0.12509000000E+03 0.  0.
         25    1    3    3    0    0  0.11147094169E+03  0.47229307726E+02 -0.53414964131E+02  0.18209075990E+03  0.12509000000E+03 0.  0.
         25    1    4    4    0    0 -0.69997746879E+02  0.17751306269E+01 -0.56607456880E+02  0.15412575363E+03  0.12509000000E+03 0.  0.
<mgrwt>
<rscale>  2 0.46777211E+03</rscale>
<asrwt>0</asrwt>
<pdfrwt beam="1">  1       21 0.21375121E-01 0.46777211E+03</pdfrwt>
<pdfrwt beam="2">  1       21 0.55345491E-01 0.46777211E+03</pdfrwt>
<totfact> 0.57698337E+04</totfact>
</mgrwt>
</event>
<event>
 7    0  0.4766352E-002  0.4559910E+03  0.7546771E-02  0.1025950E+00
         21   -1    0    0  502  501  0.00000000000E+00  0.00000000000E+00  0.14845183855E+04  0.14845183855E+04  0.00000000000E+00 0.  1.
         21   -1    0    0  501  502 -0.00000000000E+00 -0.00000000000E+00 -0.35016042347E+02  0.35016042347E+02  0.00000000000E+00 0.  1.
      99926    2    1    2    0    0 -0.35527136788E-14  0.00000000000E+00  0.14495023431E+04  0.15195344278E+04  0.45599104662E+03 0.  0.
      99925    2    3    3    0    0 -0.21812624992E+02  0.59609675993E+02  0.59539150864E+03  0.65398146597E+03  0.26300495278E+03 0.  0.
         25    1    4    4    0    0 -0.46495763112E+02  0.22801554279E+02  0.25660477700E+03  0.29012977535E+03  0.12509000000E+03 0.  0.
         25    1    4    4    0    0  0.24683138120E+02  0.36808121714E+02  0.33878673164E+03  0.36385169062E+03  0.12509000000E+03 0.  0.
         25    1    3    3    0    0  0.21812624992E+02 -0.59609675993E+02  0.85411083449E+03  0.86555296185E+03  0.12509000000E+03 0.  0.
<mgrwt>
<rscale>  2 0.45599105E+03</rscale>
<asrwt>0</asrwt>
<pdfrwt beam="1">  1       21 0.21831149E+00 0.45599105E+03</pdfrwt>
<pdfrwt beam="2">  1       21 0.51494190E-02 0.45599105E+03</pdfrwt>
<totfact> 0.23125880E+04</totfact>
</mgrwt>
</event>
<event>
 7    0  0.4766352E-002  0.4513637E+03  0.7546771E-02  0.1027316E+00
         21   -1    0    0  502  501  0.00000000000E+00  0.00000000000E+00  0.81814107440E+03  0.81814107440E+03  0.00000000000E+00 0. -1.
         21   -1    0    0  501  502 -0.00000000000E+00 -0.00000000000E+00 -0.62253692119E+02  0.62253692119E+02  0.00000000000E+00 0. -1.
      99926    2    1    2    0    0 -0.17763568394E-14  0.00000000000E+00  0.75588738228E+03  0.88039476652E+03  0.45136372276E+03 0.  0.
      99925    2    3    3    0    0  0.13554203304E+02 -0.93165854306E+02  0.58741773507E+03  0.65040971708E+03  0.26288707035E+03 0.  0.
         25    1    3    3    0    0 -0.13554203304E+02  0.93165854306E+02  0.16846964721E+03  0.22998504944E+03  0.12509000000E+03 0.  0.
         25    1    4    4    0    0  0.25228276241E+02 -0.76802307425E+02  0.26488884240E+03  0.30388923521E+03  0.12509000000E+03 0.  0.
         25    1    4    4    0    0 -0.11674072937E+02 -0.16363546882E+02  0.32252889268E+03  0.34652048187E+03  0.12509000000E+03 0.  0.
<mgrwt>
<rscale>  2 0.45136372E+03</rscale>
<asrwt>0</asrwt>
<pdfrwt beam="1">  1       21 0.12031486E+00 0.45136372E+03</pdfrwt>
<pdfrwt beam="2">  1       21 0.91549552E-02 0.45136372E+03</pdfrwt>
<totfact> 0.45370596E+04</totfact>
</mgrwt>
</event>
<event>
 7    0  0.4766352E-002  0.4550093E+03  0.7546771E-02  0.1026239E+00
         21   -1    0    0  502  501  0.00000000000E+00  0.00000000000E+00  0.21024991434E+03  0.21024991434E+03  0.00000000000E+00 0. -1.
         21   -1    0    0  501  502 -0.00000000000E+00 -0.00000000000E+00 -0.24617540478E+03  0.24617540478E+03  0.00000000000E+00 0. -1.
      99926    2    1    2    0    0  0.00000000000E+00  0.00000000000E+00 -0.35925490436E+02  0.45642531912E+03  0.45500926482E+03 0.  0.
      99925    2    3    3    0    0  0.66578197750E+02 -0.57558459116E+02 -0.94684446914E+02  0.29257857457E+03  0.26247179883E+03 0.  0.
         25    1    3    3    0    0 -0.66578197750E+02  0.57558459116E+02  0.58758956478E+02  0.16384674454E+03  0.12509000000E+03 0.  0.
         25    1    4    4    0    0  0.21875590565E+02 -0.66411321060E+02 -0.41262139539E+02  0.14912772139E+03  0.12509000000E+03 0.  0.
         25    1    4    4    0    0  0.44702607186E+02  0.88528619441E+01 -0.53422307375E+02  0.14345085318E+03  0.12509000000E+03 0.  0.
<mgrwt>
<rscale>  2 0.45500926E+03</rscale>
<asrwt>0</asrwt>
<pdfrwt beam="1">  1       21 0.30919105E-01 0.45500926E+03</pdfrwt>
<pdfrwt beam="2">  1       21 0.36202265E-01 0.45500926E+03</pdfrwt>
<totfact> 0.68436475E+04</totfact>
</mgrwt>
</event>
<event>
 7    0  0.4766352E-002  0.4580369E+03  0.7546771E-02  0.1025352E+00
         21   -1    0    0  502  501  0.00000000000E+00  0.00000000000E+00  0.29712370151E+03  0.29712370151E+03  0.00000000000E+00 0. -1.
         21   -1    0    0  501  502 -0.00000000000E+00 -0.00000000000E+00 -0.17652392794E+03  0.17652392794E+03  0.00000000000E+00 0. -1.
      99926    2    1    2    0    0  0.00000000000E+00  0.00000000000E+00  0.12059977357E+03  0.47364762945E+03  0.45803686696E+03 0.  0.
      99925    2    3    3    0    0 -0.73349603544E+02 -0.85838379771E+02  0.47718389413E+02  0.29005134398E+03  0.26287705429E+03 0.  0.
         25    1    4    4    0    0 -0.49528165630E+02 -0.63073850709E+02  0.59714264528E+02  0.16013947459E+03  0.12509000000E+03 0.  0.
         25    1    4    4    0    0 -0.23821437914E+02 -0.22764529062E+02 -0.11995875115E+02  0.12991186939E+03  0.12509000000E+03 0.  0.
         25    1    3    3    0    0  0.73349603544E+02  0.85838379771E+02  0.72881384159E+02  0.18359628547E+03  0.12509000000E+03 0.  0.
<mgrwt>
<rscale>  2 0.45803687E+03</rscale>
<asrwt>0</asrwt>
<pdfrwt beam="1">  1       21 0.43694662E-01 0.45803687E+03</pdfrwt>
<pdfrwt beam="2">  1       21 0.25959401E-01 0.45803687E+03</pdfrwt>
<totfact> 0.65571290E+04</totfact>
</mgrwt>
</event>
<event>
 7    0  0.4766352E-002  0.4368663E+03  0.7546771E-02  0.1031713E+00
         21   -1    0    0  502  501  0.00000000000E+00  0.00000000000E+00  0.51703496759E+02  0.51703496759E+02  0.00000000000E+00 0. -1.
         21   -1    0    0  501  502 -0.00000000000E+00 -0.00000000000E+00 -0.92282056672E+03  0.92282056672E+03  0.00000000000E+00 0. -1.
      99926    2    1    2    0    0 -0.35527136788E-14 -0.71054273576E-14 -0.87111706996E+03  0.97452406348E+03  0.43686634194E+03 0.  0.
      99925    2    3    3    0    0  0.29221687669E+02  0.37353644531E+02 -0.74174352828E+03  0.78842134137E+03  0.26301244835E+03 0.  0.
         25    1    4    4    0    0 -0.24625778144E+02  0.80429635223E+01 -0.37021261016E+03  0.39163248465E+03  0.12509000000E+03 0.  0.
         25    1    4    4    0    0  0.53847465813E+02  0.29310681009E+02 -0.37153091812E+03  0.39678885671E+03  0.12509000000E+03 0.  0.
         25    1    3    3    0    0 -0.29221687669E+02 -0.37353644531E+02 -0.12937354168E+03  0.18610272211E+03  0.12509000000E+03 0.  0.
<mgrwt>
<rscale>  2 0.43686634E+03</rscale>
<asrwt>0</asrwt>
<pdfrwt beam="1">  1       21 0.76034558E-02 0.43686634E+03</pdfrwt>
<pdfrwt beam="2">  1       21 0.13570890E+00 0.43686634E+03</pdfrwt>
<totfact> 0.46399892E+04</totfact>
</mgrwt>
</event>
<event>
 7    0  0.4766352E-002  0.4507766E+03  0.7546771E-02  0.1027491E+00
         21   -1    0    0  502  501  0.00000000000E+00  0.00000000000E+00  0.31627505458E+03  0.31627505458E+03  0.00000000000E+00 0.  1.
         21   -1    0    0  501  502 -0.00000000000E+00 -0.00000000000E+00 -0.16061933945E+03  0.16061933945E+03  0.00000000000E+00 0.  1.
      99926    2    1    2    0    0  0.00000000000E+00  0.00000000000E+00  0.15565571513E+03  0.47689439402E+03  0.45077662029E+03 0.  0.
      99925    2    3    3    0    0  0.10808331455E+03 -0.73936455988E+01  0.11224134404E+03  0.30581258728E+03  0.26303336357E+03 0.  0.
         25    1    4    4    0    0  0.70001402410E+02 -0.47107651022E+01  0.17864380922E+02  0.14453038384E+03  0.12509000000E+03 0.  0.
         25    1    4    4    0    0  0.38081912144E+02 -0.26828804966E+01  0.94376963114E+02  0.16128220344E+03  0.12509000000E+03 0.  0.
         25    1    3    3    0    0 -0.10808331455E+03  0.73936455988E+01  0.43414371096E+02  0.17108180674E+03  0.12509000000E+03 0.  0.
<mgrwt>
<rscale>  2 0.45077662E+03</rscale>
<asrwt>0</asrwt>
<pdfrwt beam="1">  1       21 0.46511037E-01 0.45077662E+03</pdfrwt>
<pdfrwt beam="2">  1       21 0.23620491E-01 0.45077662E+03</pdfrwt>
<totfact> 0.69218264E+04</totfact>
</mgrwt>
</event>
<event>
 7    0  0.4766352E-002  0.4500271E+03  0.7546771E-02  0.1027714E+00
         21   -1    0    0  502  501  0.00000000000E+00  0.00000000000E+00  0.53184061163E+03  0.53184061163E+03  0.00000000000E+00 0.  1.
         21   -1    0    0  501  502 -0.00000000000E+00 -0.00000000000E+00 -0.95199775140E+02  0.95199775140E+02  0.00000000000E+00 0.  1.
      99926    2    1    2    0    0  0.71054273576E-14  0.00000000000E+00  0.43664083649E+03  0.62704038677E+03  0.45002713979E+03 0.  0.
      99925    2    3    3    0    0 -0.62853748616E+02 -0.27136648210E+01  0.39907010604E+03  0.48206788738E+03  0.26301053367E+03 0.  0.
         25    1    4    4    0    0 -0.49167028376E+02  0.35510172974E+01  0.14068577900E+03  0.19460216576E+03  0.12509000000E+03 0.  0.
         25    1    3    3    0    0  0.62853748616E+02  0.27136648210E+01  0.37570730450E+02  0.14497249939E+03  0.12509000000E+03 0.  0.
         25    1    4    4    0    0 -0.13686720240E+02 -0.62646821185E+01  0.25838432703E+03  0.28746572163E+03  0.12509000000E+03 0.  0.
<mgrwt>
<rscale>  2 0.45002714E+03</rscale>
<asrwt>0</asrwt>
<pdfrwt beam="1">  1       21 0.78211853E-01 0.45002714E+03</pdfrwt>
<pdfrwt beam="2">  1       21 0.13999967E-01 0.45002714E+03</pdfrwt>
<totfact> 0.59339464E+04</totfact>
</mgrwt>
</event>
<event>
 7    0  0.4766352E-002  0.4544247E+03  0.7546771E-02  0.1026411E+00
         21   -1    0    0  502  501  0.00000000000E+00  0.00000000000E+00  0.24177449492E+03  0.24177449492E+03  0.00000000000E+00 0. -1.
         21   -1    0    0  501  502 -0.00000000000E+00 -0.00000000000E+00 -0.21352727403E+03  0.21352727403E+03  0.00000000000E+00 0. -1.
      99926    2    1    2    0    0  0.00000000000E+00  0.17763568394E-14  0.28247220891E+02  0.45530176894E+03  0.45442468608E+03 0.  0.
      99925    2    3    3    0    0 -0.46458159832E+02  0.96279179448E+01  0.12013430375E+03  0.29300019312E+03  0.26299392542E+03 0.  0.
         25    1    3    3    0    0  0.46458159832E+02 -0.96279179448E+01 -0.91887082862E+02  0.16230157583E+03  0.12509000000E+03 0.  0.
         25    1    4    4    0    0 -0.27381928399E+02  0.14719915178E+02  0.10343415869E+03  0.16526517839E+03  0.12509000000E+03 0.  0.
         25    1    4    4    0    0 -0.19076231434E+02 -0.50919972330E+01  0.16700145067E+02  0.12773501472E+03  0.12509000000E+03 0.  0.
<mgrwt>
<rscale>  2 0.45442469E+03</rscale>
<asrwt>0</asrwt>
<pdfrwt beam="1">  1       21 0.35555073E-01 0.45442469E+03</pdfrwt>
<pdfrwt beam="2">  1       21 0.31401070E-01 0.45442469E+03</pdfrwt>
<totfact> 0.68839177E+04</totfact>
</mgrwt>
</event>
<event>
 7    0  0.4766352E-002  0.4584127E+03  0.7546771E-02  0.1025243E+00
         21   -1    0    0  502  501  0.00000000000E+00  0.00000000000E+00  0.98821048222E+02  0.98821048222E+02  0.00000000000E+00 0.  1.
         21   -1    0    0  501  502 -0.00000000000E+00 -0.00000000000E+00 -0.53162318347E+03  0.53162318347E+03  0.00000000000E+00 0.  1.
      99926    2    1    2    0    0  0.00000000000E+00 -0.88817841970E-15 -0.43280213525E+03  0.63044423169E+03  0.45841274088E+03 0.  0.
      99925    2    3    3    0    0  0.11102220930E+03 -0.19264101066E+01 -0.31962584330E+03  0.42848873369E+03  0.26289213221E+03 0.  0.
         25    1    3    3    0    0 -0.11102220930E+03  0.19264101066E+01 -0.11317629194E+03  0.20195549800E+03  0.12509000000E+03 0.  0.
         25    1    4    4    0    0  0.72108410283E+02  0.73192331163E+01 -0.22168697900E+03  0.26466170627E+03  0.12509000000E+03 0.  0.
         25    1    4    4    0    0  0.38913799020E+02 -0.92456432229E+01 -0.97938864301E+02  0.16382702742E+03  0.12509000000E+03 0.  0.
<mgrwt>
<rscale>  2 0.45841274E+03</rscale>
<asrwt>0</asrwt>
<pdfrwt beam="1">  1       21 0.14532507E-01 0.45841274E+03</pdfrwt>
<pdfrwt beam="2">  1       21 0.78179881E-01 0.45841274E+03</pdfrwt>
<totfact> 0.55336467E+04</totfact>
</mgrwt>
</event>
<event>
 7    0  0.4766352E-002  0.4525610E+03  0.7546771E-02  0.1026961E+00
         21   -1    0    0  502  501  0.00000000000E+00  0.00000000000E+00  0.13604969025E+03  0.13604969025E+03  0.00000000000E+00 0.  1.
         21   -1    0    0  501  502 -0.00000000000E+00 -0.00000000000E+00 -0.37635409921E+03  0.37635409921E+03  0.00000000000E+00 0.  1.
      99926    2    1    2    0    0 -0.88817841970E-15  0.00000000000E+00 -0.24030440896E+03  0.51240378946E+03  0.45256097323E+03 0.  0.
      99925    2    3    3    0    0  0.15162287067E+01 -0.95422766248E+02 -0.87992486515E+02  0.29341923958E+03  0.26314324845E+03 0.  0.
         25    1    4    4    0    0  0.14676899929E+02 -0.77058254122E+02 -0.19229280604E+02  0.14889815060E+03  0.12509000000E+03 0.  0.
         25    1    4    4    0    0 -0.13160671222E+02 -0.18364512126E+02 -0.68763205911E+02  0.14452108898E+03  0.12509000000E+03 0.  0.
         25    1    3    3    0    0 -0.15162287067E+01  0.95422766248E+02 -0.15231192245E+03  0.21898454988E+03  0.12509000000E+03 0.  0.
<mgrwt>
<rscale>  2 0.45256097E+03</rscale>
<asrwt>0</asrwt>
<pdfrwt beam="1">  1       21 0.20007307E-01 0.45256097E+03</pdfrwt>
<pdfrwt beam="2">  1       21 0.55346191E-01 0.45256097E+03</pdfrwt>
<totfact> 0.65669586E+04</totfact>
</mgrwt>
</event>
<event>
 7    0  0.4766352E-002  0.4690434E+03  0.7546771E-02  0.1022191E+00
         21   -1    0    0  502  501  0.00000000000E+00  0.00000000000E+00  0.76002561845E+02  0.76002561845E+02  0.00000000000E+00 0.  1.
         21   -1    0    0  501  502 -0.00000000000E+00 -0.00000000000E+00 -0.72366549972E+03  0.72366549972E+03  0.00000000000E+00 0.  1.
      99926    2    1    2    0    0  0.00000000000E+00 -0.71054273576E-14 -0.64766293787E+03  0.79966806156E+03  0.46904341760E+03 0.  0.
      99925    2    3    3    0    0 -0.10891547398E+03  0.60863333806E+02 -0.37437463123E+03  0.47424382688E+03  0.26302835769E+03 0.  0.
         25    1    4    4    0    0 -0.61818740507E+02  0.60342923246E+02 -0.24428848215E+03  0.28772764149E+03  0.12509000000E+03 0.  0.
         25    1    3    3    0    0  0.10891547398E+03 -0.60863333806E+02 -0.27328830664E+03  0.32542423468E+03  0.12509000000E+03 0.  0.
         25    1    4    4    0    0 -0.47096733468E+02  0.52041055965E+00 -0.13008614908E+03  0.18651618539E+03  0.12509000000E+03 0.  0.
<mgrwt>
<rscale>  2 0.46904342E+03</rscale>
<asrwt>0</asrwt>
<pdfrwt beam="1">  1       21 0.11176848E-01 0.46904342E+03</pdfrwt>
<pdfrwt beam="2">  1       21 0.10642139E+00 0.46904342E+03</pdfrwt>
<totfact> 0.42858601E+04</totfact>
</mgrwt>
</event>
<event>
 7    0  0.4766352E-002  0.4567367E+03  0.7546771E-02  0.1025732E+00
         21   -1    0    0  502  501  0.00000000000E+00  0.00000000000E+00  0.51585334813E+03  0.51585334813E+03  0.00000000000E+00 0.  1.
         21   -1    0    0  501  502 -0.00000000000E+00 -0.00000000000E+00 -0.10109869674E+03  0.10109869674E+03  0.00000000000E+00 0.  1.
      99926    2    1    2    0    0  0.00000000000E+00  0.00000000000E+00  0.41475465138E+03  0.61695204487E+03  0.45673669091E+03 0.  0.
      99925    2    3    3    0    0  0.98866159262E+02  0.41433201625E+02  0.20522454932E+03  0.35041574450E+03  0.26302633082E+03 0.  0.
         25    1    4    4    0    0  0.92602852294E+02  0.19328040006E+02  0.11141230859E+03  0.19237742068E+03  0.12509000000E+03 0.  0.
         25    1    4    4    0    0  0.62633069682E+01  0.22105161618E+02  0.93812240730E+02  0.15803832382E+03  0.12509000000E+03 0.  0.
         25    1    3    3    0    0 -0.98866159262E+02 -0.41433201625E+02  0.20953010206E+03  0.26653630037E+03  0.12509000000E+03 0.  0.
<mgrwt>
<rscale>  2 0.45673669E+03</rscale>
<asrwt>0</asrwt>
<pdfrwt beam="1">  1       21 0.75860785E-01 0.45673669E+03</pdfrwt>
<pdfrwt beam="2">  1       21 0.14867456E-01 0.45673669E+03</pdfrwt>
<totfact> 0.56862864E+04</totfact>
</mgrwt>
</event>
<event>
 7    0  0.4766352E-002  0.4568698E+03  0.7546771E-02  0.1025693E+00
         21   -1    0    0  502  501  0.00000000000E+00  0.00000000000E+00  0.30466420417E+03  0.30466420417E+03  0.00000000000E+00 0.  1.
         21   -1    0    0  501  502 -0.00000000000E+00 -0.00000000000E+00 -0.17127876830E+03  0.17127876830E+03  0.00000000000E+00 0.  1.
      99926    2    1    2    0    0  0.00000000000E+00  0.14210854715E-13  0.13338543588E+03  0.47594297247E+03  0.45686982669E+03 0.  0.
      99925    2    3    3    0    0 -0.45856973119E+02  0.10188187286E+03  0.11176020834E+03  0.30683372800E+03  0.26300915282E+03 0.  0.
         25    1    4    4    0    0  0.14223057092E+02  0.64519707640E+02  0.65199530135E+02  0.15576769516E+03  0.12509000000E+03 0.  0.
         25    1    4    4    0    0 -0.60080030212E+02  0.37362165218E+02  0.46560678207E+02  0.15106603283E+03  0.12509000000E+03 0.  0.
         25    1    3    3    0    0  0.45856973119E+02 -0.10188187286E+03  0.21625227535E+02  0.16910924447E+03  0.12509000000E+03 0.  0.
<mgrwt>
<rscale>  2 0.45686983E+03</rscale>
<asrwt>0</asrwt>
<pdfrwt beam="1">  1       21 0.44803560E-01 0.45686983E+03</pdfrwt>
<pdfrwt beam="2">  1       21 0.25188054E-01 0.45686983E+03</pdfrwt>
<totfact> 0.66011671E+04</totfact>
</mgrwt>
</event>
<event>
 7    0  0.4766352E-002  0.4597535E+03  0.7546771E-02  0.1024853E+00
         21   -1    0    0  502  501  0.00000000000E+00  0.00000000000E+00  0.64826196311E+03  0.64826196311E+03  0.00000000000E+00 0. -1.
         21   -1    0    0  501  502 -0.00000000000E+00 -0.00000000000E+00 -0.81515363234E+02  0.81515363234E+02  0.00000000000E+00 0. -1.
      99926    2    1    2    0    0 -0.14210854715E-13  0.00000000000E+00  0.56674659988E+03  0.72977732634E+03  0.45975345303E+03 0.  0.
      99925    2    3    3    0    0  0.97417174487E+02  0.19317567037E+02  0.25654800539E+03  0.38087339917E+03  0.26340917380E+03 0.  0.
         25    1    3    3    0    0 -0.97417174487E+02 -0.19317567037E+02  0.31019859448E+03  0.34890392718E+03  0.12509000000E+03 0.  0.
         25    1    4    4    0    0  0.64230003279E+01  0.14471211140E+02  0.12821171144E+03  0.17982330754E+03  0.12509000000E+03 0.  0.
         25    1    4    4    0    0  0.90994174159E+02  0.48463558972E+01  0.12833629395E+03  0.20105009162E+03  0.12509000000E+03 0.  0.
<mgrwt>
<rscale>  2 0.45975345E+03</rscale>
<asrwt>0</asrwt>
<pdfrwt beam="1">  1       21 0.95332639E-01 0.45975345E+03</pdfrwt>
<pdfrwt beam="2">  1       21 0.11987554E-01 0.45975345E+03</pdfrwt>
<totfact> 0.49441732E+04</totfact>
</mgrwt>
</event>
<event>
 7    0  0.4766352E-002  0.4252202E+03  0.7546771E-02  0.1035381E+00
         21   -1    0    0  502  501  0.00000000000E+00  0.00000000000E+00  0.27640943347E+03  0.27640943347E+03  0.00000000000E+00 0.  1.
         21   -1    0    0  501  502 -0.00000000000E+00 -0.00000000000E+00 -0.16353660300E+03  0.16353660300E+03  0.00000000000E+00 0.  1.
      99926    2    1    2    0    0 -0.71054273576E-14  0.17763568394E-14  0.11287283046E+03  0.43994603647E+03  0.42522022429E+03 0.  0.
      99925    2    3    3    0    0  0.55935129795E+02 -0.66648640297E+01  0.11477932924E+02  0.26935414773E+03  0.26314778129E+03 0.  0.
         25    1    3    3    0    0 -0.55935129795E+02  0.66648640297E+01  0.10139489754E+03  0.17059188874E+03  0.12509000000E+03 0.  0.
         25    1    4    4    0    0  0.37244674689E+02  0.31517443213E+02 -0.13331044522E+02  0.13492864732E+03  0.12509000000E+03 0.  0.
         25    1    4    4    0    0  0.18690455105E+02 -0.38182307242E+02  0.24808977446E+02  0.13442550041E+03  0.12509000000E+03 0.  0.
<mgrwt>
<rscale>  2 0.42522022E+03</rscale>
<asrwt>0</asrwt>
<pdfrwt beam="1">  1       21 0.40648446E-01 0.42522022E+03</pdfrwt>
<pdfrwt beam="2">  1       21 0.24049500E-01 0.42522022E+03</pdfrwt>
<totfact> 0.88967668E+04</totfact>
</mgrwt>
</event>
<event>
 7    0  0.4766352E-002  0.4560182E+03  0.7546771E-02  0.1025942E+00
         21   -1    0    0  502  501  0.00000000000E+00  0.00000000000E+00  0.37513589562E+03  0.37513589562E+03  0.00000000000E+00 0.  1.
         21   -1    0    0  501  502 -0.00000000000E+00 -0.00000000000E+00 -0.13858485344E+03  0.13858485344E+03  0.00000000000E+00 0.  1.
      99926    2    1    2    0    0  0.00000000000E+00  0.00000000000E+00  0.23655104218E+03  0.51372074906E+03  0.45601821505E+03 0.  0.
      99925    2    3    3    0    0 -0.33719029379E+02  0.67560767627E+02  0.52293362607E+02  0.27856158839E+03  0.26298390158E+03 0.  0.
         25    1    3    3    0    0  0.33719029379E+02 -0.67560767627E+02  0.18425767958E+03  0.23515916067E+03  0.12509000000E+03 0.  0.
         25    1    4    4    0    0 -0.38941193512E+02  0.56500553055E+02  0.64470381213E+00  0.14267674229E+03  0.12509000000E+03 0.  0.
         25    1    4    4    0    0  0.52221641336E+01  0.11060214572E+02  0.51648658795E+02  0.13588484610E+03  0.12509000000E+03 0.  0.
<mgrwt>
<rscale>  2 0.45601822E+03</rscale>
<asrwt>0</asrwt>
<pdfrwt beam="1">  1       21 0.55167043E-01 0.45601822E+03</pdfrwt>
<pdfrwt beam="2">  1       21 0.20380126E-01 0.45601822E+03</pdfrwt>
<totfact> 0.63800021E+04</totfact>
</mgrwt>
</event>
<event>
 7    0  0.4766352E-002  0.4551701E+03  0.7546771E-02  0.1026191E+00
         21   -1    0    0  502  501  0.00000000000E+00  0.00000000000E+00  0.66600860072E+02  0.66600860072E+02  0.00000000000E+00 0. -1.
         21   -1    0    0  501  502 -0.00000000000E+00 -0.00000000000E+00 -0.77769209049E+03  0.77769209049E+03  0.00000000000E+00 0. -1.
      99926    2    1    2    0    0  0.00000000000E+00 -0.71054273576E-14 -0.71109123042E+03  0.84429295056E+03  0.45517013126E+03 0.  0.
      99925    2    3    3    0    0  0.73560487327E+02 -0.57839190382E+02 -0.32829869788E+03  0.43085111873E+03  0.26286143544E+03 0.  0.
         25    1    4    4    0    0  0.77624147154E+02 -0.24402679936E+02 -0.16663961892E+03  0.22369011981E+03  0.12509000000E+03 0.  0.
         25    1    3    3    0    0 -0.73560487327E+02  0.57839190382E+02 -0.38279253254E+03  0.41344183183E+03  0.12509000000E+03 0.  0.
         25    1    4    4    0    0 -0.40636598273E+01 -0.33436510446E+02 -0.16165907896E+03  0.20716099892E+03  0.12509000000E+03 0.  0.
<mgrwt>
<rscale>  2 0.45517013E+03</rscale>
<asrwt>0</asrwt>
<pdfrwt beam="1">  1       21 0.97942447E-02 0.45517013E+03</pdfrwt>
<pdfrwt beam="2">  1       21 0.11436648E+00 0.45517013E+03</pdfrwt>
<totfact> 0.45634826E+04</totfact>
</mgrwt>
</event>
<event>
 7    0  0.4766352E-002  0.4645680E+03  0.7546771E-02  0.1023465E+00
         21   -1    0    0  502  501  0.00000000000E+00  0.00000000000E+00  0.33313665894E+02  0.33313665894E+02  0.00000000000E+00 0. -1.
         21   -1    0    0  501  502 -0.00000000000E+00 -0.00000000000E+00 -0.16196314166E+04  0.16196314166E+04  0.00000000000E+00 0. -1.
      99926    2    1    2    0    0  0.00000000000E+00 -0.14210854715E-13 -0.15863177507E+04  0.16529450825E+04  0.46456801390E+03 0.  0.
      99925    2    3    3    0    0  0.17729699587E+02 -0.12041309635E+03 -0.96126065198E+03  0.10039785650E+04  0.26293965463E+03 0.  0.
         25    1    4    4    0    0  0.14716868345E+02 -0.41346678555E+02 -0.58088500426E+03  0.59581962901E+03  0.12509000000E+03 0.  0.
         25    1    4    4    0    0  0.30128312414E+01 -0.79066417793E+02 -0.38037564772E+03  0.40815893602E+03  0.12509000000E+03 0.  0.
         25    1    3    3    0    0 -0.17729699587E+02  0.12041309635E+03 -0.62505709874E+03  0.64896651747E+03  0.12509000000E+03 0.  0.
<mgrwt>
<rscale>  2 0.46456801E+03</rscale>
<asrwt>0</asrwt>
<pdfrwt beam="1">  1       21 0.48990690E-02 0.46456801E+03</pdfrwt>
<pdfrwt beam="2">  1       21 0.23818107E+00 0.46456801E+03</pdfrwt>
<totfact> 0.18821821E+04</totfact>
</mgrwt>
</event>
<event>
 6    0  0.4766352E-002  0.4570315E+03  0.7546771E-02  0.1025646E+00
         21   -1    0    0  502  501  0.00000000000E+00  0.00000000000E+00  0.18230752822E+03  0.18230752822E+03  0.00000000000E+00 0. -1.
         21   -1    0    0  501  502 -0.00000000000E+00 -0.00000000000E+00 -0.28643600878E+03  0.28643600878E+03  0.00000000000E+00 0. -1.
      99926    2    1    2    0    0 -0.14210854715E-13 -0.44408920985E-15 -0.10412848056E+03  0.46874353700E+03  0.45703146830E+03 0.  0.
         25    1    3    3    0    0  0.81645792311E+01 -0.95364844722E+01 -0.10013136535E+02  0.12611651713E+03  0.12509000000E+03 0.  0.
         25    1    3    3    0    0 -0.10795934106E+03 -0.34168194110E+01 -0.73094114133E+02  0.18071289826E+03  0.12509000000E+03 0.  0.
         25    1    3    3    0    0  0.99794761827E+02  0.12953303883E+02 -0.21021229889E+02  0.16191412161E+03  0.12509000000E+03 0.  0.
<mgrwt>
<rscale>  2 0.45703147E+03</rscale>
<asrwt>0</asrwt>
<pdfrwt beam="1">  1       21 0.26809931E-01 0.45703147E+03</pdfrwt>
<pdfrwt beam="2">  1       21 0.42122942E-01 0.45703147E+03</pdfrwt>
<totfact> 0.66452252E+04</totfact>
</mgrwt>
</event>
<event>
 7    0  0.4766352E-002  0.4466247E+03  0.7546771E-02  0.1028733E+00
         21   -1    0    0  502  501  0.00000000000E+00  0.00000000000E+00  0.35462526488E+02  0.35462526488E+02  0.00000000000E+00 0.  1.
         21   -1    0    0  501  502 -0.00000000000E+00 -0.00000000000E+00 -0.14062282473E+04  0.14062282473E+04  0.00000000000E+00 0.  1.
      99926    2    1    2    0    0  0.00000000000E+00  0.00000000000E+00 -0.13707657208E+04  0.14416907738E+04  0.44662470360E+03 0.  0.
      99925    2    3    3    0    0  0.72667512699E+02  0.73231883864E+02 -0.93528350689E+03  0.97700190696E+03  0.26293347393E+03 0.  0.
         25    1    3    3    0    0 -0.72667512699E+02 -0.73231883864E+02 -0.43548221389E+03  0.46468886681E+03  0.12509000000E+03 0.  0.
         25    1    4    4    0    0  0.36019038417E+01  0.16931594989E+02 -0.48849337835E+03  0.50455221871E+03  0.12509000000E+03 0.  0.
         25    1    4    4    0    0  0.69065608858E+02  0.56300288875E+02 -0.44679012855E+03  0.47244968824E+03  0.12509000000E+03 0.  0.
<mgrwt>
<rscale>  2 0.44662470E+03</rscale>
<asrwt>0</asrwt>
<pdfrwt beam="1">  1       21 0.52150783E-02 0.44662470E+03</pdfrwt>
<pdfrwt beam="2">  1       21 0.20679824E+00 0.44662470E+03</pdfrwt>
<totfact> 0.26953723E+04</totfact>
</mgrwt>
</event>
<event>
 7    0  0.4766352E-002  0.4584538E+03  0.7546771E-02  0.1025231E+00
         21   -1    0    0  502  501  0.00000000000E+00  0.00000000000E+00  0.18318786375E+03  0.18318786375E+03  0.00000000000E+00 0. -1.
         21   -1    0    0  501  502 -0.00000000000E+00 -0.00000000000E+00 -0.28683647418E+03  0.28683647418E+03  0.00000000000E+00 0. -1.
      99926    2    1    2    0    0 -0.14210854715E-13  0.71054273576E-14 -0.10364861043E+03  0.47002433794E+03  0.45845375319E+03 0.  0.
      99925    2    3    3    0    0  0.10875124473E+03 -0.41309827695E+02 -0.69462406231E+02  0.29581314498E+03  0.26295827762E+03 0.  0.
         25    1    4    4    0    0  0.74622980160E+02 -0.55576239308E+02 -0.24361867935E+02  0.15779200313E+03  0.12509000000E+03 0.  0.
         25    1    4    4    0    0  0.34128264565E+02  0.14266411612E+02 -0.45100538295E+02  0.13802114185E+03  0.12509000000E+03 0.  0.
         25    1    3    3    0    0 -0.10875124473E+03  0.41309827695E+02 -0.34186204199E+02  0.17421119296E+03  0.12509000000E+03 0.  0.
<mgrwt>
<rscale>  2 0.45845375E+03</rscale>
<asrwt>0</asrwt>
<pdfrwt beam="1">  1       21 0.26939392E-01 0.45845375E+03</pdfrwt>
<pdfrwt beam="2">  1       21 0.42181834E-01 0.45845375E+03</pdfrwt>
<totfact> 0.65617972E+04</totfact>
</mgrwt>
</event>
<event>
 7    0  0.4766352E-002  0.4537958E+03  0.7546771E-02  0.1026596E+00
         21   -1    0    0  502  501  0.00000000000E+00  0.00000000000E+00  0.56867726938E+02  0.56867726938E+02  0.00000000000E+00 0. -1.
         21   -1    0    0  501  502 -0.00000000000E+00 -0.00000000000E+00 -0.90530527277E+03  0.90530527277E+03  0.00000000000E+00 0. -1.
      99926    2    1    2    0    0  0.00000000000E+00  0.00000000000E+00 -0.84843754583E+03  0.96217299971E+03  0.45379578247E+03 0.  0.
      99925    2    3    3    0    0 -0.40604914860E+02 -0.99325322679E+02 -0.46674013758E+03  0.54641501915E+03  0.26307553722E+03 0.  0.
         25    1    4    4    0    0 -0.48026008690E+02 -0.78796358320E+02 -0.28624556119E+03  0.32572901774E+03  0.12509000000E+03 0.  0.
         25    1    3    3    0    0  0.40604914860E+02  0.99325322679E+02 -0.38169740825E+03  0.41575798056E+03  0.12509000000E+03 0.  0.
         25    1    4    4    0    0  0.74210938305E+01 -0.20528964359E+02 -0.18049457639E+03  0.22068600141E+03  0.12509000000E+03 0.  0.
<mgrwt>
<rscale>  2 0.45379578E+03</rscale>
<asrwt>0</asrwt>
<pdfrwt beam="1">  1       21 0.83629011E-02 0.45379578E+03</pdfrwt>
<pdfrwt beam="2">  1       21 0.13313313E+00 0.45379578E+03</pdfrwt>
<totfact> 0.41036825E+04</totfact>
</mgrwt>
</event>
<event>
 7    0  0.4766352E-002  0.4537155E+03  0.7546771E-02  0.1026620E+00
         21   -1    0    0  502  501  0.00000000000E+00  0.00000000000E+00  0.75425547318E+03  0.75425547318E+03  0.00000000000E+00 0. -1.
         21   -1    0    0  501  502 -0.00000000000E+00 -0.00000000000E+00 -0.68232116667E+02  0.68232116667E+02  0.00000000000E+00 0. -1.
      99926    2    1    2    0    0 -0.35527136788E-14  0.00000000000E+00  0.68602335651E+03  0.82248758984E+03  0.45371553838E+03 0.  0.
      99925    2    3    3    0    0 -0.29318788395E+02 -0.10694817001E+03  0.40388771428E+03  0.49454623665E+03  0.26296994507E+03 0.  0.
         25    1    4    4    0    0  0.19553592255E+02 -0.33308502782E+02  0.16263082454E+03  0.20877761499E+03  0.12509000000E+03 0.  0.
         25    1    4    4    0    0 -0.48872380650E+02 -0.73639667228E+02  0.24125688974E+03  0.28576862166E+03  0.12509000000E+03 0.  0.
         25    1    3    3    0    0  0.29318788395E+02  0.10694817001E+03  0.28213564223E+03  0.32794135320E+03  0.12509000000E+03 0.  0.
<mgrwt>
<rscale>  2 0.45371554E+03</rscale>
<asrwt>0</asrwt>
<pdfrwt beam="1">  1       21 0.11091992E+00 0.45371554E+03</pdfrwt>
<pdfrwt beam="2">  1       21 0.10034135E-01 0.45371554E+03</pdfrwt>
<totfact> 0.47169888E+04</totfact>
</mgrwt>
</event>
<event>
 7    0  0.4766352E-002  0.4586968E+03  0.7546771E-02  0.1025160E+00
         21   -1    0    0  502  501  0.00000000000E+00  0.00000000000E+00  0.11463604076E+04  0.11463604076E+04  0.00000000000E+00 0. -1.
         21   -1    0    0  501  502 -0.00000000000E+00 -0.00000000000E+00 -0.45884955539E+02  0.45884955539E+02  0.00000000000E+00 0. -1.
      99926    2    1    2    0    0  0.00000000000E+00  0.00000000000E+00  0.11004754521E+04  0.11922453632E+04  0.45869683380E+03 0.  0.
      99925    2    3    3    0    0 -0.89040446813E+02  0.45304582273E+02  0.53385484993E+03  0.60344393548E+03  0.26298835742E+03 0.  0.
         25    1    4    4    0    0 -0.21819538553E+02  0.12999510610E+02  0.17884362205E+03  0.21972170759E+03  0.12509000000E+03 0.  0.
         25    1    4    4    0    0 -0.67220908260E+02  0.32305071663E+02  0.35501122787E+03  0.38372222789E+03  0.12509000000E+03 0.  0.
         25    1    3    3    0    0  0.89040446813E+02 -0.45304582273E+02  0.56662060216E+03  0.58880142768E+03  0.12509000000E+03 0.  0.
<mgrwt>
<rscale>  2 0.45869683E+03</rscale>
<asrwt>0</asrwt>
<pdfrwt beam="1">  1       21 0.16858239E+00 0.45869683E+03</pdfrwt>
<pdfrwt beam="2">  1       21 0.67477883E-02 0.45869683E+03</pdfrwt>
<totfact> 0.31486064E+04</totfact>
</mgrwt>
</event>
<event>
 7    0  0.4766352E-002  0.4294811E+03  0.7546771E-02  0.1034024E+00
         21   -1    0    0  502  501  0.00000000000E+00  0.00000000000E+00  0.55214629421E+03  0.55214629421E+03  0.00000000000E+00 0.  1.
         21   -1    0    0  501  502 -0.00000000000E+00 -0.00000000000E+00 -0.83516815913E+02  0.83516815913E+02  0.00000000000E+00 0.  1.
      99926    2    1    2    0    0  0.17763568394E-14  0.00000000000E+00  0.46862947830E+03  0.63566311013E+03  0.42948108415E+03 0.  0.
      99925    2    3    3    0    0 -0.10714086132E+02 -0.86440055202E+02  0.30194526152E+03  0.40979188352E+03  0.26300527002E+03 0.  0.
         25    1    4    4    0    0  0.10379527836E+02 -0.44995736955E+02  0.20615044837E+03  0.24551551154E+03  0.12509000000E+03 0.  0.
         25    1    3    3    0    0  0.10714086132E+02  0.86440055202E+02  0.16668421678E+03  0.22587122661E+03  0.12509000000E+03 0.  0.
         25    1    4    4    0    0 -0.21093613969E+02 -0.41444318247E+02  0.95794813150E+02  0.16427637198E+03  0.12509000000E+03 0.  0.
<mgrwt>
<rscale>  2 0.42948108E+03</rscale>
<asrwt>0</asrwt>
<pdfrwt beam="1">  1       21 0.81197983E-01 0.42948108E+03</pdfrwt>
<pdfrwt beam="2">  1       21 0.12281885E-01 0.42948108E+03</pdfrwt>
<totfact> 0.69506140E+04</totfact>
</mgrwt>
</event>
<event>
 7    0  0.4766352E-002  0.4578462E+03  0.7546771E-02  0.1025408E+00
         21   -1    0    0  502  501  0.00000000000E+00  0.00000000000E+00  0.11507039783E+03  0.11507039783E+03  0.00000000000E+00 0.  1.
         21   -1    0    0  501  502 -0.00000000000E+00 -0.00000000000E+00 -0.45542363389E+03  0.45542363389E+03  0.00000000000E+00 0.  1.
      99926    2    1    2    0    0  0.00000000000E+00  0.00000000000E+00 -0.34035323606E+03  0.57049403172E+03  0.45784616951E+03 0.  0.
      99925    2    3    3    0    0  0.20615124220E+02  0.11245392358E+03 -0.23753525507E+03  0.37227719694E+03  0.26286202786E+03 0.  0.
         25    1    4    4    0    0  0.20924250618E+02  0.64238218116E+02 -0.72296165527E+02  0.15949487948E+03  0.12509000000E+03 0.  0.
         25    1    4    4    0    0 -0.30912639875E+00  0.48215705460E+02 -0.16523908954E+03  0.21278231746E+03  0.12509000000E+03 0.  0.
         25    1    3    3    0    0 -0.20615124220E+02 -0.11245392358E+03 -0.10281798099E+03  0.19821683478E+03  0.12509000000E+03 0.  0.
<mgrwt>
<rscale>  2 0.45784617E+03</rscale>
<asrwt>0</asrwt>
<pdfrwt beam="1">  1       21 0.16922117E-01 0.45784617E+03</pdfrwt>
<pdfrwt beam="2">  1       21 0.66974064E-01 0.45784617E+03</pdfrwt>
<totfact> 0.59188772E+04</totfact>
</mgrwt>
</event>
<event>
 7    0  0.4766352E-002  0.4522045E+03  0.7546771E-02  0.1027067E+00
         21   -1    0    0  502  501  0.00000000000E+00  0.00000000000E+00  0.40687476029E+02  0.40687476029E+02  0.00000000000E+00 0. -1.
         21   -1    0    0  501  502 -0.00000000000E+00 -0.00000000000E+00 -0.12564610754E+04  0.12564610754E+04  0.00000000000E+00 0. -1.
      99926    2    1    2    0    0  0.00000000000E+00  0.00000000000E+00 -0.12157735994E+04  0.12971485515E+04  0.45220451076E+03 0.  0.
      99925    2    3    3    0    0  0.35225414312E+02  0.10097749460E+03 -0.84674573829E+03  0.89308623621E+03  0.26303497062E+03 0.  0.
         25    1    3    3    0    0 -0.35225414312E+02 -0.10097749460E+03 -0.36902786112E+03  0.40406231526E+03  0.12509000000E+03 0.  0.
         25    1    4    4    0    0  0.11448464737E+02  0.37580522232E+02 -0.52813448479E+03  0.54416624768E+03  0.12509000000E+03 0.  0.
         25    1    4    4    0    0  0.23776949575E+02  0.63396972365E+02 -0.31861125351E+03  0.34891998853E+03  0.12509000000E+03 0.  0.
<mgrwt>
<rscale>  2 0.45220451E+03</rscale>
<asrwt>0</asrwt>
<pdfrwt beam="1">  1       21 0.59834532E-02 0.45220451E+03</pdfrwt>
<pdfrwt beam="2">  1       21 0.18477366E+00 0.45220451E+03</pdfrwt>
<totfact> 0.29841150E+04</totfact>
</mgrwt>
</event>
<event>
 7    0  0.4766352E-002  0.4272827E+03  0.7546771E-02  0.1034722E+00
         21   -1    0    0  502  501  0.00000000000E+00  0.00000000000E+00  0.29191157500E+02  0.29191157500E+02  0.00000000000E+00 0. -1.
         21   -1    0    0  501  502 -0.00000000000E+00 -0.00000000000E+00 -0.15635771157E+04  0.15635771157E+04  0.00000000000E+00 0. -1.
      99926    2    1    2    0    0  0.14210854715E-13 -0.71054273576E-14 -0.15343859582E+04  0.15927682732E+04  0.42728269727E+03 0.  0.
      99925    2    3    3    0    0  0.66793509393E+02 -0.35904665570E+02 -0.85238213150E+03  0.89525322272E+03  0.26300668583E+03 0.  0.
         25    1    3    3    0    0 -0.66793509393E+02  0.35904665570E+02 -0.68200382669E+03  0.69751505046E+03  0.12509000000E+03 0.  0.
         25    1    4    4    0    0 -0.99489321868E+00 -0.17457164084E+02 -0.47544326519E+03  0.49193449656E+03  0.12509000000E+03 0.  0.
         25    1    4    4    0    0  0.67788402612E+02 -0.18447501486E+02 -0.37693886631E+03  0.40331872616E+03  0.12509000000E+03 0.  0.
<mgrwt>
<rscale>  2 0.42728270E+03</rscale>
<asrwt>0</asrwt>
<pdfrwt beam="1">  1       21 0.42928162E-02 0.42728270E+03</pdfrwt>
<pdfrwt beam="2">  1       21 0.22993787E+00 0.42728270E+03</pdfrwt>
<totfact> 0.26942867E+04</totfact>
</mgrwt>
</event>
<event>
 7    0  0.4766352E-002  0.4611408E+03  0.7546771E-02  0.1024451E+00
         21   -1    0    0  502  501  0.00000000000E+00  0.00000000000E+00  0.44727695272E+02  0.44727695272E+02  0.00000000000E+00 0.  1.
         21   -1    0    0  501  502 -0.00000000000E+00 -0.00000000000E+00 -0.11885861770E+04  0.11885861770E+04  0.00000000000E+00 0.  1.
      99926    2    1    2    0    0 -0.14210854715E-13 -0.14210854715E-13 -0.11438584817E+04  0.12333138722E+04  0.46114084758E+03 0.  0.
      99925    2    3    3    0    0 -0.70527968481E+02 -0.92949860986E+02 -0.65632117644E+03  0.71663795533E+03  0.26305627037E+03 0.  0.
         25    1    4    4    0    0 -0.58399995946E+02 -0.14945655435E+02 -0.28807145865E+03  0.31979150322E+03  0.12509000000E+03 0.  0.
         25    1    4    4    0    0 -0.12127972535E+02 -0.78004205551E+02 -0.36824971779E+03  0.39684645211E+03  0.12509000000E+03 0.  0.
         25    1    3    3    0    0  0.70527968481E+02  0.92949860986E+02 -0.48753730524E+03  0.51667591690E+03  0.12509000000E+03 0.  0.
<mgrwt>
<rscale>  2 0.46114085E+03</rscale>
<asrwt>0</asrwt>
<pdfrwt beam="1">  1       21 0.65776027E-02 0.46114085E+03</pdfrwt>
<pdfrwt beam="2">  1       21 0.17479207E+00 0.46114085E+03</pdfrwt>
<totfact> 0.29670423E+04</totfact>
</mgrwt>
</event>
<event>
 7    0  0.4766352E-002  0.4556589E+03  0.7546771E-02  0.1026048E+00
         21   -1    0    0  502  501  0.00000000000E+00  0.00000000000E+00  0.16797927444E+03  0.16797927444E+03  0.00000000000E+00 0. -1.
         21   -1    0    0  501  502 -0.00000000000E+00 -0.00000000000E+00 -0.30900387686E+03  0.30900387686E+03  0.00000000000E+00 0. -1.
      99926    2    1    2    0    0 -0.17763568394E-14  0.00000000000E+00 -0.14102460242E+03  0.47698315129E+03  0.45565885060E+03 0.  0.
      99925    2    3    3    0    0 -0.10971033892E+02 -0.20311720100E+02  0.28728024219E+02  0.26485962146E+03  0.26228303442E+03 0.  0.
         25    1    3    3    0    0  0.10971033892E+02  0.20311720100E+02 -0.16975262664E+03  0.21212352983E+03  0.12509000000E+03 0.  0.
         25    1    4    4    0    0  0.11164959086E+01  0.76440451383E+01 -0.20558938716E+02  0.12700337023E+03  0.12509000000E+03 0.  0.
         25    1    4    4    0    0 -0.12087529800E+02 -0.27955765238E+02  0.49286962936E+02  0.13785625123E+03  0.12509000000E+03 0.  0.
<mgrwt>
<rscale>  2 0.45565885E+03</rscale>
<asrwt>0</asrwt>
<pdfrwt beam="1">  1       21 0.24702834E-01 0.45565885E+03</pdfrwt>
<pdfrwt beam="2">  1       21 0.45441747E-01 0.45565885E+03</pdfrwt>
<totfact> 0.66571585E+04</totfact>
</mgrwt>
</event>
<event>
 7    0  0.4766352E-002  0.4578817E+03  0.7546771E-02  0.1025397E+00
         21   -1    0    0  502  501  0.00000000000E+00  0.00000000000E+00  0.64654893017E+02  0.64654893017E+02  0.00000000000E+00 0.  1.
         21   -1    0    0  501  502 -0.00000000000E+00 -0.00000000000E+00 -0.81067217236E+03  0.81067217236E+03  0.00000000000E+00 0.  1.
      99926    2    1    2    0    0  0.14210854715E-13  0.00000000000E+00 -0.74601727934E+03  0.87532706537E+03  0.45788174271E+03 0.  0.
      99925    2    3    3    0    0 -0.78106504226E+02 -0.44714847864E+02 -0.60741133677E+03  0.66806115154E+03  0.26316748762E+03 0.  0.
         25    1    4    4    0    0 -0.73132655894E+02  0.86595642114E+00 -0.31565454241E+03  0.34732468021E+03  0.12509000000E+03 0.  0.
         25    1    4    4    0    0 -0.49738483320E+01 -0.45580804285E+02 -0.29175679435E+03  0.32073647132E+03  0.12509000000E+03 0.  0.
         25    1    3    3    0    0  0.78106504226E+02  0.44714847864E+02 -0.13860594257E+03  0.20726591384E+03  0.12509000000E+03 0.  0.
<mgrwt>
<rscale>  2 0.45788174E+03</rscale>
<asrwt>0</asrwt>
<pdfrwt beam="1">  1       21 0.95080721E-02 0.45788174E+03</pdfrwt>
<pdfrwt beam="2">  1       21 0.11921650E+00 0.45788174E+03</pdfrwt>
<totfact> 0.43331325E+04</totfact>
</mgrwt>
</event>
<event>
 7    0  0.4766352E-002  0.4264931E+03  0.7546771E-02  0.1034974E+00
         21   -1    0    0  502  501  0.00000000000E+00  0.00000000000E+00  0.71573744176E+02  0.71573744176E+02  0.00000000000E+00 0.  1.
         21   -1    0    0  501  502 -0.00000000000E+00 -0.00000000000E+00 -0.63534599761E+03  0.63534599761E+03  0.00000000000E+00 0.  1.
      99926    2    1    2    0    0  0.00000000000E+00  0.14210854715E-13 -0.56377225343E+03  0.70691974178E+03  0.42649310379E+03 0.  0.
      99925    2    3    3    0    0  0.37851777640E+02 -0.74167355262E+02 -0.35085750866E+03  0.44631707430E+03  0.26299122756E+03 0.  0.
         25    1    3    3    0    0 -0.37851777640E+02  0.74167355262E+02 -0.21291474477E+03  0.26060266748E+03  0.12509000000E+03 0.  0.
         25    1    4    4    0    0  0.25198013306E+02 -0.78668851029E+02 -0.18352385088E+03  0.23696463858E+03  0.12509000000E+03 0.  0.
         25    1    4    4    0    0  0.12653764334E+02  0.45014957664E+01 -0.16733365778E+03  0.20935243572E+03  0.12509000000E+03 0.  0.
<mgrwt>
<rscale>  2 0.42649310E+03</rscale>
<asrwt>0</asrwt>
<pdfrwt beam="1">  1       21 0.10525551E-01 0.42649310E+03</pdfrwt>
<pdfrwt beam="2">  1       21 0.93433234E-01 0.42649310E+03</pdfrwt>
<totfact> 0.66167494E+04</totfact>
</mgrwt>
</event>
<event>
 7    0  0.4766352E-002  0.4334415E+03  0.7546771E-02  0.1032778E+00
         21   -1    0    0  502  501  0.00000000000E+00  0.00000000000E+00  0.15914367158E+03  0.15914367158E+03  0.00000000000E+00 0. -1.
         21   -1    0    0  501  502 -0.00000000000E+00 -0.00000000000E+00 -0.29512876807E+03  0.29512876807E+03  0.00000000000E+00 0. -1.
      99926    2    1    2    0    0  0.17763568394E-14  0.00000000000E+00 -0.13598509648E+03  0.45427243965E+03  0.43344146428E+03 0.  0.
      99925    2    3    3    0    0 -0.10290511248E+02 -0.90571408448E+02 -0.95812326294E+02  0.29436485942E+03  0.26298591966E+03 0.  0.
         25    1    3    3    0    0  0.10290511248E+02  0.90571408448E+02 -0.40172770190E+02  0.15990758023E+03  0.12509000000E+03 0.  0.
         25    1    4    4    0    0 -0.29296773770E+02 -0.34382533411E+02 -0.79550955768E+02  0.15497200464E+03  0.12509000000E+03 0.  0.
         25    1    4    4    0    0  0.19006262522E+02 -0.56188875037E+02 -0.16261370526E+02  0.13939285478E+03  0.12509000000E+03 0.  0.
<mgrwt>
<rscale>  2 0.43344146E+03</rscale>
<asrwt>0</asrwt>
<pdfrwt beam="1">  1       21 0.23403481E-01 0.43344146E+03</pdfrwt>
<pdfrwt beam="2">  1       21 0.43401289E-01 0.43344146E+03</pdfrwt>
<totfact> 0.81733330E+04</totfact>
</mgrwt>
</event>
<event>
 7    0  0.4766352E-002  0.4564909E+03  0.7546771E-02  0.1025804E+00
         21   -1    0    0  502  501  0.00000000000E+00  0.00000000000E+00  0.83282586140E+02  0.83282586140E+02  0.00000000000E+00 0. -1.
         21   -1    0    0  501  502 -0.00000000000E+00 -0.00000000000E+00 -0.62553271868E+03  0.62553271868E+03  0.00000000000E+00 0. -1.
      99926    2    1    2    0    0  0.00000000000E+00  0.00000000000E+00 -0.54225013254E+03  0.70881530482E+03  0.45649088721E+03 0.  0.
      99925    2    3    3    0    0  0.77654017123E+02 -0.85035521079E+01 -0.47075327539E+03  0.54491971166E+03  0.26310908212E+03 0.  0.
         25    1    3    3    0    0 -0.77654017123E+02  0.85035521079E+01 -0.71496857144E+02  0.16389559315E+03  0.12509000000E+03 0.  0.
         25    1    4    4    0    0  0.42452364430E+02 -0.18267103721E+02 -0.16223535692E+03  0.21000883186E+03  0.12509000000E+03 0.  0.
         25    1    4    4    0    0  0.35201652694E+02  0.97635516135E+01 -0.30851791847E+03  0.33491087980E+03  0.12509000000E+03 0.  0.
<mgrwt>
<rscale>  2 0.45649089E+03</rscale>
<asrwt>0</asrwt>
<pdfrwt beam="1">  1       21 0.12247439E-01 0.45649089E+03</pdfrwt>
<pdfrwt beam="2">  1       21 0.91990104E-01 0.45649089E+03</pdfrwt>
<totfact> 0.51816464E+04</totfact>
</mgrwt>
</event>
<event>
 7    0  0.4766352E-002  0.4488396E+03  0.7546771E-02  0.1028069E+00
         21   -1    0    0  502  501  0.00000000000E+00  0.00000000000E+00  0.17114421712E+03  0.17114421712E+03  0.00000000000E+00 0.  1.
         21   -1    0    0  501  502 -0.00000000000E+00 -0.00000000000E+00 -0.29427963409E+03  0.29427963409E+03  0.00000000000E+00 0.  1.
      99926    2    1    2    0    0  0.00000000000E+00 -0.35527136788E-14 -0.12313541697E+03  0.46542385121E+03  0.44883964883E+03 0.  0.
      99925    2    3    3    0    0  0.98299818802E+02  0.19206165712E+02 -0.37965070495E+02  0.28394870912E+03  0.26297108520E+03 0.  0.
         25    1    4    4    0    0  0.29358860411E+02  0.38407886651E+02  0.29475425412E+01  0.13413912386E+03  0.12509000000E+03 0.  0.
         25    1    3    3    0    0 -0.98299818802E+02 -0.19206165712E+02 -0.85170346474E+02  0.18147514209E+03  0.12509000000E+03 0.  0.
         25    1    4    4    0    0  0.68940958391E+02 -0.19201720939E+02 -0.40912613036E+02  0.14980958526E+03  0.12509000000E+03 0.  0.
<mgrwt>
<rscale>  2 0.44883965E+03</rscale>
<asrwt>0</asrwt>
<pdfrwt beam="1">  1       21 0.25168268E-01 0.44883965E+03</pdfrwt>
<pdfrwt beam="2">  1       21 0.43276416E-01 0.44883965E+03</pdfrwt>
<totfact> 0.71193749E+04</totfact>
</mgrwt>
</event>
<event>
 7    0  0.4766352E-002  0.4469806E+03  0.7546771E-02  0.1028626E+00
         21   -1    0    0  502  501  0.00000000000E+00  0.00000000000E+00  0.23633691753E+03  0.23633691753E+03  0.00000000000E+00 0. -1.
         21   -1    0    0  501  502 -0.00000000000E+00 -0.00000000000E+00 -0.21134198182E+03  0.21134198182E+03  0.00000000000E+00 0. -1.
      99926    2    1    2    0    0 -0.35527136788E-14  0.35527136788E-14  0.24994935705E+02  0.44767889935E+03  0.44698059255E+03 0.  0.
      99925    2    3    3    0    0 -0.24275542149E+02  0.24781978563E+02  0.11528077929E+03  0.28955714228E+03  0.26334432244E+03 0.  0.
         25    1    4    4    0    0  0.10043160850E+02 -0.22462228616E+02  0.58993704461E+02  0.14047484494E+03  0.12509000000E+03 0.  0.
         25    1    3    3    0    0  0.24275542149E+02 -0.24781978563E+02 -0.90285843584E+02  0.15812175707E+03  0.12509000000E+03 0.  0.
         25    1    4    4    0    0 -0.34318702999E+02  0.47244207179E+02  0.56287074828E+02  0.14908229734E+03  0.12509000000E+03 0.  0.
<mgrwt>
<rscale>  2 0.44698059E+03</rscale>
<asrwt>0</asrwt>
<pdfrwt beam="1">  1       21 0.34755429E-01 0.44698059E+03</pdfrwt>
<pdfrwt beam="2">  1       21 0.31079703E-01 0.44698059E+03</pdfrwt>
<totfact> 0.73688870E+04</totfact>
</mgrwt>
</event>
<event>
 7    0  0.4766352E-002  0.4567572E+03  0.7546771E-02  0.1025726E+00
         21   -1    0    0  502  501  0.00000000000E+00  0.00000000000E+00  0.62373232352E+03  0.62373232352E+03  0.00000000000E+00 0. -1.
         21   -1    0    0  501  502 -0.00000000000E+00 -0.00000000000E+00 -0.83620460080E+02  0.83620460080E+02  0.00000000000E+00 0. -1.
      99926    2    1    2    0    0  0.00000000000E+00 -0.71054273576E-14  0.54011186344E+03  0.70735278360E+03  0.45675719528E+03 0.  0.
      99925    2    3    3    0    0 -0.74508295729E+02  0.60452873970E+02  0.24622856741E+03  0.37385475378E+03  0.26444816773E+03 0.  0.
         25    1    4    4    0    0 -0.46257832201E+02  0.13463423571E+02  0.17308982898E+03  0.21892612410E+03  0.12509000000E+03 0.  0.
         25    1    4    4    0    0 -0.28250463528E+02  0.46989450400E+02  0.73138738422E+02  0.15492862969E+03  0.12509000000E+03 0.  0.
         25    1    3    3    0    0  0.74508295729E+02 -0.60452873970E+02  0.29388329603E+03  0.33349802981E+03  0.12509000000E+03 0.  0.
<mgrwt>
<rscale>  2 0.45675720E+03</rscale>
<asrwt>0</asrwt>
<pdfrwt beam="1">  1       21 0.91725340E-01 0.45675720E+03</pdfrwt>
<pdfrwt beam="2">  1       21 0.12297127E-01 0.45675720E+03</pdfrwt>
<totfact> 0.51785851E+04</totfact>
</mgrwt>
</event>
<event>
 7    0  0.4766352E-002  0.4506768E+03  0.7546771E-02  0.1027520E+00
         21   -1    0    0  502  501  0.00000000000E+00  0.00000000000E+00  0.36366280271E+03  0.36366280271E+03  0.00000000000E+00 0.  1.
         21   -1    0    0  501  502 -0.00000000000E+00 -0.00000000000E+00 -0.13962765884E+03  0.13962765884E+03  0.00000000000E+00 0.  1.
      99926    2    1    2    0    0  0.00000000000E+00 -0.14210854715E-13  0.22403514387E+03  0.50329046155E+03  0.45067676110E+03 0.  0.
      99925    2    3    3    0    0  0.41762439467E+02  0.98954243832E+02  0.11999623085E+03  0.30833496087E+03  0.26293594078E+03 0.  0.
         25    1    4    4    0    0  0.73712479731E+00  0.26205531504E+02  0.86246315106E+02  0.15418562904E+03  0.12509000000E+03 0.  0.
         25    1    3    3    0    0 -0.41762439467E+02 -0.98954243832E+02  0.10403891302E+03  0.19495550068E+03  0.12509000000E+03 0.  0.
         25    1    4    4    0    0  0.41025314669E+02  0.72748712328E+02  0.33749915743E+02  0.15414933182E+03  0.12509000000E+03 0.  0.
<mgrwt>
<rscale>  2 0.45067676E+03</rscale>
<asrwt>0</asrwt>
<pdfrwt beam="1">  1       21 0.53479824E-01 0.45067676E+03</pdfrwt>
<pdfrwt beam="2">  1       21 0.20533479E-01 0.45067676E+03</pdfrwt>
<totfact> 0.67320674E+04</totfact>
</mgrwt>
</event>
<event>
 7    0  0.4766352E-002  0.4498980E+03  0.7546771E-02  0.1027752E+00
         21   -1    0    0  502  501  0.00000000000E+00  0.00000000000E+00  0.24213515315E+03  0.24213515315E+03  0.00000000000E+00 0.  1.
         21   -1    0    0  501  502 -0.00000000000E+00 -0.00000000000E+00 -0.20898270783E+03  0.20898270783E+03  0.00000000000E+00 0.  1.
      99926    2    1    2    0    0  0.88817841970E-15  0.00000000000E+00  0.33152445319E+02  0.45111786098E+03  0.44989803274E+03 0.  0.
      99925    2    3    3    0    0  0.74188752329E+01  0.89670928137E+02  0.81454587038E+02  0.28963560171E+03  0.26297911888E+03 0.  0.
         25    1    4    4    0    0  0.25086018676E+02  0.76866643607E+02  0.26549970783E+02  0.15129507025E+03  0.12509000000E+03 0.  0.
         25    1    3    3    0    0 -0.74188752329E+01 -0.89670928137E+02 -0.48302141719E+02  0.16148225927E+03  0.12509000000E+03 0.  0.
         25    1    4    4    0    0 -0.17667143443E+02  0.12804284530E+02  0.54904616256E+02  0.13834053146E+03  0.12509000000E+03 0.  0.
<mgrwt>
<rscale>  2 0.44989803E+03</rscale>
<asrwt>0</asrwt>
<pdfrwt beam="1">  1       21 0.35608111E-01 0.44989803E+03</pdfrwt>
<pdfrwt beam="2">  1       21 0.30732751E-01 0.44989803E+03</pdfrwt>
<totfact> 0.71705970E+04</totfact>
</mgrwt>
</event>
<event>
 7    0  0.4766352E-002  0.4588012E+03  0.7546771E-02  0.1025129E+00
         21   -1    0    0  502  501  0.00000000000E+00  0.00000000000E+00  0.22789277013E+03  0.22789277013E+03  0.00000000000E+00 0.  1.
         21   -1    0    0  501  502 -0.00000000000E+00 -0.00000000000E+00 -0.23091845197E+03  0.23091845197E+03  0.00000000000E+00 0.  1.
      99926    2    1    2    0    0  0.00000000000E+00  0.00000000000E+00 -0.30256818423E+01  0.45881122210E+03  0.45880124539E+03 0.  0.
      99925    2    3    3    0    0 -0.19464638620E+02 -0.19381821865E+02  0.11156350504E+03  0.28696036517E+03  0.26295495498E+03 0.  0.
         25    1    4    4    0    0 -0.47991760020E+02 -0.21307518672E+02  0.65271961618E+02  0.15054951496E+03  0.12509000000E+03 0.  0.
         25    1    4    4    0    0  0.28527121400E+02  0.19256968066E+01  0.46291543418E+02  0.13641085021E+03  0.12509000000E+03 0.  0.
         25    1    3    3    0    0  0.19464638620E+02  0.19381821865E+02 -0.11458918688E+03  0.17185085692E+03  0.12509000000E+03 0.  0.
<mgrwt>
<rscale>  2 0.45880125E+03</rscale>
<asrwt>0</asrwt>
<pdfrwt beam="1">  1       21 0.33513643E-01 0.45880125E+03</pdfrwt>
<pdfrwt beam="2">  1       21 0.33958596E-01 0.45880125E+03</pdfrwt>
<totfact> 0.66235643E+04</totfact>
</mgrwt>
</event>
<event>
 7    0  0.4766352E-002  0.4630992E+03  0.7546771E-02  0.1023886E+00
         21   -1    0    0  502  501  0.00000000000E+00  0.00000000000E+00  0.22176115646E+03  0.22176115646E+03  0.00000000000E+00 0. -1.
         21   -1    0    0  501  502 -0.00000000000E+00 -0.00000000000E+00 -0.24177014708E+03  0.24177014708E+03  0.00000000000E+00 0. -1.
      99926    2    1    2    0    0  0.00000000000E+00  0.00000000000E+00 -0.20008990616E+02  0.46353130355E+03  0.46309924386E+03 0.  0.
      99925    2    3    3    0    0 -0.10043262444E+03 -0.60947711268E+02  0.14748258864E+02  0.28844015571E+03  0.26301877637E+03 0.  0.
         25    1    4    4    0    0 -0.54604910223E+02  0.35301680870E+01 -0.15389947303E+02  0.13739911530E+03  0.12509000000E+03 0.  0.
         25    1    3    3    0    0  0.10043262444E+03  0.60947711268E+02 -0.34757249480E+02  0.17509114784E+03  0.12509000000E+03 0.  0.
         25    1    4    4    0    0 -0.45827714215E+02 -0.64477879355E+02  0.30138206168E+02  0.15104104041E+03  0.12509000000E+03 0.  0.
<mgrwt>
<rscale>  2 0.46309924E+03</rscale>
<asrwt>0</asrwt>
<pdfrwt beam="1">  1       21 0.32611935E-01 0.46309924E+03</pdfrwt>
<pdfrwt beam="2">  1       21 0.35554433E-01 0.46309924E+03</pdfrwt>
<totfact> 0.63707690E+04</totfact>
</mgrwt>
</event>
<event>
 7    0  0.4766352E-002  0.4541858E+03  0.7546771E-02  0.1026481E+00
         21   -1    0    0  502  501  0.00000000000E+00  0.00000000000E+00  0.34340434685E+02  0.34340434685E+02  0.00000000000E+00 0.  1.
         21   -1    0    0  501  502 -0.00000000000E+00 -0.00000000000E+00 -0.15017626298E+04  0.15017626298E+04  0.00000000000E+00 0.  1.
      99926    2    1    2    0    0  0.00000000000E+00 -0.71054273576E-14 -0.14674221952E+04  0.15361030645E+04  0.45418578359E+03 0.  0.
      99925    2    3    3    0    0  0.98365253673E+02  0.47863237709E+02 -0.83646471391E+03  0.88362972109E+03  0.26298603332E+03 0.  0.
         25    1    3    3    0    0 -0.98365253673E+02 -0.47863237709E+02 -0.63095748125E+03  0.65247334344E+03  0.12509000000E+03 0.  0.
         25    1    4    4    0    0  0.75478979783E+01  0.17082496611E+02 -0.34103452826E+03  0.36373182432E+03  0.12509000000E+03 0.  0.
         25    1    4    4    0    0  0.90817355694E+02  0.30780741098E+02 -0.49543018565E+03  0.51989789678E+03  0.12509000000E+03 0.  0.
<mgrwt>
<rscale>  2 0.45418578E+03</rscale>
<asrwt>0</asrwt>
<pdfrwt beam="1">  1       21 0.50500659E-02 0.45418578E+03</pdfrwt>
<pdfrwt beam="2">  1       21 0.22084736E+00 0.45418578E+03</pdfrwt>
<totfact> 0.23053465E+04</totfact>
</mgrwt>
</event>
<event>
 7    0  0.4766352E-002  0.4547829E+03  0.7546771E-02  0.1026305E+00
         21   -1    0    0  502  501  0.00000000000E+00  0.00000000000E+00  0.10514509348E+03  0.10514509348E+03  0.00000000000E+00 0. -1.
         21   -1    0    0  501  502 -0.00000000000E+00 -0.00000000000E+00 -0.49176676048E+03  0.49176676048E+03  0.00000000000E+00 0. -1.
      99926    2    1    2    0    0  0.00000000000E+00 -0.17763568394E-14 -0.38662166700E+03  0.59691185396E+03  0.45478285807E+03 0.  0.
      99925    2    3    3    0    0 -0.50012298534E+02 -0.10475131766E+02 -0.37551881445E+03  0.46133257890E+03  0.26306350936E+03 0.  0.
         25    1    4    4    0    0 -0.55830820947E+02  0.87300295576E+01 -0.23487253215E+03  0.27204026989E+03  0.12509000000E+03 0.  0.
         25    1    3    3    0    0  0.50012298534E+02  0.10475131766E+02 -0.11102852551E+02  0.13557927506E+03  0.12509000000E+03 0.  0.
         25    1    4    4    0    0  0.58185224131E+01 -0.19205161324E+02 -0.14064628230E+03  0.18929230901E+03  0.12509000000E+03 0.  0.
<mgrwt>
<rscale>  2 0.45478286E+03</rscale>
<asrwt>0</asrwt>
<pdfrwt beam="1">  1       21 0.15462514E-01 0.45478286E+03</pdfrwt>
<pdfrwt beam="2">  1       21 0.72318640E-01 0.45478286E+03</pdfrwt>
<totfact> 0.58969872E+04</totfact>
</mgrwt>
</event>
<event>
 7    0  0.4766352E-002  0.4574961E+03  0.7546771E-02  0.1025510E+00
         21   -1    0    0  502  501  0.00000000000E+00  0.00000000000E+00  0.10857490852E+03  0.10857490852E+03  0.00000000000E+00 0.  1.
         21   -1    0    0  501  502 -0.00000000000E+00 -0.00000000000E+00 -0.48193142782E+03  0.48193142782E+03  0.00000000000E+00 0.  1.
      99926    2    1    2    0    0  0.14210854715E-13  0.00000000000E+00 -0.37335651930E+03  0.59050633634E+03  0.45749605764E+03 0.  0.
      99925    2    3    3    0    0 -0.11454609335E+03  0.97294335677E+01 -0.22028849420E+03  0.36183015091E+03  0.26301818957E+03 0.  0.
         25    1    4    4    0    0 -0.77258880067E+02 -0.23324843441E+01 -0.16074561683E+03  0.21785554035E+03  0.12509000000E+03 0.  0.
         25    1    4    4    0    0 -0.37287213279E+02  0.12061917912E+02 -0.59542877375E+02  0.14397461055E+03  0.12509000000E+03 0.  0.
         25    1    3    3    0    0  0.11454609335E+03 -0.97294335677E+01 -0.15306802509E+03  0.22867618543E+03  0.12509000000E+03 0.  0.
<mgrwt>
<rscale>  2 0.45749606E+03</rscale>
<asrwt>0</asrwt>
<pdfrwt beam="1">  1       21 0.15966898E-01 0.45749606E+03</pdfrwt>
<pdfrwt beam="2">  1       21 0.70872268E-01 0.45749606E+03</pdfrwt>
<totfact> 0.58111552E+04</totfact>
</mgrwt>
</event>
<event>
 7    0  0.4766352E-002  0.4509975E+03  0.7546771E-02  0.1027425E+00
         21   -1    0    0  502  501  0.00000000000E+00  0.00000000000E+00  0.91124737611E+02  0.91124737611E+02  0.00000000000E+00 0. -1.
         21   -1    0    0  501  502 -0.00000000000E+00 -0.00000000000E+00 -0.55802281859E+03  0.55802281859E+03  0.00000000000E+00 0. -1.
      99926    2    1    2    0    0  0.00000000000E+00  0.14210854715E-13 -0.46689808098E+03  0.64914755620E+03  0.45099748525E+03 0.  0.
      99925    2    3    3    0    0 -0.60746253583E+02 -0.71670311534E+02 -0.21438311202E+03  0.35209864015E+03  0.26303344425E+03 0.  0.
         25    1    3    3    0    0  0.60746253583E+02  0.71670311534E+02 -0.25251496895E+03  0.29704891605E+03  0.12509000000E+03 0.  0.
         25    1    4    4    0    0 -0.19664661698E+02 -0.37440135449E+02 -0.56321484644E+02  0.14355514757E+03  0.12509000000E+03 0.  0.
         25    1    4    4    0    0 -0.41081591885E+02 -0.34230176085E+02 -0.15806162738E+03  0.20854349258E+03  0.12509000000E+03 0.  0.
<mgrwt>
<rscale>  2 0.45099749E+03</rscale>
<asrwt>0</asrwt>
<pdfrwt beam="1">  1       21 0.13400697E-01 0.45099749E+03</pdfrwt>
<pdfrwt beam="2">  1       21 0.82062176E-01 0.45099749E+03</pdfrwt>
<totfact> 0.57546265E+04</totfact>
</mgrwt>
</event>
<event>
 7    0  0.4766352E-002  0.4491939E+03  0.7546771E-02  0.1027963E+00
         21   -1    0    0  502  501  0.00000000000E+00  0.00000000000E+00  0.41648582398E+02  0.41648582398E+02  0.00000000000E+00 0. -1.
         21   -1    0    0  501  502 -0.00000000000E+00 -0.00000000000E+00 -0.12111763980E+04  0.12111763980E+04  0.00000000000E+00 0. -1.
      99926    2    1    2    0    0  0.14210854715E-13  0.17763568394E-14 -0.11695278156E+04  0.12528249804E+04  0.44919385575E+03 0.  0.
      99925    2    3    3    0    0 -0.73221286137E+02 -0.14493000006E+02 -0.52333602377E+03  0.59041819924E+03  0.26294800328E+03 0.  0.
         25    1    4    4    0    0 -0.73667628680E+02 -0.78756588287E+01 -0.32192015769E+03  0.35322661500E+03  0.12509000000E+03 0.  0.
         25    1    3    3    0    0  0.73221286137E+02  0.14493000006E+02 -0.64619179184E+03  0.66240678117E+03  0.12509000000E+03 0.  0.
         25    1    4    4    0    0  0.44634254349E+00 -0.66173411778E+01 -0.20141586608E+03  0.23719158424E+03  0.12509000000E+03 0.  0.
<mgrwt>
<rscale>  2 0.44919386E+03</rscale>
<asrwt>0</asrwt>
<pdfrwt beam="1">  1       21 0.61247914E-02 0.44919386E+03</pdfrwt>
<pdfrwt beam="2">  1       21 0.17811418E+00 0.44919386E+03</pdfrwt>
<totfact> 0.31935160E+04</totfact>
</mgrwt>
</event>
<event>
 6    0  0.4766352E-002  0.4580158E+03  0.7546771E-02  0.1025358E+00
         21   -1    0    0  502  501  0.00000000000E+00  0.00000000000E+00  0.23485440053E+03  0.23485440053E+03  0.00000000000E+00 0.  1.
         21   -1    0    0  501  502 -0.00000000000E+00 -0.00000000000E+00 -0.22330690266E+03  0.22330690266E+03  0.00000000000E+00 0.  1.
      99926    2    1    2    0    0  0.00000000000E+00  0.00000000000E+00  0.11547497870E+02  0.45816130319E+03  0.45801575850E+03 0.  0.
         25    1    3    3    0    0  0.43267033630E+02  0.73899226417E+02  0.76935290768E+02  0.16999905567E+03  0.12509000000E+03 0.  0.
         25    1    3    3    0    0  0.65893741070E+01 -0.19723892093E+02  0.48774149504E+01  0.12690054786E+03  0.12509000000E+03 0.  0.
         25    1    3    3    0    0 -0.49856407737E+02 -0.54175334323E+02 -0.70265207848E+02  0.16126169965E+03  0.12509000000E+03 0.  0.
<mgrwt>
<rscale>  2 0.45801576E+03</rscale>
<asrwt>0</asrwt>
<pdfrwt beam="1">  1       21 0.34537412E-01 0.45801576E+03</pdfrwt>
<pdfrwt beam="2">  1       21 0.32839250E-01 0.45801576E+03</pdfrwt>
<totfact> 0.66695455E+04</totfact>
</mgrwt>
</event>
<event>
 7    0  0.4766352E-002  0.4547194E+03  0.7546771E-02  0.1026324E+00
         21   -1    0    0  502  501  0.00000000000E+00  0.00000000000E+00  0.10379030676E+03  0.10379030676E+03  0.00000000000E+00 0.  1.
         21   -1    0    0  501  502 -0.00000000000E+00 -0.00000000000E+00 -0.49804674398E+03  0.49804674398E+03  0.00000000000E+00 0.  1.
      99926    2    1    2    0    0  0.00000000000E+00  0.00000000000E+00 -0.39425643722E+03  0.60183705075E+03  0.45471936110E+03 0.  0.
      99925    2    3    3    0    0  0.20173671944E+02  0.10501409977E+03 -0.29603818619E+03  0.41018822835E+03  0.26302250246E+03 0.  0.
         25    1    4    4    0    0  0.12482306680E+02  0.46457157233E+02 -0.20382465943E+03  0.24393867124E+03  0.12509000000E+03 0.  0.
         25    1    4    4    0    0  0.76913652640E+01  0.58556942541E+02 -0.92213526766E+02  0.16624955711E+03  0.12509000000E+03 0.  0.
         25    1    3    3    0    0 -0.20173671944E+02 -0.10501409977E+03 -0.98218251030E+02  0.19164882240E+03  0.12509000000E+03 0.  0.
<mgrwt>
<rscale>  2 0.45471936E+03</rscale>
<asrwt>0</asrwt>
<pdfrwt beam="1">  1       21 0.15263281E-01 0.45471936E+03</pdfrwt>
<pdfrwt beam="2">  1       21 0.73242168E-01 0.45471936E+03</pdfrwt>
<totfact> 0.58695371E+04</totfact>
</mgrwt>
</event>
<event>
 7    0  0.4766352E-002  0.4491095E+03  0.7546771E-02  0.1027988E+00
         21   -1    0    0  502  501  0.00000000000E+00  0.00000000000E+00  0.26382644836E+02  0.26382644836E+02  0.00000000000E+00 0.  1.
         21   -1    0    0  501  502 -0.00000000000E+00 -0.00000000000E+00 -0.19112880727E+04  0.19112880727E+04  0.00000000000E+00 0.  1.
      99926    2    1    2    0    0 -0.35527136788E-14  0.00000000000E+00 -0.18849054278E+04  0.19376707175E+04  0.44910949401E+03 0.  0.
      99925    2    3    3    0    0  0.68586047100E+01 -0.87475797476E+02 -0.14605003891E+04  0.14865984388E+04  0.26308644229E+03 0.  0.
         25    1    4    4    0    0 -0.29729327532E+02 -0.57900458551E+02 -0.85247275603E+03  0.86405648189E+03  0.12509000000E+03 0.  0.
         25    1    4    4    0    0  0.36587932242E+02 -0.29575338925E+02 -0.60802763308E+03  0.62254195694E+03  0.12509000000E+03 0.  0.
         25    1    3    3    0    0 -0.68586047100E+01  0.87475797476E+02 -0.42440503873E+03  0.45107227869E+03  0.12509000000E+03 0.  0.
<mgrwt>
<rscale>  2 0.44910949E+03</rscale>
<asrwt>0</asrwt>
<pdfrwt beam="1">  1       21 0.38798003E-02 0.44910949E+03</pdfrwt>
<pdfrwt beam="2">  1       21 0.28107181E+00 0.44910949E+03</pdfrwt>
<totfact> 0.15448598E+04</totfact>
</mgrwt>
</event>
<event>
 7    0  0.4766352E-002  0.4494439E+03  0.7546771E-02  0.1027888E+00
         21   -1    0    0  502  501  0.00000000000E+00  0.00000000000E+00  0.18415489459E+03  0.18415489459E+03  0.00000000000E+00 0. -1.
         21   -1    0    0  501  502 -0.00000000000E+00 -0.00000000000E+00 -0.27422543710E+03  0.27422543710E+03  0.00000000000E+00 0. -1.
      99926    2    1    2    0    0  0.00000000000E+00  0.00000000000E+00 -0.90070542510E+02  0.45838033168E+03  0.44944390734E+03 0.  0.
      99925    2    3    3    0    0 -0.33724095679E+02 -0.63121754172E+02  0.24970940216E+02  0.27397935195E+03  0.26328590346E+03 0.  0.
         25    1    4    4    0    0 -0.24173158017E+02 -0.39926931348E+01  0.42090901609E+02  0.13423649007E+03  0.12509000000E+03 0.  0.
         25    1    4    4    0    0 -0.95509376626E+01 -0.59129061037E+02 -0.17119961393E+02  0.13974286188E+03  0.12509000000E+03 0.  0.
         25    1    3    3    0    0  0.33724095679E+02  0.63121754172E+02 -0.11504148273E+03  0.18440097973E+03  0.12509000000E+03 0.  0.
<mgrwt>
<rscale>  2 0.44944391E+03</rscale>
<asrwt>0</asrwt>
<pdfrwt beam="1">  1       21 0.27081602E-01 0.44944391E+03</pdfrwt>
<pdfrwt beam="2">  1       21 0.40327270E-01 0.44944391E+03</pdfrwt>
<totfact> 0.71406053E+04</totfact>
</mgrwt>
</event>
<event>
 7    0  0.4766352E-002  0.4645876E+03  0.7546771E-02  0.1023459E+00
         21   -1    0    0  502  501  0.00000000000E+00  0.00000000000E+00  0.85662296615E+03  0.85662296615E+03  0.00000000000E+00 0. -1.
         21   -1    0    0  501  502 -0.00000000000E+00 -0.00000000000E+00 -0.62992011320E+02  0.62992011320E+02  0.00000000000E+00 0. -1.
      99926    2    1    2    0    0  0.00000000000E+00 -0.71054273576E-14  0.79363095483E+03  0.91961497747E+03  0.46458757444E+03 0.  0.
      99925    2    3    3    0    0  0.10613769943E+03  0.55224956995E+02  0.54212268916E+03  0.61429723656E+03  0.26296212204E+03 0.  0.
         25    1    4    4    0    0  0.83203513252E+02  0.38782366242E+00  0.29268112196E+03  0.32898741963E+03  0.12509000000E+03 0.  0.
         25    1    4    4    0    0  0.22934186177E+02  0.54837133332E+02  0.24944156720E+03  0.28530981692E+03  0.12509000000E+03 0.  0.
         25    1    3    3    0    0 -0.10613769943E+03 -0.55224956995E+02  0.25150826568E+03  0.30531774092E+03  0.12509000000E+03 0.  0.
<mgrwt>
<rscale>  2 0.46458757E+03</rscale>
<asrwt>0</asrwt>
<pdfrwt beam="1">  1       21 0.12597396E+00 0.46458757E+03</pdfrwt>
<pdfrwt beam="2">  1       21 0.92635316E-02 0.46458757E+03</pdfrwt>
<totfact> 0.39358676E+04</totfact>
</mgrwt>
</event>
<event>
 7    0  0.4766352E-002  0.4791417E+03  0.7546771E-02  0.1019371E+00
         21   -1    0    0  502  501  0.00000000000E+00  0.00000000000E+00  0.16349725501E+03  0.16349725501E+03  0.00000000000E+00 0.  1.
         21   -1    0    0  501  502 -0.00000000000E+00 -0.00000000000E+00 -0.35104064865E+03  0.35104064865E+03  0.00000000000E+00 0.  1.
      99926    2    1    2    0    0 -0.14210854715E-13  0.71054273576E-14 -0.18754339364E+03  0.51453790366E+03  0.47914165943E+03 0.  0.
      99925    2    3    3    0    0  0.93576334964E+02 -0.35114385155E+02 -0.18794230660E+02  0.28191516484E+03  0.26293228510E+03 0.  0.
         25    1    3    3    0    0 -0.93576334964E+02  0.35114385155E+02 -0.16874916298E+03  0.23262273882E+03  0.12509000000E+03 0.  0.
         25    1    4    4    0    0  0.49336296271E+02  0.23001080627E+02 -0.76488385418E+01  0.13663503457E+03  0.12509000000E+03 0.  0.
         25    1    4    4    0    0  0.44240038693E+02 -0.58115465782E+02 -0.11145392118E+02  0.14528013027E+03  0.12509000000E+03 0.  0.
<mgrwt>
<rscale>  2 0.47914166E+03</rscale>
<asrwt>0</asrwt>
<pdfrwt beam="1">  1       21 0.24043715E-01 0.47914166E+03</pdfrwt>
<pdfrwt beam="2">  1       21 0.51623623E-01 0.47914166E+03</pdfrwt>
<totfact> 0.53292607E+04</totfact>
</mgrwt>
</event>
<event>
 7    0  0.4766352E-002  0.4522157E+03  0.7546771E-02  0.1027063E+00
         21   -1    0    0  502  501  0.00000000000E+00  0.00000000000E+00  0.13871114291E+03  0.13871114291E+03  0.00000000000E+00 0. -1.
         21   -1    0    0  501  502 -0.00000000000E+00 -0.00000000000E+00 -0.36856995552E+03  0.36856995552E+03  0.00000000000E+00 0. -1.
      99926    2    1    2    0    0  0.00000000000E+00  0.17763568394E-14 -0.22985881261E+03  0.50728109843E+03  0.45221569973E+03 0.  0.
      99925    2    3    3    0    0 -0.83626205168E+02 -0.99615122803E+01 -0.22533246421E+03  0.35641503250E+03  0.26299122048E+03 0.  0.
         25    1    3    3    0    0  0.83626205168E+02  0.99615122803E+01 -0.45263484043E+01  0.15086606592E+03  0.12509000000E+03 0.  0.
         25    1    4    4    0    0 -0.11062016354E+01 -0.40323517217E+01 -0.87392911356E+02  0.15265160529E+03  0.12509000000E+03 0.  0.
         25    1    4    4    0    0 -0.82520003532E+02 -0.59291605586E+01 -0.13793955285E+03  0.20376342721E+03  0.12509000000E+03 0.  0.
<mgrwt>
<rscale>  2 0.45221570E+03</rscale>
<asrwt>0</asrwt>
<pdfrwt beam="1">  1       21 0.20398698E-01 0.45221570E+03</pdfrwt>
<pdfrwt beam="2">  1       21 0.54201464E-01 0.45221570E+03</pdfrwt>
<totfact> 0.66213215E+04</totfact>
</mgrwt>
</event>
<event>
 7    0  0.4766352E-002  0.4555455E+03  0.7546771E-02  0.1026081E+00
         21   -1    0    0  502  501  0.00000000000E+00  0.00000000000E+00  0.13387249715E+03  0.13387249715E+03  0.00000000000E+00 0.  1.
         21   -1    0    0  501  502 -0.00000000000E+00 -0.00000000000E+00 -0.38753604281E+03  0.38753604281E+03  0.00000000000E+00 0.  1.
      99926    2    1    2    0    0  0.00000000000E+00  0.00000000000E+00 -0.25366354566E+03  0.52140853996E+03  0.45554546551E+03 0.  0.
      99925    2    3    3    0    0  0.64573857040E+02  0.23396567390E+02 -0.55820287781E+02  0.27746870073E+03  0.26297489039E+03 0.  0.
         25    1    3    3    0    0 -0.64573857040E+02 -0.23396567390E+02 -0.19784325788E+03  0.24393983924E+03  0.12509000000E+03 0.  0.
         25    1    4    4    0    0  0.51722684558E+02 -0.90205701709E+01 -0.58123035129E+02  0.14758862455E+03  0.12509000000E+03 0.  0.
         25    1    4    4    0    0  0.12851172482E+02  0.32417137561E+02  0.23027473486E+01  0.12988007617E+03  0.12509000000E+03 0.  0.
<mgrwt>
<rscale>  2 0.45554547E+03</rscale>
<asrwt>0</asrwt>
<pdfrwt beam="1">  1       21 0.19687132E-01 0.45554547E+03</pdfrwt>
<pdfrwt beam="2">  1       21 0.56990594E-01 0.45554547E+03</pdfrwt>
<totfact> 0.63516083E+04</totfact>
</mgrwt>
</event>
<event>
 7    0  0.4766352E-002  0.4550296E+03  0.7546771E-02  0.1026233E+00
         21   -1    0    0  502  501  0.00000000000E+00  0.00000000000E+00  0.16914363982E+03  0.16914363982E+03  0.00000000000E+00 0. -1.
         21   -1    0    0  501  502 -0.00000000000E+00 -0.00000000000E+00 -0.30602969070E+03  0.30602969070E+03  0.00000000000E+00 0. -1.
      99926    2    1    2    0    0 -0.71054273576E-14 -0.35527136788E-14 -0.13688605088E+03  0.47517333052E+03  0.45502956290E+03 0.  0.
      99925    2    3    3    0    0 -0.63915089392E+02  0.10636027597E+02  0.11344276620E+02  0.27067882735E+03  0.26256441348E+03 0.  0.
         25    1    4    4    0    0 -0.43444409672E+02  0.38891650308E+02 -0.12739813014E+02  0.13859937998E+03  0.12509000000E+03 0.  0.
         25    1    3    3    0    0  0.63915089392E+02 -0.10636027597E+02 -0.14823032751E+03  0.20449450317E+03  0.12509000000E+03 0.  0.
         25    1    4    4    0    0 -0.20470679720E+02 -0.28255622711E+02  0.24084089635E+02  0.13207944737E+03  0.12509000000E+03 0.  0.
<mgrwt>
<rscale>  2 0.45502956E+03</rscale>
<asrwt>0</asrwt>
<pdfrwt beam="1">  1       21 0.24874065E-01 0.45502956E+03</pdfrwt>
<pdfrwt beam="2">  1       21 0.45004366E-01 0.45502956E+03</pdfrwt>
<totfact> 0.67037435E+04</totfact>
</mgrwt>
</event>
<event>
 7    0  0.4766352E-002  0.4541913E+03  0.7546771E-02  0.1026479E+00
         21   -1    0    0  502  501  0.00000000000E+00  0.00000000000E+00  0.20165659214E+03  0.20165659214E+03  0.00000000000E+00 0. -1.
         21   -1    0    0  501  502 -0.00000000000E+00 -0.00000000000E+00 -0.25574386965E+03  0.25574386965E+03  0.00000000000E+00 0. -1.
      99926    2    1    2    0    0 -0.17763568394E-14  0.00000000000E+00 -0.54087277516E+02  0.45740046179E+03  0.45419131306E+03 0.  0.
      99925    2    3    3    0    0  0.14068765922E+02 -0.88613888037E+02  0.34082630436E+02  0.27999755286E+03  0.26303355790E+03 0.  0.
         25    1    4    4    0    0  0.22614928667E+02 -0.73033708234E+02  0.44536288026E+02  0.15321992882E+03  0.12509000000E+03 0.  0.
         25    1    4    4    0    0 -0.85461627452E+01 -0.15580179802E+02 -0.10453657590E+02  0.12677762404E+03  0.12509000000E+03 0.  0.
         25    1    3    3    0    0 -0.14068765922E+02  0.88613888037E+02 -0.88169907952E+02  0.17740290893E+03  0.12509000000E+03 0.  0.
<mgrwt>
<rscale>  2 0.45419131E+03</rscale>
<asrwt>0</asrwt>
<pdfrwt beam="1">  1       21 0.29655381E-01 0.45419131E+03</pdfrwt>
<pdfrwt beam="2">  1       21 0.37609393E-01 0.45419131E+03</pdfrwt>
<totfact> 0.68813095E+04</totfact>
</mgrwt>
</event>
<event>
 7    0  0.4766352E-002  0.4487722E+03  0.7546771E-02  0.1028089E+00
         21   -1    0    0  502  501  0.00000000000E+00  0.00000000000E+00  0.10014175544E+03  0.10014175544E+03  0.00000000000E+00 0. -1.
         21   -1    0    0  501  502 -0.00000000000E+00 -0.00000000000E+00 -0.50277843032E+03  0.50277843032E+03  0.00000000000E+00 0. -1.
      99926    2    1    2    0    0  0.71054273576E-14  0.00000000000E+00 -0.40263667488E+03  0.60292018577E+03  0.44877216764E+03 0.  0.
      99925    2    3    3    0    0 -0.39821344814E+02  0.71757990647E+02 -0.34745056294E+03  0.44345870523E+03  0.26305661146E+03 0.  0.
         25    1    3    3    0    0  0.39821344814E+02 -0.71757990647E+02 -0.55186111941E+02  0.15946148054E+03  0.12509000000E+03 0.  0.
         25    1    4    4    0    0  0.10660515607E+01  0.24188174152E+02 -0.11239011925E+03  0.16989776702E+03  0.12509000000E+03 0.  0.
         25    1    4    4    0    0 -0.40887396375E+02  0.47569816495E+02 -0.23506044369E+03  0.27356093821E+03  0.12509000000E+03 0.  0.
<mgrwt>
<rscale>  2 0.44877217E+03</rscale>
<asrwt>0</asrwt>
<pdfrwt beam="1">  1       21 0.14726729E-01 0.44877217E+03</pdfrwt>
<pdfrwt beam="2">  1       21 0.73938004E-01 0.44877217E+03</pdfrwt>
<totfact> 0.61467852E+04</totfact>
</mgrwt>
</event>
<event>
 7    0  0.4766352E-002  0.4749865E+03  0.7546771E-02  0.1020522E+00
         21   -1    0    0  502  501  0.00000000000E+00  0.00000000000E+00  0.94369847238E+03  0.94369847238E+03  0.00000000000E+00 0.  1.
         21   -1    0    0  501  502 -0.00000000000E+00 -0.00000000000E+00 -0.59768080144E+02  0.59768080144E+02  0.00000000000E+00 0.  1.
      99926    2    1    2    0    0  0.00000000000E+00  0.00000000000E+00  0.88393039223E+03  0.10034665525E+04  0.47498650898E+03 0.  0.
      99925    2    3    3    0    0  0.51923548007E+02 -0.91949278651E+02  0.38223664849E+03  0.47574044431E+03  0.26281816950E+03 0.  0.
         25    1    4    4    0    0  0.91758682559E+01 -0.78245853340E+02  0.16957330351E+03  0.22496493835E+03  0.12509000000E+03 0.  0.
         25    1    4    4    0    0  0.42747679751E+02 -0.13703425311E+02  0.21266334499E+03  0.25077550596E+03  0.12509000000E+03 0.  0.
         25    1    3    3    0    0 -0.51923548007E+02  0.91949278651E+02  0.50169374374E+03  0.52772610821E+03  0.12509000000E+03 0.  0.
<mgrwt>
<rscale>  2 0.47498651E+03</rscale>
<asrwt>0</asrwt>
<pdfrwt beam="1">  1       21 0.13877918E+00 0.47498651E+03</pdfrwt>
<pdfrwt beam="2">  1       21 0.87894241E-02 0.47498651E+03</pdfrwt>
<totfact> 0.33491107E+04</totfact>
</mgrwt>
</event>
<event>
 7    0  0.4766352E-002  0.4684496E+03  0.7546771E-02  0.1022359E+00
         21   -1    0    0  502  501  0.00000000000E+00  0.00000000000E+00  0.35099863891E+03  0.35099863891E+03  0.00000000000E+00 0. -1.
         21   -1    0    0  501  502 -0.00000000000E+00 -0.00000000000E+00 -0.15630050508E+03  0.15630050508E+03  0.00000000000E+00 0. -1.
      99926    2    1    2    0    0  0.00000000000E+00  0.00000000000E+00  0.19469813383E+03  0.50729914400E+03  0.46844963249E+03 0.  0.
      99925    2    3    3    0    0  0.10332650384E+03  0.58621635494E+02  0.16438855873E+03  0.33214480923E+03  0.26302797098E+03 0.  0.
         25    1    4    4    0    0  0.37570383410E+02  0.48553377438E+02  0.43711828088E+02  0.14603833807E+03  0.12509000000E+03 0.  0.
         25    1    4    4    0    0  0.65756120425E+02  0.10068258057E+02  0.12067673064E+03  0.18610647117E+03  0.12509000000E+03 0.  0.
         25    1    3    3    0    0 -0.10332650384E+03 -0.58621635494E+02  0.30309575103E+02  0.17515433476E+03  0.12509000000E+03 0.  0.
<mgrwt>
<rscale>  2 0.46844963E+03</rscale>
<asrwt>0</asrwt>
<pdfrwt beam="1">  1       21 0.51617447E-01 0.46844963E+03</pdfrwt>
<pdfrwt beam="2">  1       21 0.22985368E-01 0.46844963E+03</pdfrwt>
<totfact> 0.58285123E+04</totfact>
</mgrwt>
</event>
<event>
 7    0  0.4766352E-002  0.4510897E+03  0.7546771E-02  0.1027398E+00
         21   -1    0    0  502  501  0.00000000000E+00  0.00000000000E+00  0.44460304901E+03  0.44460304901E+03  0.00000000000E+00 0. -1.
         21   -1    0    0  501  502 -0.00000000000E+00 -0.00000000000E+00 -0.11441774449E+03  0.11441774449E+03  0.00000000000E+00 0. -1.
      99926    2    1    2    0    0  0.00000000000E+00  0.00000000000E+00  0.33018530452E+03  0.55902079350E+03  0.45108969424E+03 0.  0.
      99925    2    3    3    0    0 -0.20594773954E+02 -0.10580643314E+03  0.23217448836E+03  0.36699794540E+03  0.26298926380E+03 0.  0.
         25    1    3    3    0    0  0.20594773954E+02  0.10580643314E+03  0.98010816158E+02  0.19202284810E+03  0.12509000000E+03 0.  0.
         25    1    4    4    0    0 -0.10695860404E+02 -0.54778454504E+02  0.16897499882E+03  0.21752043314E+03  0.12509000000E+03 0.  0.
         25    1    4    4    0    0 -0.98989135498E+01 -0.51027978640E+02  0.63199489541E+02  0.14947751226E+03  0.12509000000E+03 0.  0.
<mgrwt>
<rscale>  2 0.45108969E+03</rscale>
<asrwt>0</asrwt>
<pdfrwt beam="1">  1       21 0.65382801E-01 0.45108969E+03</pdfrwt>
<pdfrwt beam="2">  1       21 0.16826139E-01 0.45108969E+03</pdfrwt>
<totfact> 0.63206771E+04</totfact>
</mgrwt>
</event>
<event>
 7    0  0.4766352E-002  0.4523465E+03  0.7546771E-02  0.1027025E+00
         21   -1    0    0  502  501  0.00000000000E+00  0.00000000000E+00  0.49652770416E+03  0.49652770416E+03  0.00000000000E+00 0. -1.
         21   -1    0    0  501  502 -0.00000000000E+00 -0.00000000000E+00 -0.10302415436E+03  0.10302415436E+03  0.00000000000E+00 0. -1.
      99926    2    1    2    0    0  0.00000000000E+00  0.00000000000E+00  0.39350354980E+03  0.59955185852E+03  0.45234653459E+03 0.  0.
      99925    2    3    3    0    0 -0.65505529790E+02 -0.72333699470E+02  0.31746847994E+03  0.42362011477E+03  0.26295366011E+03 0.  0.
         25    1    4    4    0    0 -0.61030179677E+02 -0.67659973952E+02  0.16331235176E+03  0.22499108259E+03  0.12509000000E+03 0.  0.
         25    1    3    3    0    0  0.65505529790E+02  0.72333699470E+02  0.76035069861E+02  0.17593174376E+03  0.12509000000E+03 0.  0.
         25    1    4    4    0    0 -0.44753501137E+01 -0.46737255180E+01  0.15415612818E+03  0.19862903218E+03  0.12509000000E+03 0.  0.
<mgrwt>
<rscale>  2 0.45234653E+03</rscale>
<asrwt>0</asrwt>
<pdfrwt beam="1">  1       21 0.73018779E-01 0.45234653E+03</pdfrwt>
<pdfrwt beam="2">  1       21 0.15150611E-01 0.45234653E+03</pdfrwt>
<totfact> 0.59952965E+04</totfact>
</mgrwt>
</event>
<event>
 7    0  0.4766352E-002  0.4520184E+03  0.7546771E-02  0.1027122E+00
         21   -1    0    0  502  501  0.00000000000E+00  0.00000000000E+00  0.34410862768E+03  0.34410862768E+03  0.00000000000E+00 0.  1.
         21   -1    0    0  501  502 -0.00000000000E+00 -0.00000000000E+00 -0.14844194672E+03  0.14844194672E+03  0.00000000000E+00 0.  1.
      99926    2    1    2    0    0  0.00000000000E+00 -0.35527136788E-14  0.19566668097E+03  0.49255057440E+03  0.45201838271E+03 0.  0.
      99925    2    3    3    0    0 -0.86871618708E+02  0.28763774617E+02  0.56489075182E+02  0.28424323675E+03  0.26311436517E+03 0.  0.
         25    1    3    3    0    0  0.86871618708E+02 -0.28763774617E+02  0.13917760578E+03  0.20830733765E+03  0.12509000000E+03 0.  0.
         25    1    4    4    0    0 -0.46058326093E+02  0.54565145464E+02  0.21160488489E+02  0.14558158838E+03  0.12509000000E+03 0.  0.
         25    1    4    4    0    0 -0.40813292616E+02 -0.25801370847E+02  0.35328586693E+02  0.13866164837E+03  0.12509000000E+03 0.  0.
<mgrwt>
<rscale>  2 0.45201838E+03</rscale>
<asrwt>0</asrwt>
<pdfrwt beam="1">  1       21 0.50604210E-01 0.45201838E+03</pdfrwt>
<pdfrwt beam="2">  1       21 0.21829698E-01 0.45201838E+03</pdfrwt>
<totfact> 0.67377991E+04</totfact>
</mgrwt>
</event>
<event>
 7    0  0.4766352E-002  0.4414203E+03  0.7546771E-02  0.1030312E+00
         21   -1    0    0  502  501  0.00000000000E+00  0.00000000000E+00  0.10440517484E+03  0.10440517484E+03  0.00000000000E+00 0.  1.
         21   -1    0    0  501  502 -0.00000000000E+00 -0.00000000000E+00 -0.46657619317E+03  0.46657619317E+03  0.00000000000E+00 0.  1.
      99926    2    1    2    0    0  0.00000000000E+00  0.35527136788E-14 -0.36217101833E+03  0.57098136801E+03  0.44142029416E+03 0.  0.
      99925    2    3    3    0    0 -0.58307444232E+02  0.23961424475E+02 -0.13072178032E+03  0.30044455760E+03  0.26306812886E+03 0.  0.
         25    1    3    3    0    0  0.58307444232E+02 -0.23961424475E+02 -0.23144923800E+03  0.27053681041E+03  0.12509000000E+03 0.  0.
         25    1    4    4    0    0 -0.98515376758E+01 -0.87515190833E+01 -0.29380534864E+02  0.12916797517E+03  0.12509000000E+03 0.  0.
         25    1    4    4    0    0 -0.48455906556E+02  0.32712943559E+02 -0.10134124546E+03  0.17127658243E+03  0.12509000000E+03 0.  0.
<mgrwt>
<rscale>  2 0.44142029E+03</rscale>
<asrwt>0</asrwt>
<pdfrwt beam="1">  1       21 0.15353702E-01 0.44142029E+03</pdfrwt>
<pdfrwt beam="2">  1       21 0.68614145E-01 0.44142029E+03</pdfrwt>
<totfact> 0.67457974E+04</totfact>
</mgrwt>
</event>
<event>
 7    0  0.4766352E-002  0.4549171E+03  0.7546771E-02  0.1026266E+00
         21   -1    0    0  502  501  0.00000000000E+00  0.00000000000E+00  0.22867145137E+04  0.22867145137E+04  0.00000000000E+00 0.  1.
         21   -1    0    0  501  502 -0.00000000000E+00 -0.00000000000E+00 -0.22625206157E+02  0.22625206157E+02  0.00000000000E+00 0.  1.
      99926    2    1    2    0    0  0.00000000000E+00  0.00000000000E+00  0.22640893076E+04  0.23093397199E+04  0.45491707945E+03 0.  0.
      99925    2    3    3    0    0 -0.39422028479E+02 -0.10260340780E+03  0.13144565259E+04  0.13452175887E+04  0.26406977671E+03 0.  0.
         25    1    3    3    0    0  0.39422028479E+02  0.10260340780E+03  0.94963278169E+03  0.96412213116E+03  0.12509000000E+03 0.  0.
         25    1    4    4    0    0 -0.38042490171E+02 -0.15022111893E+02  0.53565433062E+03  0.55158495711E+03  0.12509000000E+03 0.  0.
         25    1    4    4    0    0 -0.13795383078E+01 -0.87581295910E+02  0.77880219525E+03  0.79363263161E+03  0.12509000000E+03 0.  0.
<mgrwt>
<rscale>  2 0.45491708E+03</rscale>
<asrwt>0</asrwt>
<pdfrwt beam="1">  1       21 0.33628139E+00 0.45491708E+03</pdfrwt>
<pdfrwt beam="2">  1       21 0.33272378E-02 0.45491708E+03</pdfrwt>
<totfact> 0.92908463E+03</totfact>
</mgrwt>
</event>
<event>
 7    0  0.4766352E-002  0.4920726E+03  0.7546771E-02  0.1015869E+00
         21   -1    0    0  502  501  0.00000000000E+00  0.00000000000E+00  0.40971827788E+03  0.40971827788E+03  0.00000000000E+00 0.  1.
         21   -1    0    0  501  502 -0.00000000000E+00 -0.00000000000E+00 -0.14774510525E+03  0.14774510525E+03  0.00000000000E+00 0.  1.
      99926    2    1    2    0    0  0.14210854715E-13  0.00000000000E+00  0.26197317263E+03  0.55746338313E+03  0.49207263728E+03 0.  0.
      99925    2    3    3    0    0 -0.11015029368E+03  0.93672996981E+02  0.17481390736E+03  0.34733969769E+03  0.26301567601E+03 0.  0.
         25    1    4    4    0    0 -0.49411193565E+02  0.12650985516E+02  0.51433392244E+02  0.14454900699E+03  0.12509000000E+03 0.  0.
         25    1    4    4    0    0 -0.60739100115E+02  0.81022011465E+02  0.12338051512E+03  0.20279069070E+03  0.12509000000E+03 0.  0.
         25    1    3    3    0    0  0.11015029368E+03 -0.93672996981E+02  0.87159265266E+02  0.21012368544E+03  0.12509000000E+03 0.  0.
<mgrwt>
<rscale>  2 0.49207264E+03</rscale>
<asrwt>0</asrwt>
<pdfrwt beam="1">  1       21 0.60252688E-01 0.49207264E+03</pdfrwt>
<pdfrwt beam="2">  1       21 0.21727221E-01 0.49207264E+03</pdfrwt>
<totfact> 0.46233540E+04</totfact>
</mgrwt>
</event>
<event>
 7    0  0.4766352E-002  0.4580051E+03  0.7546771E-02  0.1025361E+00
         21   -1    0    0  502  501  0.00000000000E+00  0.00000000000E+00  0.76860982734E+03  0.76860982734E+03  0.00000000000E+00 0. -1.
         21   -1    0    0  501  502 -0.00000000000E+00 -0.00000000000E+00 -0.68229885272E+02  0.68229885272E+02  0.00000000000E+00 0. -1.
      99926    2    1    2    0    0  0.35527136788E-14  0.00000000000E+00  0.70037994206E+03  0.83683971261E+03  0.45800506695E+03 0.  0.
      99925    2    3    3    0    0 -0.25852279569E+02 -0.30755898596E+02  0.63829905709E+03  0.69152691195E+03  0.26300098479E+03 0.  0.
         25    1    4    4    0    0 -0.64593987922E+01 -0.55316310431E+02  0.31601476569E+03  0.34440449803E+03  0.12509000000E+03 0.  0.
         25    1    3    3    0    0  0.25852279569E+02  0.30755898596E+02  0.62080884970E+02  0.14531280066E+03  0.12509000000E+03 0.  0.
         25    1    4    4    0    0 -0.19392880776E+02  0.24560411835E+02  0.32228429140E+03  0.34712241391E+03  0.12509000000E+03 0.  0.
<mgrwt>
<rscale>  2 0.45800507E+03</rscale>
<asrwt>0</asrwt>
<pdfrwt beam="1">  1       21 0.11303085E+00 0.45800507E+03</pdfrwt>
<pdfrwt beam="2">  1       21 0.10033807E-01 0.45800507E+03</pdfrwt>
<totfact> 0.44964423E+04</totfact>
</mgrwt>
</event>
<event>
 7    0  0.4766352E-002  0.4575590E+03  0.7546771E-02  0.1025492E+00
         21   -1    0    0  502  501  0.00000000000E+00  0.00000000000E+00  0.31007102534E+03  0.31007102534E+03  0.00000000000E+00 0.  1.
         21   -1    0    0  501  502 -0.00000000000E+00 -0.00000000000E+00 -0.16880019419E+03  0.16880019419E+03  0.00000000000E+00 0.  1.
      99926    2    1    2    0    0  0.71054273576E-14 -0.14210854715E-13  0.14127083115E+03  0.47887121954E+03  0.45755895486E+03 0.  0.
      99925    2    3    3    0    0  0.26636231698E+02 -0.10197323361E+03  0.13756975989E+03  0.31525815392E+03  0.26335192341E+03 0.  0.
         25    1    4    4    0    0  0.34566718725E+02 -0.38526918519E+02  0.10428122519E+03  0.17088377196E+03  0.12509000000E+03 0.  0.
         25    1    3    3    0    0 -0.26636231698E+02  0.10197323361E+03  0.37010712560E+01  0.16361306562E+03  0.12509000000E+03 0.  0.
         25    1    4    4    0    0 -0.79304870276E+01 -0.63446315091E+02  0.33288534707E+02  0.14437438196E+03  0.12509000000E+03 0.  0.
<mgrwt>
<rscale>  2 0.45755895E+03</rscale>
<asrwt>0</asrwt>
<pdfrwt beam="1">  1       21 0.45598680E-01 0.45755895E+03</pdfrwt>
<pdfrwt beam="2">  1       21 0.24823558E-01 0.45755895E+03</pdfrwt>
<totfact> 0.65443096E+04</totfact>
</mgrwt>
</event>
<event>
 7    0  0.4766352E-002  0.4537131E+03  0.7546771E-02  0.1026621E+00
         21   -1    0    0  502  501  0.00000000000E+00  0.00000000000E+00  0.33027972491E+02  0.33027972491E+02  0.00000000000E+00 0. -1.
         21   -1    0    0  501  502 -0.00000000000E+00 -0.00000000000E+00 -0.15581913280E+04  0.15581913280E+04  0.00000000000E+00 0. -1.
      99926    2    1    2    0    0  0.00000000000E+00  0.00000000000E+00 -0.15251633555E+04  0.15912193005E+04  0.45371312662E+03 0.  0.
      99925    2    3    3    0    0  0.35246122249E+02  0.41155162452E+02 -0.61772983048E+03  0.67360328767E+03  0.26308783547E+03 0.  0.
         25    1    4    4    0    0  0.46529427233E+02  0.30938835989E+02 -0.25291433792E+03  0.28763756639E+03  0.12509000000E+03 0.  0.
         25    1    4    4    0    0 -0.11283304983E+02  0.10216326463E+02 -0.36481549256E+03  0.38596572128E+03  0.12509000000E+03 0.  0.
         25    1    3    3    0    0 -0.35246122249E+02 -0.41155162452E+02 -0.90743352503E+03  0.91761601281E+03  0.12509000000E+03 0.  0.
<mgrwt>
<rscale>  2 0.45371313E+03</rscale>
<asrwt>0</asrwt>
<pdfrwt beam="1">  1       21 0.48570539E-02 0.45371313E+03</pdfrwt>
<pdfrwt beam="2">  1       21 0.22914582E+00 0.45371313E+03</pdfrwt>
<totfact> 0.21846404E+04</totfact>
</mgrwt>
</event>
<event>
 7    0  0.4766352E-002  0.4616862E+03  0.7546771E-02  0.1024293E+00
         21   -1    0    0  502  501  0.00000000000E+00  0.00000000000E+00  0.46015854456E+03  0.46015854456E+03  0.00000000000E+00 0.  1.
         21   -1    0    0  501  502 -0.00000000000E+00 -0.00000000000E+00 -0.11580473530E+03  0.11580473530E+03  0.00000000000E+00 0.  1.
      99926    2    1    2    0    0 -0.14210854715E-13  0.14210854715E-13  0.34435380926E+03  0.57596327986E+03  0.46168620706E+03 0.  0.
      99925    2    3    3    0    0 -0.67599245799E+02  0.91753521973E+02  0.25939908020E+03  0.38661391779E+03  0.26304766068E+03 0.  0.
         25    1    4    4    0    0 -0.65583239956E+02  0.32869310677E+02  0.10308392531E+03  0.17791952311E+03  0.12509000000E+03 0.  0.
         25    1    4    4    0    0 -0.20160058433E+01  0.58884211297E+02  0.15631515490E+03  0.20869439468E+03  0.12509000000E+03 0.  0.
         25    1    3    3    0    0  0.67599245799E+02 -0.91753521973E+02  0.84954729055E+02  0.18934936207E+03  0.12509000000E+03 0.  0.
<mgrwt>
<rscale>  2 0.46168621E+03</rscale>
<asrwt>0</asrwt>
<pdfrwt beam="1">  1       21 0.67670374E-01 0.46168621E+03</pdfrwt>
<pdfrwt beam="2">  1       21 0.17030108E-01 0.46168621E+03</pdfrwt>
<totfact> 0.57103486E+04</totfact>
</mgrwt>
</event>
<event>
 7    0  0.4766352E-002  0.4072915E+03  0.7546771E-02  0.1041284E+00
         21   -1    0    0  502  501  0.00000000000E+00  0.00000000000E+00  0.19417527895E+03  0.19417527895E+03  0.00000000000E+00 0. -1.
         21   -1    0    0  501  502 -0.00000000000E+00 -0.00000000000E+00 -0.21357816078E+03  0.21357816078E+03  0.00000000000E+00 0. -1.
      99926    2    1    2    0    0  0.00000000000E+00  0.00000000000E+00 -0.19402881830E+02  0.40775343972E+03  0.40729153660E+03 0.  0.
      99925    2    3    3    0    0  0.40143022894E+02  0.42760521983E+02 -0.10223722033E+02  0.26929156915E+03  0.26262806437E+03 0.  0.
         25    1    3    3    0    0 -0.40143022894E+02 -0.42760521983E+02 -0.91791597972E+01  0.13846187057E+03  0.12509000000E+03 0.  0.
         25    1    4    4    0    0  0.53799427396E+02  0.37992906742E+02  0.10137293127E+02  0.14173253742E+03  0.12509000000E+03 0.  0.
         25    1    4    4    0    0 -0.13656404502E+02  0.47676152413E+01 -0.20361015160E+02  0.12755903174E+03  0.12509000000E+03 0.  0.
<mgrwt>
<rscale>  2 0.40729154E+03</rscale>
<asrwt>0</asrwt>
<pdfrwt beam="1">  1       21 0.28555188E-01 0.40729154E+03</pdfrwt>
<pdfrwt beam="2">  1       21 0.31408553E-01 0.40729154E+03</pdfrwt>
<totfact> 0.10766395E+05</totfact>
</mgrwt>
</event>
<event>
 7    0  0.4766352E-002  0.4546459E+03  0.7546771E-02  0.1026346E+00
         21   -1    0    0  502  501  0.00000000000E+00  0.00000000000E+00  0.61416700702E+03  0.61416700702E+03  0.00000000000E+00 0. -1.
         21   -1    0    0  501  502 -0.00000000000E+00 -0.00000000000E+00 -0.84139528212E+02  0.84139528212E+02  0.00000000000E+00 0. -1.
      99926    2    1    2    0    0  0.00000000000E+00  0.00000000000E+00  0.53002747881E+03  0.69830653524E+03  0.45464589392E+03 0.  0.
      99925    2    3    3    0    0 -0.99828307421E+02 -0.20301317939E+02  0.40801123877E+03  0.49603615825E+03  0.26306057259E+03 0.  0.
         25    1    4    4    0    0 -0.49774316411E+02 -0.10857346219E+02  0.13253414441E+03  0.18923047343E+03  0.12509000000E+03 0.  0.
         25    1    3    3    0    0  0.99828307421E+02  0.20301317939E+02  0.12201624004E+03  0.20227037698E+03  0.12509000000E+03 0.  0.
         25    1    4    4    0    0 -0.50053991010E+02 -0.94439717200E+01  0.27547709436E+03  0.30680568482E+03  0.12509000000E+03 0.  0.
<mgrwt>
<rscale>  2 0.45464589E+03</rscale>
<asrwt>0</asrwt>
<pdfrwt beam="1">  1       21 0.90318675E-01 0.45464589E+03</pdfrwt>
<pdfrwt beam="2">  1       21 0.12373460E-01 0.45464589E+03</pdfrwt>
<totfact> 0.53142952E+04</totfact>
</mgrwt>
</event>
<event>
 7    0  0.4766352E-002  0.4531602E+03  0.7546771E-02  0.1026784E+00
         21   -1    0    0  502  501  0.00000000000E+00  0.00000000000E+00  0.38556669540E+03  0.38556669540E+03  0.00000000000E+00 0. -1.
         21   -1    0    0  501  502 -0.00000000000E+00 -0.00000000000E+00 -0.13315088435E+03  0.13315088435E+03  0.00000000000E+00 0. -1.
      99926    2    1    2    0    0  0.00000000000E+00  0.00000000000E+00  0.25241581105E+03  0.51871757974E+03  0.45316022097E+03 0.  0.
      99925    2    3    3    0    0 -0.48417854523E+02 -0.39286084908E+02  0.53342578601E+02  0.27547830438E+03  0.26297372566E+03 0.  0.
         25    1    3    3    0    0  0.48417854523E+02  0.39286084908E+02  0.19907323245E+03  0.24323927537E+03  0.12509000000E+03 0.  0.
         25    1    4    4    0    0  0.15640782344E+01  0.12385316254E+02  0.31058804805E+02  0.12949131189E+03  0.12509000000E+03 0.  0.
         25    1    4    4    0    0 -0.49981932757E+02 -0.51671401162E+02  0.22283773797E+02  0.14598699249E+03  0.12509000000E+03 0.  0.
<mgrwt>
<rscale>  2 0.45316022E+03</rscale>
<asrwt>0</asrwt>
<pdfrwt beam="1">  1       21 0.56700984E-01 0.45316022E+03</pdfrwt>
<pdfrwt beam="2">  1       21 0.19581012E-01 0.45316022E+03</pdfrwt>
<totfact> 0.64917125E+04</totfact>
</mgrwt>
</event>
<event>
 7    0  0.4766352E-002  0.4518424E+03  0.7546771E-02  0.1027174E+00
         21   -1    0    0  502  501  0.00000000000E+00  0.00000000000E+00  0.93141513131E+03  0.93141513131E+03  0.00000000000E+00 0.  1.
         21   -1    0    0  501  502 -0.00000000000E+00 -0.00000000000E+00 -0.54798762865E+02  0.54798762865E+02  0.00000000000E+00 0.  1.
      99926    2    1    2    0    0  0.00000000000E+00  0.14210854715E-13  0.87661636844E+03  0.98621389417E+03  0.45184243674E+03 0.  0.
      99925    2    3    3    0    0 -0.73019033834E+01 -0.86472674360E+02  0.70100669416E+03  0.75379808790E+03  0.26319257371E+03 0.  0.
         25    1    4    4    0    0  0.10939103828E+02 -0.70312871331E+01  0.27520885103E+03  0.30258308408E+03  0.12509000000E+03 0.  0.
         25    1    3    3    0    0  0.73019033834E+01  0.86472674360E+02  0.17560967428E+03  0.23241580627E+03  0.12509000000E+03 0.  0.
         25    1    4    4    0    0 -0.18241007211E+02 -0.79441387227E+02  0.42579784314E+03  0.45121500382E+03  0.12509000000E+03 0.  0.
<mgrwt>
<rscale>  2 0.45184244E+03</rscale>
<asrwt>0</asrwt>
<pdfrwt beam="1">  1       21 0.13697280E+00 0.45184244E+03</pdfrwt>
<pdfrwt beam="2">  1       21 0.80586422E-02 0.45184244E+03</pdfrwt>
<totfact> 0.40701871E+04</totfact>
</mgrwt>
</event>
<event>
 7    0  0.4766352E-002  0.4564306E+03  0.7546771E-02  0.1025822E+00
         21   -1    0    0  502  501  0.00000000000E+00  0.00000000000E+00  0.12993848184E+03  0.12993848184E+03  0.00000000000E+00 0. -1.
         21   -1    0    0  501  502 -0.00000000000E+00 -0.00000000000E+00 -0.40082215167E+03  0.40082215167E+03  0.00000000000E+00 0. -1.
      99926    2    1    2    0    0 -0.71054273576E-14  0.00000000000E+00 -0.27088366983E+03  0.53076063351E+03  0.45643059439E+03 0.  0.
      99925    2    3    3    0    0  0.56172672718E+02  0.93275858823E+02 -0.12928610283E+03  0.31269382246E+03  0.26307180620E+03 0.  0.
         25    1    3    3    0    0 -0.56172672718E+02 -0.93275858823E+02 -0.14159756700E+03  0.21806681105E+03  0.12509000000E+03 0.  0.
         25    1    4    4    0    0  0.35202857145E+02  0.87730869934E+02 -0.58589371786E+02  0.16738031329E+03  0.12509000000E+03 0.  0.
         25    1    4    4    0    0  0.20969815573E+02  0.55449888887E+01 -0.70696731044E+02  0.14531350917E+03  0.12509000000E+03 0.  0.
<mgrwt>
<rscale>  2 0.45643059E+03</rscale>
<asrwt>0</asrwt>
<pdfrwt beam="1">  1       21 0.19108600E-01 0.45643059E+03</pdfrwt>
<pdfrwt beam="2">  1       21 0.58944435E-01 0.45643059E+03</pdfrwt>
<totfact> 0.62444012E+04</totfact>
</mgrwt>
</event>
<event>
 7    0  0.4766352E-002  0.4554962E+03  0.7546771E-02  0.1026096E+00
         21   -1    0    0  502  501  0.00000000000E+00  0.00000000000E+00  0.39004282749E+03  0.39004282749E+03  0.00000000000E+00 0. -1.
         21   -1    0    0  501  502 -0.00000000000E+00 -0.00000000000E+00 -0.13298336321E+03  0.13298336321E+03  0.00000000000E+00 0. -1.
      99926    2    1    2    0    0  0.00000000000E+00 -0.14210854715E-13  0.25705946428E+03  0.52302619070E+03  0.45549624366E+03 0.  0.
      99925    2    3    3    0    0 -0.12935950399E+02 -0.11019709717E+03  0.18882369270E+03  0.34243170668E+03  0.26323819589E+03 0.  0.
         25    1    4    4    0    0 -0.43931641917E+02 -0.47211592176E+02  0.11098229814E+03  0.17923030491E+03  0.12509000000E+03 0.  0.
         25    1    4    4    0    0  0.30995691518E+02 -0.62985504996E+02  0.77841394562E+02  0.16320140177E+03  0.12509000000E+03 0.  0.
         25    1    3    3    0    0  0.12935950399E+02  0.11019709717E+03  0.68235771574E+02  0.18059448402E+03  0.12509000000E+03 0.  0.
<mgrwt>
<rscale>  2 0.45549624E+03</rscale>
<asrwt>0</asrwt>
<pdfrwt beam="1">  1       21 0.57359239E-01 0.45549624E+03</pdfrwt>
<pdfrwt beam="2">  1       21 0.19556377E-01 0.45549624E+03</pdfrwt>
<totfact> 0.63431115E+04</totfact>
</mgrwt>
</event>
<event>
 7    0  0.4766352E-002  0.4251586E+03  0.7546771E-02  0.1035400E+00
         21   -1    0    0  502  501  0.00000000000E+00  0.00000000000E+00  0.24558771538E+02  0.24558771538E+02  0.00000000000E+00 0. -1.
         21   -1    0    0  501  502 -0.00000000000E+00 -0.00000000000E+00 -0.18400739152E+04  0.18400739152E+04  0.00000000000E+00 0. -1.
      99926    2    1    2    0    0  0.00000000000E+00 -0.26645352591E-14 -0.18155151436E+04  0.18646326867E+04  0.42515858169E+03 0.  0.
      99925    2    3    3    0    0  0.37807513922E+02  0.35564168952E+01 -0.14985839004E+04  0.15217989409E+04  0.26206154593E+03 0.  0.
         25    1    3    3    0    0 -0.37807513922E+02 -0.35564168952E+01 -0.31693124324E+03  0.34283374579E+03  0.12509000000E+03 0.  0.
         25    1    4    4    0    0  0.22129114071E+02  0.34953993355E+02 -0.63786169308E+03  0.65132674361E+03  0.12509000000E+03 0.  0.
         25    1    4    4    0    0  0.15678399851E+02 -0.31397576460E+02 -0.86072220731E+03  0.87047219730E+03  0.12509000000E+03 0.  0.
<mgrwt>
<rscale>  2 0.42515858E+03</rscale>
<asrwt>0</asrwt>
<pdfrwt beam="1">  1       21 0.36115843E-02 0.42515858E+03</pdfrwt>
<pdfrwt beam="2">  1       21 0.27059909E+00 0.42515858E+03</pdfrwt>
<totfact> 0.20374362E+04</totfact>
</mgrwt>
</event>
<event>
 7    0  0.4766352E-002  0.4561382E+03  0.7546771E-02  0.1025907E+00
         21   -1    0    0  502  501  0.00000000000E+00  0.00000000000E+00  0.43721280701E+03  0.43721280701E+03  0.00000000000E+00 0. -1.
         21   -1    0    0  501  502 -0.00000000000E+00 -0.00000000000E+00 -0.11897068153E+03  0.11897068153E+03  0.00000000000E+00 0. -1.
      99926    2    1    2    0    0 -0.35527136788E-14 -0.88817841970E-15  0.31824212548E+03  0.55618348855E+03  0.45613816164E+03 0.  0.
      99925    2    3    3    0    0 -0.26785214140E+02 -0.77075324160E+01  0.33511254362E+03  0.42692029634E+03  0.26302788595E+03 0.  0.
         25    1    4    4    0    0 -0.35495493154E+02  0.20817365037E+02  0.13150738060E+03  0.18610478762E+03  0.12509000000E+03 0.  0.
         25    1    3    3    0    0  0.26785214140E+02  0.77075324160E+01 -0.16870418135E+02  0.12926319221E+03  0.12509000000E+03 0.  0.
         25    1    4    4    0    0  0.87102790139E+01 -0.28524897453E+02  0.20360516301E+03  0.24081550872E+03  0.12509000000E+03 0.  0.
<mgrwt>
<rscale>  2 0.45613816E+03</rscale>
<asrwt>0</asrwt>
<pdfrwt beam="1">  1       21 0.64296000E-01 0.45613816E+03</pdfrwt>
<pdfrwt beam="2">  1       21 0.17495689E-01 0.45613816E+03</pdfrwt>
<totfact> 0.60909481E+04</totfact>
</mgrwt>
</event>
<event>
 7    0  0.4766352E-002  0.4573221E+03  0.7546771E-02  0.1025561E+00
         21   -1    0    0  502  501  0.00000000000E+00  0.00000000000E+00  0.68945882123E+03  0.68945882123E+03  0.00000000000E+00 0. -1.
         21   -1    0    0  501  502 -0.00000000000E+00 -0.00000000000E+00 -0.75836114739E+02  0.75836114739E+02  0.00000000000E+00 0. -1.
      99926    2    1    2    0    0 -0.71054273576E-14  0.00000000000E+00  0.61362270649E+03  0.76529493597E+03  0.45732211088E+03 0.  0.
      99925    2    3    3    0    0 -0.43245800174E+02 -0.97087750980E+02  0.31053632475E+03  0.42061378836E+03  0.26303406499E+03 0.  0.
         25    1    3    3    0    0  0.43245800174E+02  0.97087750980E+02  0.30308638174E+03  0.34468114761E+03  0.12509000000E+03 0.  0.
         25    1    4    4    0    0 -0.54166425203E+02 -0.28057893091E+02  0.17261887904E+03  0.22173414821E+03  0.12509000000E+03 0.  0.
         25    1    4    4    0    0  0.10920625029E+02 -0.69029857888E+02  0.13791744571E+03  0.19887964014E+03  0.12509000000E+03 0.  0.
<mgrwt>
<rscale>  2 0.45732211E+03</rscale>
<asrwt>0</asrwt>
<pdfrwt beam="1">  1       21 0.10139100E+00 0.45732211E+03</pdfrwt>
<pdfrwt beam="2">  1       21 0.11152370E-01 0.45732211E+03</pdfrwt>
<totfact> 0.48597071E+04</totfact>
</mgrwt>
</event>
<event>
 7    0  0.4766352E-002  0.4669873E+03  0.7546771E-02  0.1022774E+00
         21   -1    0    0  502  501  0.00000000000E+00  0.00000000000E+00  0.44346908710E+02  0.44346908710E+02  0.00000000000E+00 0.  1.
         21   -1    0    0  501  502 -0.00000000000E+00 -0.00000000000E+00 -0.12293818382E+04  0.12293818382E+04  0.00000000000E+00 0.  1.
      99926    2    1    2    0    0  0.00000000000E+00  0.00000000000E+00 -0.11850349295E+04  0.12737287469E+04  0.46698729811E+03 0.  0.
      99925    2    3    3    0    0 -0.27247213737E+02  0.11888916985E+03 -0.80039456297E+03  0.85126837596E+03  0.26296263256E+03 0.  0.
         25    1    4    4    0    0 -0.32303831057E+02  0.68492245580E+02 -0.31192603686E+03  0.34449976165E+03  0.12509000000E+03 0.  0.
         25    1    3    3    0    0  0.27247213737E+02 -0.11888916985E+03 -0.38464036654E+03  0.42246037097E+03  0.12509000000E+03 0.  0.
         25    1    4    4    0    0  0.50566173201E+01  0.50396924270E+02 -0.48846852611E+03  0.50676861432E+03  0.12509000000E+03 0.  0.
<mgrwt>
<rscale>  2 0.46698730E+03</rscale>
<asrwt>0</asrwt>
<pdfrwt beam="1">  1       21 0.65216038E-02 0.46698730E+03</pdfrwt>
<pdfrwt beam="2">  1       21 0.18079146E+00 0.46698730E+03</pdfrwt>
<totfact> 0.27254468E+04</totfact>
</mgrwt>
</event>
<event>
 7    0  0.4766352E-002  0.4525039E+03  0.7546771E-02  0.1026978E+00
         21   -1    0    0  502  501  0.00000000000E+00  0.00000000000E+00  0.45903889313E+03  0.45903889313E+03  0.00000000000E+00 0. -1.
         21   -1    0    0  501  502 -0.00000000000E+00 -0.00000000000E+00 -0.11151546859E+03  0.11151546859E+03  0.00000000000E+00 0. -1.
      99926    2    1    2    0    0  0.14210854715E-13  0.00000000000E+00  0.34752342455E+03  0.57055436172E+03  0.45250386636E+03 0.  0.
      99925    2    3    3    0    0  0.96805967291E+02 -0.26023980953E+01  0.28709341297E+03  0.40121014960E+03  0.26299959809E+03 0.  0.
         25    1    4    4    0    0  0.88464819460E+02 -0.62002743721E+01  0.17843859182E+03  0.23527070969E+03  0.12509000000E+03 0.  0.
         25    1    3    3    0    0 -0.96805967291E+02  0.26023980953E+01  0.60430011578E+02  0.16934421212E+03  0.12509000000E+03 0.  0.
         25    1    4    4    0    0  0.83411478312E+01  0.35978762767E+01  0.10865482114E+03  0.16593943991E+03  0.12509000000E+03 0.  0.
<mgrwt>
<rscale>  2 0.45250387E+03</rscale>
<asrwt>0</asrwt>
<pdfrwt beam="1">  1       21 0.67505719E-01 0.45250387E+03</pdfrwt>
<pdfrwt beam="2">  1       21 0.16399334E-01 0.45250387E+03</pdfrwt>
<totfact> 0.61737973E+04</totfact>
</mgrwt>
</event>
<event>
 7    0  0.4766352E-002  0.4539443E+03  0.7546771E-02  0.1026552E+00
         21   -1    0    0  502  501  0.00000000000E+00  0.00000000000E+00  0.12679643174E+03  0.12679643174E+03  0.00000000000E+00 0. -1.
         21   -1    0    0  501  502 -0.00000000000E+00 -0.00000000000E+00 -0.40629181169E+03  0.40629181169E+03  0.00000000000E+00 0. -1.
      99926    2    1    2    0    0 -0.88817841970E-15  0.00000000000E+00 -0.27949537995E+03  0.53308824344E+03  0.45394427838E+03 0.  0.
      99925    2    3    3    0    0 -0.37342095879E+01  0.33711857897E+02 -0.50474057154E+02  0.26993675079E+03  0.26299769067E+03 0.  0.
         25    1    4    4    0    0  0.93556493374E+01  0.17823113316E+02 -0.64885550207E+02  0.14234758259E+03  0.12509000000E+03 0.  0.
         25    1    4    4    0    0 -0.13089858925E+02  0.15888744581E+02  0.14411493053E+02  0.12758916820E+03  0.12509000000E+03 0.  0.
         25    1    3    3    0    0  0.37342095879E+01 -0.33711857897E+02 -0.22902132280E+03  0.26315149264E+03  0.12509000000E+03 0.  0.
<mgrwt>
<rscale>  2 0.45394428E+03</rscale>
<asrwt>0</asrwt>
<pdfrwt beam="1">  1       21 0.18646534E-01 0.45394428E+03</pdfrwt>
<pdfrwt beam="2">  1       21 0.59748796E-01 0.45394428E+03</pdfrwt>
<totfact> 0.63527271E+04</totfact>
</mgrwt>
</event>
<event>
 7    0  0.4766352E-002  0.4594549E+03  0.7546771E-02  0.1024939E+00
         21   -1    0    0  502  501  0.00000000000E+00  0.00000000000E+00  0.14694750552E+03  0.14694750552E+03  0.00000000000E+00 0. -1.
         21   -1    0    0  501  502 -0.00000000000E+00 -0.00000000000E+00 -0.35913976091E+03  0.35913976091E+03  0.00000000000E+00 0. -1.
      99926    2    1    2    0    0  0.00000000000E+00  0.44408920985E-15 -0.21219225539E+03  0.50608726643E+03  0.45945485959E+03 0.  0.
      99925    2    3    3    0    0  0.11754688941E+03  0.31110023820E+01 -0.13458314636E+03  0.31767911520E+03  0.26264129037E+03 0.  0.
         25    1    4    4    0    0  0.10237820609E+03 -0.19260196236E+01 -0.75406087526E+02  0.17837766892E+03  0.12509000000E+03 0.  0.
         25    1    3    3    0    0 -0.11754688941E+03 -0.31110023820E+01 -0.77609109027E+02  0.18840815123E+03  0.12509000000E+03 0.  0.
         25    1    4    4    0    0  0.15168683316E+02  0.50370220056E+01 -0.59177058834E+02  0.13930144628E+03  0.12509000000E+03 0.  0.
<mgrwt>
<rscale>  2 0.45945486E+03</rscale>
<asrwt>0</asrwt>
<pdfrwt beam="1">  1       21 0.21609928E-01 0.45945486E+03</pdfrwt>
<pdfrwt beam="2">  1       21 0.52814670E-01 0.45945486E+03</pdfrwt>
<totfact> 0.62601992E+04</totfact>
</mgrwt>
</event>
<event>
 7    0  0.4766352E-002  0.4564758E+03  0.7546771E-02  0.1025808E+00
         21   -1    0    0  502  501  0.00000000000E+00  0.00000000000E+00  0.26433890312E+03  0.26433890312E+03  0.00000000000E+00 0. -1.
         21   -1    0    0  501  502 -0.00000000000E+00 -0.00000000000E+00 -0.19706723148E+03  0.19706723148E+03  0.00000000000E+00 0. -1.
      99926    2    1    2    0    0 -0.71054273576E-14  0.00000000000E+00  0.67271671644E+02  0.46140613460E+03  0.45647578604E+03 0.  0.
      99925    2    3    3    0    0 -0.38615748595E+02 -0.10780826758E+03  0.43944771814E+02  0.29021778525E+03  0.26302361359E+03 0.  0.
         25    1    4    4    0    0 -0.24889945470E+02 -0.17519638010E+02 -0.17010835301E+01  0.12875111218E+03  0.12509000000E+03 0.  0.
         25    1    3    3    0    0  0.38615748595E+02  0.10780826758E+03  0.23326899830E+02  0.17118834935E+03  0.12509000000E+03 0.  0.
         25    1    4    4    0    0 -0.13725803126E+02 -0.90288629574E+02  0.45645855344E+02  0.16146667307E+03  0.12509000000E+03 0.  0.
<mgrwt>
<rscale>  2 0.45647579E+03</rscale>
<asrwt>0</asrwt>
<pdfrwt beam="1">  1       21 0.38873368E-01 0.45647579E+03</pdfrwt>
<pdfrwt beam="2">  1       21 0.28980475E-01 0.45647579E+03</pdfrwt>
<totfact> 0.67282878E+04</totfact>
</mgrwt>
</event>
<event>
 7    0  0.4766352E-002  0.4506446E+03  0.7546771E-02  0.1027530E+00
         21   -1    0    0  502  501  0.00000000000E+00  0.00000000000E+00  0.24651614655E+03  0.24651614655E+03  0.00000000000E+00 0.  1.
         21   -1    0    0  501  502 -0.00000000000E+00 -0.00000000000E+00 -0.20595053628E+03  0.20595053628E+03  0.00000000000E+00 0.  1.
      99926    2    1    2    0    0 -0.35527136788E-14  0.44408920985E-15  0.40565610274E+02  0.45246668283E+03  0.45064457207E+03 0.  0.
      99925    2    3    3    0    0  0.17265802173E+02 -0.28088062751E+01  0.13364130974E+03  0.29556992936E+03  0.26305053917E+03 0.  0.
         25    1    4    4    0    0 -0.15760342709E+02 -0.18384482719E+01  0.29533489734E+02  0.12950483933E+03  0.12509000000E+03 0.  0.
         25    1    3    3    0    0 -0.17265802173E+02  0.28088062751E+01 -0.93075699470E+02  0.15689675347E+03  0.12509000000E+03 0.  0.
         25    1    4    4    0    0  0.33026144882E+02 -0.97035800321E+00  0.10410782001E+03  0.16606509003E+03  0.12509000000E+03 0.  0.
<mgrwt>
<rscale>  2 0.45064457E+03</rscale>
<asrwt>0</asrwt>
<pdfrwt beam="1">  1       21 0.36252374E-01 0.45064457E+03</pdfrwt>
<pdfrwt beam="2">  1       21 0.30286844E-01 0.45064457E+03</pdfrwt>
<totfact> 0.71173120E+04</totfact>
</mgrwt>
</event>
<event>
 7    0  0.4766352E-002  0.4527396E+03  0.7546771E-02  0.1026908E+00
         21   -1    0    0  502  501  0.00000000000E+00  0.00000000000E+00  0.66586429638E+03  0.66586429638E+03  0.00000000000E+00 0. -1.
         21   -1    0    0  501  502 -0.00000000000E+00 -0.00000000000E+00 -0.76957544859E+02  0.76957544859E+02  0.00000000000E+00 0. -1.
      99926    2    1    2    0    0  0.00000000000E+00  0.00000000000E+00  0.58890675152E+03  0.74282184124E+03  0.45273957838E+03 0.  0.
      99925    2    3    3    0    0  0.64054075315E+02  0.87198414254E+02  0.33009419014E+03  0.43567702516E+03  0.26295590482E+03 0.  0.
         25    1    4    4    0    0  0.71156700388E+02  0.38810358150E+02  0.19162961008E+03  0.24277342414E+03  0.12509000000E+03 0.  0.
         25    1    3    3    0    0 -0.64054075315E+02 -0.87198414254E+02  0.25881256138E+03  0.30714481608E+03  0.12509000000E+03 0.  0.
         25    1    4    4    0    0 -0.71026250734E+01  0.48388056104E+02  0.13846458006E+03  0.19290360102E+03  0.12509000000E+03 0.  0.
<mgrwt>
<rscale>  2 0.45273958E+03</rscale>
<asrwt>0</asrwt>
<pdfrwt beam="1">  1       21 0.97921217E-01 0.45273958E+03</pdfrwt>
<pdfrwt beam="2">  1       21 0.11317286E-01 0.45273958E+03</pdfrwt>
<totfact> 0.51548782E+04</totfact>
</mgrwt>
</event>
<event>
 7    0  0.4766352E-002  0.4573812E+03  0.7546771E-02  0.1025543E+00
         21   -1    0    0  502  501  0.00000000000E+00  0.00000000000E+00  0.70575363721E+02  0.70575363721E+02  0.00000000000E+00 0.  1.
         21   -1    0    0  501  502 -0.00000000000E+00 -0.00000000000E+00 -0.74104300002E+03  0.74104300002E+03  0.00000000000E+00 0.  1.
      99926    2    1    2    0    0  0.14210854715E-13  0.14210854715E-13 -0.67046763629E+03  0.81161836374E+03  0.45738115072E+03 0.  0.
      99925    2    3    3    0    0  0.65603572990E+02  0.94787478629E+02 -0.41514418868E+03  0.50481864748E+03  0.26307541610E+03 0.  0.
         25    1    4    4    0    0  0.25508634349E+02  0.65411466356E+02 -0.15050639205E+03  0.20791592653E+03  0.12509000000E+03 0.  0.
         25    1    3    3    0    0 -0.65603572990E+02 -0.94787478629E+02 -0.25532344761E+03  0.30679971626E+03  0.12509000000E+03 0.  0.
         25    1    4    4    0    0  0.40094938641E+02  0.29376012274E+02 -0.26463779663E+03  0.29690272095E+03  0.12509000000E+03 0.  0.
<mgrwt>
<rscale>  2 0.45738115E+03</rscale>
<asrwt>0</asrwt>
<pdfrwt beam="1">  1       21 0.10378730E-01 0.45738115E+03</pdfrwt>
<pdfrwt beam="2">  1       21 0.10897691E+00 0.45738115E+03</pdfrwt>
<totfact> 0.46336088E+04</totfact>
</mgrwt>
</event>
<event>
 7    0  0.4766352E-002  0.4657278E+03  0.7546771E-02  0.1023133E+00
         21   -1    0    0  502  501  0.00000000000E+00  0.00000000000E+00  0.13760763952E+03  0.13760763952E+03  0.00000000000E+00 0.  1.
         21   -1    0    0  501  502 -0.00000000000E+00 -0.00000000000E+00 -0.39405944368E+03  0.39405944368E+03  0.00000000000E+00 0.  1.
      99926    2    1    2    0    0  0.35527136788E-14  0.00000000000E+00 -0.25645180415E+03  0.53166708320E+03  0.46572777403E+03 0.  0.
      99925    2    3    3    0    0  0.18016936957E+02 -0.11139177586E+03 -0.10434558004E+03  0.30469450940E+03  0.26309315126E+03 0.  0.
         25    1    4    4    0    0  0.34137159117E+02 -0.87297858728E+02 -0.72999198270E+02  0.17251855790E+03  0.12509000000E+03 0.  0.
         25    1    4    4    0    0 -0.16120222160E+02 -0.24093917128E+02 -0.31346381774E+02  0.13217595150E+03  0.12509000000E+03 0.  0.
         25    1    3    3    0    0 -0.18016936957E+02  0.11139177586E+03 -0.15210622411E+03  0.22697257380E+03  0.12509000000E+03 0.  0.
<mgrwt>
<rscale>  2 0.46572777E+03</rscale>
<asrwt>0</asrwt>
<pdfrwt beam="1">  1       21 0.20236418E-01 0.46572777E+03</pdfrwt>
<pdfrwt beam="2">  1       21 0.57949916E-01 0.46572777E+03</pdfrwt>
<totfact> 0.58002101E+04</totfact>
</mgrwt>
</event>
<event>
 7    0  0.4766352E-002  0.4527446E+03  0.7546771E-02  0.1026907E+00
         21   -1    0    0  502  501  0.00000000000E+00  0.00000000000E+00  0.28743833714E+03  0.28743833714E+03  0.00000000000E+00 0.  1.
         21   -1    0    0  501  502 -0.00000000000E+00 -0.00000000000E+00 -0.17827971638E+03  0.17827971638E+03  0.00000000000E+00 0.  1.
      99926    2    1    2    0    0 -0.14210854715E-13  0.00000000000E+00  0.10915862076E+03  0.46571805352E+03  0.45274463099E+03 0.  0.
      99925    2    3    3    0    0 -0.10009074272E+03  0.14222256314E+02  0.11607122546E+03  0.30473444704E+03  0.26300213779E+03 0.  0.
         25    1    3    3    0    0  0.10009074272E+03 -0.14222256314E+02 -0.69126046941E+01  0.16098360648E+03  0.12509000000E+03 0.  0.
         25    1    4    4    0    0 -0.84300991781E+02 -0.49958825826E+00  0.37467951241E+02  0.15542928384E+03  0.12509000000E+03 0.  0.
         25    1    4    4    0    0 -0.15789750935E+02  0.14721844572E+02  0.78603274216E+02  0.14930516321E+03  0.12509000000E+03 0.  0.
<mgrwt>
<rscale>  2 0.45274463E+03</rscale>
<asrwt>0</asrwt>
<pdfrwt beam="1">  1       21 0.42270344E-01 0.45274463E+03</pdfrwt>
<pdfrwt beam="2">  1       21 0.26217605E-01 0.45274463E+03</pdfrwt>
<totfact> 0.68981531E+04</totfact>
</mgrwt>
</event>
<event>
 7    0  0.4766352E-002  0.4526020E+03  0.7546771E-02  0.1026949E+00
         21   -1    0    0  502  501  0.00000000000E+00  0.00000000000E+00  0.21327070341E+03  0.21327070341E+03  0.00000000000E+00 0. -1.
         21   -1    0    0  501  502 -0.00000000000E+00 -0.00000000000E+00 -0.24012737608E+03  0.24012737608E+03  0.00000000000E+00 0. -1.
      99926    2    1    2    0    0  0.00000000000E+00  0.00000000000E+00 -0.26856672674E+02  0.45339807949E+03  0.45260196378E+03 0.  0.
      99925    2    3    3    0    0 -0.40861657591E+01  0.34465906944E+02 -0.12245193671E+03  0.29218220527E+03  0.26300450335E+03 0.  0.
         25    1    3    3    0    0  0.40861657591E+01 -0.34465906944E+02  0.95595264041E+02  0.16121587422E+03  0.12509000000E+03 0.  0.
         25    1    4    4    0    0 -0.18088232439E+02  0.98488097990E+01 -0.10112241754E+03  0.16216483785E+03  0.12509000000E+03 0.  0.
         25    1    4    4    0    0  0.14002066680E+02  0.24617097145E+02 -0.21329519180E+02  0.13001736742E+03  0.12509000000E+03 0.  0.
<mgrwt>
<rscale>  2 0.45260196E+03</rscale>
<asrwt>0</asrwt>
<pdfrwt beam="1">  1       21 0.31363339E-01 0.45260196E+03</pdfrwt>
<pdfrwt beam="2">  1       21 0.35312849E-01 0.45260196E+03</pdfrwt>
<totfact> 0.69992995E+04</totfact>
</mgrwt>
</event>
<event>
 7    0  0.4766352E-002  0.4561991E+03  0.7546771E-02  0.1025889E+00
         21   -1    0    0  502  501  0.00000000000E+00  0.00000000000E+00  0.56224967996E+03  0.56224967996E+03  0.00000000000E+00 0. -1.
         21   -1    0    0  501  502 -0.00000000000E+00 -0.00000000000E+00 -0.92537904920E+02  0.92537904920E+02  0.00000000000E+00 0. -1.
      99926    2    1    2    0    0  0.00000000000E+00 -0.35527136788E-14  0.46971177504E+03  0.65478758488E+03  0.45619911190E+03 0.  0.
      99925    2    3    3    0    0 -0.10133618377E+03  0.27684315869E+02  0.23037919596E+03  0.36502382767E+03  0.26293036596E+03 0.  0.
         25    1    3    3    0    0  0.10133618377E+03 -0.27684315869E+02  0.23933257908E+03  0.28976375721E+03  0.12509000000E+03 0.  0.
         25    1    4    4    0    0 -0.13604067604E+02  0.32277727411E+02  0.11528092717E+03  0.17367821571E+03  0.12509000000E+03 0.  0.
         25    1    4    4    0    0 -0.87732116168E+02 -0.45934115416E+01  0.11509826879E+03  0.19134561196E+03  0.12509000000E+03 0.  0.
<mgrwt>
<rscale>  2 0.45619911E+03</rscale>
<asrwt>0</asrwt>
<pdfrwt beam="1">  1       21 0.82683775E-01 0.45619911E+03</pdfrwt>
<pdfrwt beam="2">  1       21 0.13608516E-01 0.45619911E+03</pdfrwt>
<totfact> 0.54905363E+04</totfact>
</mgrwt>
</event>
<event>
 6    0  0.4766352E-002  0.4532341E+03  0.7546771E-02  0.1026762E+00
         21   -1    0    0  502  501  0.00000000000E+00  0.00000000000E+00  0.23156578481E+03  0.23156578481E+03  0.00000000000E+00 0.  1.
         21   -1    0    0  501  502 -0.00000000000E+00 -0.00000000000E+00 -0.22177403439E+03  0.22177403439E+03  0.00000000000E+00 0.  1.
      99926    2    1    2    0    0  0.00000000000E+00  0.35527136788E-14  0.97917504194E+01  0.45333981921E+03  0.45323406018E+03 0.  0.
         25    1    3    3    0    0 -0.97586894176E+01  0.18832267082E+02  0.68196401358E+02  0.14404215897E+03  0.12509000000E+03 0.  0.
         25    1    3    3    0    0  0.80422618928E+02  0.26671297601E+02 -0.11764819740E+02  0.15154232028E+03  0.12509000000E+03 0.  0.
         25    1    3    3    0    0 -0.70663929510E+02 -0.45503564682E+02 -0.46639831199E+02  0.15775533996E+03  0.12509000000E+03 0.  0.
<mgrwt>
<rscale>  2 0.45323406E+03</rscale>
<asrwt>0</asrwt>
<pdfrwt beam="1">  1       21 0.34053792E-01 0.45323406E+03</pdfrwt>
<pdfrwt beam="2">  1       21 0.32613829E-01 0.45323406E+03</pdfrwt>
<totfact> 0.69643734E+04</totfact>
</mgrwt>
</event>
<event>
 7    0  0.4766352E-002  0.4558805E+03  0.7546771E-02  0.1025983E+00
         21   -1    0    0  502  501  0.00000000000E+00  0.00000000000E+00  0.23197809086E+03  0.23197809086E+03  0.00000000000E+00 0. -1.
         21   -1    0    0  501  502 -0.00000000000E+00 -0.00000000000E+00 -0.22397265642E+03  0.22397265642E+03  0.00000000000E+00 0. -1.
      99926    2    1    2    0    0  0.35527136788E-14  0.00000000000E+00  0.80054344420E+01  0.45595074728E+03  0.45588046346E+03 0.  0.
      99925    2    3    3    0    0 -0.22778367375E+02  0.67132571799E+02  0.94318930635E+02  0.28825112313E+03  0.26299622258E+03 0.  0.
         25    1    4    4    0    0  0.23561719963E+02  0.28027013814E+02  0.24236578843E+02  0.13257295352E+03  0.12509000000E+03 0.  0.
         25    1    4    4    0    0 -0.46340087338E+02  0.39105557985E+02  0.70082351792E+02  0.15567816961E+03  0.12509000000E+03 0.  0.
         25    1    3    3    0    0  0.22778367375E+02 -0.67132571799E+02 -0.86313496193E+02  0.16769962415E+03  0.12509000000E+03 0.  0.
<mgrwt>
<rscale>  2 0.45588046E+03</rscale>
<asrwt>0</asrwt>
<pdfrwt beam="1">  1       21 0.34114425E-01 0.45588046E+03</pdfrwt>
<pdfrwt beam="2">  1       21 0.32937155E-01 0.45588046E+03</pdfrwt>
<totfact> 0.67997250E+04</totfact>
</mgrwt>
</event>
<event>
 7    0  0.4766352E-002  0.4544986E+03  0.7546771E-02  0.1026389E+00
         21   -1    0    0  502  501  0.00000000000E+00  0.00000000000E+00  0.17842917728E+03  0.17842917728E+03  0.00000000000E+00 0. -1.
         21   -1    0    0  501  502 -0.00000000000E+00 -0.00000000000E+00 -0.28942716344E+03  0.28942716344E+03  0.00000000000E+00 0. -1.
      99926    2    1    2    0    0  0.00000000000E+00 -0.13322676296E-14 -0.11099798616E+03  0.46785634072E+03  0.45449862774E+03 0.  0.
      99925    2    3    3    0    0 -0.10882965483E+03  0.30431104708E+01 -0.10008114654E+03  0.30166416347E+03  0.26292941512E+03 0.  0.
         25    1    4    4    0    0 -0.45824701848E+02  0.28866369512E+02 -0.79396381230E+02  0.15774810313E+03  0.12509000000E+03 0.  0.
         25    1    4    4    0    0 -0.63004952982E+02 -0.25823259041E+02 -0.20684765315E+02  0.14391606034E+03  0.12509000000E+03 0.  0.
         25    1    3    3    0    0  0.10882965483E+03 -0.30431104708E+01 -0.10916839619E+02  0.16619217725E+03  0.12509000000E+03 0.  0.
<mgrwt>
<rscale>  2 0.45449863E+03</rscale>
<asrwt>0</asrwt>
<pdfrwt beam="1">  1       21 0.26239585E-01 0.45449863E+03</pdfrwt>
<pdfrwt beam="2">  1       21 0.42562818E-01 0.45449863E+03</pdfrwt>
<totfact> 0.67865082E+04</totfact>
</mgrwt>
</event>
<event>
 7    0  0.4766352E-002  0.4463933E+03  0.7546771E-02  0.1028803E+00
         21   -1    0    0  502  501  0.00000000000E+00  0.00000000000E+00  0.29979158716E+03  0.29979158716E+03  0.00000000000E+00 0. -1.
         21   -1    0    0  501  502 -0.00000000000E+00 -0.00000000000E+00 -0.16617122429E+03  0.16617122429E+03  0.00000000000E+00 0. -1.
      99926    2    1    2    0    0  0.00000000000E+00  0.00000000000E+00  0.13362036288E+03  0.46596281145E+03  0.44639325743E+03 0.  0.
      99925    2    3    3    0    0 -0.83144139154E+02  0.21739049498E+02  0.14750423034E+03  0.31356266701E+03  0.26301808688E+03 0.  0.
         25    1    3    3    0    0  0.83144139154E+02 -0.21739049498E+02 -0.13883867460E+02  0.15240014444E+03  0.12509000000E+03 0.  0.
         25    1    4    4    0    0 -0.26904711886E+02 -0.12414181004E+02  0.35892330037E+02  0.13346813428E+03  0.12509000000E+03 0.  0.
         25    1    4    4    0    0 -0.56239427269E+02  0.34153230503E+02  0.11161190030E+03  0.18009453274E+03  0.12509000000E+03 0.  0.
<mgrwt>
<rscale>  2 0.44639326E+03</rscale>
<asrwt>0</asrwt>
<pdfrwt beam="1">  1       21 0.44086998E-01 0.44639326E+03</pdfrwt>
<pdfrwt beam="2">  1       21 0.24436945E-01 0.44639326E+03</pdfrwt>
<totfact> 0.72567232E+04</totfact>
</mgrwt>
</event>
<event>
 7    0  0.4766352E-002  0.4537211E+03  0.7546771E-02  0.1026618E+00
         21   -1    0    0  502  501  0.00000000000E+00  0.00000000000E+00  0.12214518302E+03  0.12214518302E+03  0.00000000000E+00 0. -1.
         21   -1    0    0  501  502 -0.00000000000E+00 -0.00000000000E+00 -0.42134865671E+03  0.42134865671E+03  0.00000000000E+00 0. -1.
      99926    2    1    2    0    0  0.00000000000E+00 -0.14210854715E-13 -0.29920347369E+03  0.54349383973E+03  0.45372109842E+03 0.  0.
      99925    2    3    3    0    0 -0.84835814797E+01 -0.83326663368E+02 -0.27751967351E+03  0.39139847730E+03  0.26298344979E+03 0.  0.
         25    1    3    3    0    0  0.84835814797E+01  0.83326663368E+02 -0.21683800188E+02  0.15209536243E+03  0.12509000000E+03 0.  0.
         25    1    4    4    0    0  0.29087934175E+02 -0.17279693032E+02 -0.12645417215E+03  0.18106038070E+03  0.12509000000E+03 0.  0.
         25    1    4    4    0    0 -0.37571515654E+02 -0.66046970336E+02 -0.15106550136E+03  0.21033809660E+03  0.12509000000E+03 0.  0.
<mgrwt>
<rscale>  2 0.45372110E+03</rscale>
<asrwt>0</asrwt>
<pdfrwt beam="1">  1       21 0.17962527E-01 0.45372110E+03</pdfrwt>
<pdfrwt beam="2">  1       21 0.61963038E-01 0.45372110E+03</pdfrwt>
<totfact> 0.62932983E+04</totfact>
</mgrwt>
</event>
<event>
 7    0  0.4766352E-002  0.4524107E+03  0.7546771E-02  0.1027006E+00
         21   -1    0    0  502  501  0.00000000000E+00  0.00000000000E+00  0.42589504558E+03  0.42589504558E+03  0.00000000000E+00 0.  1.
         21   -1    0    0  501  502 -0.00000000000E+00 -0.00000000000E+00 -0.12014431099E+03  0.12014431099E+03  0.00000000000E+00 0.  1.
      99926    2    1    2    0    0  0.00000000000E+00 -0.14210854715E-13  0.30575073460E+03  0.54603935657E+03  0.45241072845E+03 0.  0.
      99925    2    3    3    0    0  0.29331844772E+02  0.93609694789E+02  0.13178043548E+03  0.31037793599E+03  0.26333485887E+03 0.  0.
         25    1    4    4    0    0  0.91805047618E+01  0.69143798139E+02  0.10748154753E+03  0.17906685246E+03  0.12509000000E+03 0.  0.
         25    1    3    3    0    0 -0.29331844772E+02 -0.93609694789E+02  0.17397029912E+03  0.23566142058E+03  0.12509000000E+03 0.  0.
         25    1    4    4    0    0  0.20151340010E+02  0.24465896650E+02  0.24298887947E+02  0.13131108353E+03  0.12509000000E+03 0.  0.
<mgrwt>
<rscale>  2 0.45241073E+03</rscale>
<asrwt>0</asrwt>
<pdfrwt beam="1">  1       21 0.62631624E-01 0.45241073E+03</pdfrwt>
<pdfrwt beam="2">  1       21 0.17668281E-01 0.45241073E+03</pdfrwt>
<totfact> 0.63418360E+04</totfact>
</mgrwt>
</event>
<event>
 7    0  0.4766352E-002  0.4580858E+03  0.7546771E-02  0.1025338E+00
         21   -1    0    0  502  501  0.00000000000E+00  0.00000000000E+00  0.11554085767E+03  0.11554085767E+03  0.00000000000E+00 0. -1.
         21   -1    0    0  501  502 -0.00000000000E+00 -0.00000000000E+00 -0.45404420859E+03  0.45404420859E+03  0.00000000000E+00 0. -1.
      99926    2    1    2    0    0  0.00000000000E+00  0.00000000000E+00 -0.33850335092E+03  0.56958506625E+03  0.45808583160E+03 0.  0.
      99925    2    3    3    0    0  0.10873874075E+03 -0.33690030746E+02 -0.18406623614E+03  0.34054912489E+03  0.26293382298E+03 0.  0.
         25    1    4    4    0    0  0.97633850582E+02 -0.22345868749E+02 -0.10896678367E+03  0.19378589906E+03  0.12509000000E+03 0.  0.
         25    1    3    3    0    0 -0.10873874075E+03  0.33690030746E+02 -0.15443711478E+03  0.22903594136E+03  0.12509000000E+03 0.  0.
         25    1    4    4    0    0  0.11104890173E+02 -0.11344161997E+02 -0.75099452469E+02  0.14676322584E+03  0.12509000000E+03 0.  0.
<mgrwt>
<rscale>  2 0.45808583E+03</rscale>
<asrwt>0</asrwt>
<pdfrwt beam="1">  1       21 0.16991303E-01 0.45808583E+03</pdfrwt>
<pdfrwt beam="2">  1       21 0.66771207E-01 0.45808583E+03</pdfrwt>
<totfact> 0.59134265E+04</totfact>
</mgrwt>
</event>
<event>
 7    0  0.4766352E-002  0.4595595E+03  0.7546771E-02  0.1024909E+00
         21   -1    0    0  502  501  0.00000000000E+00  0.00000000000E+00  0.72145976227E+03  0.72145976227E+03  0.00000000000E+00 0. -1.
         21   -1    0    0  501  502 -0.00000000000E+00 -0.00000000000E+00 -0.73183190862E+02  0.73183190862E+02  0.00000000000E+00 0. -1.
      99926    2    1    2    0    0  0.17763568394E-14  0.00000000000E+00  0.64827657141E+03  0.79464295314E+03  0.45955947376E+03 0.  0.
      99925    2    3    3    0    0  0.11697112597E+02 -0.10525403782E+03  0.49368610432E+03  0.56934103229E+03  0.26307414646E+03 0.  0.
         25    1    3    3    0    0 -0.11697112597E+02  0.10525403782E+03  0.15459046710E+03  0.22530192085E+03  0.12509000000E+03 0.  0.
         25    1    4    4    0    0 -0.14610275200E+02 -0.89553901271E+02  0.28156854927E+03  0.32118797831E+03  0.12509000000E+03 0.  0.
         25    1    4    4    0    0  0.26307387797E+02 -0.15700136544E+02  0.21211755505E+03  0.24815305398E+03  0.12509000000E+03 0.  0.
<mgrwt>
<rscale>  2 0.45955947E+03</rscale>
<asrwt>0</asrwt>
<pdfrwt beam="1">  1       21 0.10609702E+00 0.45955947E+03</pdfrwt>
<pdfrwt beam="2">  1       21 0.10762234E-01 0.45955947E+03</pdfrwt>
<totfact> 0.46344290E+04</totfact>
</mgrwt>
</event>
<event>
 7    0  0.4766352E-002  0.4505260E+03  0.7546771E-02  0.1027565E+00
         21   -1    0    0  502  501  0.00000000000E+00  0.00000000000E+00  0.17512579793E+03  0.17512579793E+03  0.00000000000E+00 0. -1.
         21   -1    0    0  501  502 -0.00000000000E+00 -0.00000000000E+00 -0.28975416915E+03  0.28975416915E+03  0.00000000000E+00 0. -1.
      99926    2    1    2    0    0  0.00000000000E+00  0.00000000000E+00 -0.11462837122E+03  0.46487996708E+03  0.45052604842E+03 0.  0.
      99925    2    3    3    0    0  0.10686767589E+03 -0.20691700246E+02 -0.77712041892E+02  0.29500009752E+03  0.26293925054E+03 0.  0.
         25    1    4    4    0    0  0.55275339583E+02 -0.11439992992E+02  0.28203609072E+01  0.13726506890E+03  0.12509000000E+03 0.  0.
         25    1    3    3    0    0 -0.10686767589E+03  0.20691700246E+02 -0.36916329332E+02  0.16987986956E+03  0.12509000000E+03 0.  0.
         25    1    4    4    0    0  0.51592336306E+02 -0.92517072536E+01 -0.80532402799E+02  0.15773502862E+03  0.12509000000E+03 0.  0.
<mgrwt>
<rscale>  2 0.45052605E+03</rscale>
<asrwt>0</asrwt>
<pdfrwt beam="1">  1       21 0.25753794E-01 0.45052605E+03</pdfrwt>
<pdfrwt beam="2">  1       21 0.42610907E-01 0.45052605E+03</pdfrwt>
<totfact> 0.70279767E+04</totfact>
</mgrwt>
</event>
<event>
 7    0  0.4766352E-002  0.4585909E+03  0.7546771E-02  0.1025191E+00
         21   -1    0    0  502  501  0.00000000000E+00  0.00000000000E+00  0.27924139058E+02  0.27924139058E+02  0.00000000000E+00 0.  1.
         21   -1    0    0  501  502 -0.00000000000E+00 -0.00000000000E+00 -0.18828301582E+04  0.18828301582E+04  0.00000000000E+00 0.  1.
      99926    2    1    2    0    0  0.71054273576E-14  0.00000000000E+00 -0.18549060191E+04  0.19107542972E+04  0.45859093388E+03 0.  0.
      99925    2    3    3    0    0  0.55991587710E+02 -0.48938274944E+02 -0.79003397070E+03  0.83598455433E+03  0.26303324425E+03 0.  0.
         25    1    4    4    0    0  0.20528404575E+02  0.13829748973E+02 -0.32786453954E+03  0.35178877432E+03  0.12509000000E+03 0.  0.
         25    1    3    3    0    0 -0.55991587710E+02  0.48938274944E+02 -0.10648720484E+04  0.10747697429E+04  0.12509000000E+03 0.  0.
         25    1    4    4    0    0  0.35463183135E+02 -0.62768023917E+02 -0.46216943116E+03  0.48419578002E+03  0.12509000000E+03 0.  0.
<mgrwt>
<rscale>  2 0.45859093E+03</rscale>
<asrwt>0</asrwt>
<pdfrwt beam="1">  1       21 0.41064903E-02 0.45859093E+03</pdfrwt>
<pdfrwt beam="2">  1       21 0.27688683E+00 0.45859093E+03</pdfrwt>
<totfact> 0.14805110E+04</totfact>
</mgrwt>
</event>
<event>
 6    0  0.4766352E-002  0.4382563E+03  0.7546771E-02  0.1031283E+00
         21   -1    0    0  502  501  0.00000000000E+00  0.00000000000E+00  0.51953705465E+03  0.51953705465E+03  0.00000000000E+00 0. -1.
         21   -1    0    0  501  502 -0.00000000000E+00 -0.00000000000E+00 -0.92422928933E+02  0.92422928933E+02  0.00000000000E+00 0. -1.
      99926    2    1    2    0    0  0.00000000000E+00  0.00000000000E+00  0.42711412571E+03  0.61195998358E+03  0.43825625508E+03 0.  0.
         25    1    3    3    0    0  0.86954387422E+02 -0.22704498661E+02  0.20075680886E+03  0.25303629019E+03  0.12509000000E+03 0.  0.
         25    1    3    3    0    0 -0.14477526616E+01  0.65190385820E+01  0.11650468468E+03  0.17107145730E+03  0.12509000000E+03 0.  0.
         25    1    3    3    0    0 -0.85506634760E+02  0.16185460079E+02  0.10985263218E+03  0.18785223609E+03  0.12509000000E+03 0.  0.
<mgrwt>
<rscale>  2 0.43825626E+03</rscale>
<asrwt>0</asrwt>
<pdfrwt beam="1">  1       21 0.76402507E-01 0.43825626E+03</pdfrwt>
<pdfrwt beam="2">  1       21 0.13591607E-01 0.43825626E+03</pdfrwt>
<totfact> 0.66288522E+04</totfact>
</mgrwt>
</event>
<event>
 7    0  0.4766352E-002  0.4629560E+03  0.7546771E-02  0.1023927E+00
         21   -1    0    0  502  501  0.00000000000E+00  0.00000000000E+00  0.52073884279E+02  0.52073884279E+02  0.00000000000E+00 0.  1.
         21   -1    0    0  501  502 -0.00000000000E+00 -0.00000000000E+00 -0.10289624887E+04  0.10289624887E+04  0.00000000000E+00 0.  1.
      99926    2    1    2    0    0  0.00000000000E+00  0.00000000000E+00 -0.97688860441E+03  0.10810363730E+04  0.46295603922E+03 0.  0.
      99925    2    3    3    0    0  0.78058638504E+02 -0.85918505669E+02 -0.68441846711E+03  0.74241943604E+03  0.26321633731E+03 0.  0.
         25    1    3    3    0    0 -0.78058638504E+02  0.85918505669E+02 -0.29247013730E+03  0.33861693693E+03  0.12509000000E+03 0.  0.
         25    1    4    4    0    0  0.57519855064E+02 -0.82525134233E+02 -0.36415200089E+03  0.39796120333E+03  0.12509000000E+03 0.  0.
         25    1    4    4    0    0  0.20538783440E+02 -0.33933714365E+01 -0.32026646622E+03  0.34445823271E+03  0.12509000000E+03 0.  0.
<mgrwt>
<rscale>  2 0.46295604E+03</rscale>
<asrwt>0</asrwt>
<pdfrwt beam="1">  1       21 0.76579243E-02 0.46295604E+03</pdfrwt>
<pdfrwt beam="2">  1       21 0.15131801E+00 0.46295604E+03</pdfrwt>
<totfact> 0.33998610E+04</totfact>
</mgrwt>
</event>
<event>
 7    0  0.4766352E-002  0.4478021E+03  0.7546771E-02  0.1028380E+00
         21   -1    0    0  502  501  0.00000000000E+00  0.00000000000E+00  0.19160528377E+03  0.19160528377E+03  0.00000000000E+00 0.  1.
         21   -1    0    0  501  502 -0.00000000000E+00 -0.00000000000E+00 -0.26164037972E+03  0.26164037972E+03  0.00000000000E+00 0.  1.
      99926    2    1    2    0    0  0.00000000000E+00  0.00000000000E+00 -0.70035095953E+02  0.45324566349E+03  0.44780209559E+03 0.  0.
      99925    2    3    3    0    0 -0.27197308623E+02  0.45855183942E+02 -0.13742303057E+03  0.30148587527E+03  0.26299477592E+03 0.  0.
         25    1    4    4    0    0 -0.12386360429E+02  0.57129484813E+02 -0.46380212285E+02  0.14565655547E+03  0.12509000000E+03 0.  0.
         25    1    4    4    0    0 -0.14810948194E+02 -0.11274300871E+02 -0.91042818287E+02  0.15582931980E+03  0.12509000000E+03 0.  0.
         25    1    3    3    0    0  0.27197308623E+02 -0.45855183942E+02  0.67387934620E+02  0.15175978823E+03  0.12509000000E+03 0.  0.
<mgrwt>
<rscale>  2 0.44780210E+03</rscale>
<asrwt>0</asrwt>
<pdfrwt beam="1">  1       21 0.28177248E-01 0.44780210E+03</pdfrwt>
<pdfrwt beam="2">  1       21 0.38476526E-01 0.44780210E+03</pdfrwt>
<totfact> 0.72763403E+04</totfact>
</mgrwt>
</event>
<event>
 7    0  0.4766352E-002  0.4670419E+03  0.7546771E-02  0.1022758E+00
         21   -1    0    0  502  501  0.00000000000E+00  0.00000000000E+00  0.17071947002E+04  0.17071947002E+04  0.00000000000E+00 0. -1.
         21   -1    0    0  501  502 -0.00000000000E+00 -0.00000000000E+00 -0.31942475467E+02  0.31942475467E+02  0.00000000000E+00 0. -1.
      99926    2    1    2    0    0  0.00000000000E+00  0.71054273576E-14  0.16752522247E+04  0.17391371756E+04  0.46704186034E+03 0.  0.
      99925    2    3    3    0    0 -0.75532185411E+02  0.36300938359E+02  0.70242298471E+03  0.75472511382E+03  0.26303816991E+03 0.  0.
         25    1    4    4    0    0  0.60189917921E+00  0.29088477273E+02  0.36051881489E+03  0.38271115189E+03  0.12509000000E+03 0.  0.
         25    1    3    3    0    0  0.75532185411E+02 -0.36300938359E+02  0.97282923998E+03  0.98441206181E+03  0.12509000000E+03 0.  0.
         25    1    4    4    0    0 -0.76134084590E+02  0.72124610860E+01  0.34190416982E+03  0.37201396193E+03  0.12509000000E+03 0.  0.
<mgrwt>
<rscale>  2 0.46704186E+03</rscale>
<asrwt>0</asrwt>
<pdfrwt beam="1">  1       21 0.25105798E+00 0.46704186E+03</pdfrwt>
<pdfrwt beam="2">  1       21 0.46974240E-02 0.46704186E+03</pdfrwt>
<totfact> 0.16829641E+04</totfact>
</mgrwt>
</event>
<event>
 7    0  0.4766352E-002  0.4584440E+03  0.7546771E-02  0.1025233E+00
         21   -1    0    0  502  501  0.00000000000E+00  0.00000000000E+00  0.27896451884E+03  0.27896451884E+03  0.00000000000E+00 0.  1.
         21   -1    0    0  501  502 -0.00000000000E+00 -0.00000000000E+00 -0.18834912930E+03  0.18834912930E+03  0.00000000000E+00 0.  1.
      99926    2    1    2    0    0  0.00000000000E+00  0.00000000000E+00  0.90615389535E+02  0.46731364814E+03  0.45844399540E+03 0.  0.
      99925    2    3    3    0    0  0.38423025569E+02  0.11107982845E+02  0.16824093753E+03  0.31475890394E+03  0.26299893227E+03 0.  0.
         25    1    3    3    0    0 -0.38423025569E+02 -0.11107982845E+02 -0.77625547990E+02  0.15255474420E+03  0.12509000000E+03 0.  0.
         25    1    4    4    0    0 -0.17252389125E+02 -0.98181554826E+00  0.10121144241E+03  0.16183285534E+03  0.12509000000E+03 0.  0.
         25    1    4    4    0    0  0.55675414694E+02  0.12089798393E+02  0.67029495111E+02  0.15292604860E+03  0.12509000000E+03 0.  0.
<mgrwt>
<rscale>  2 0.45844400E+03</rscale>
<asrwt>0</asrwt>
<pdfrwt beam="1">  1       21 0.41024194E-01 0.45844400E+03</pdfrwt>
<pdfrwt beam="2">  1       21 0.27698401E-01 0.45844400E+03</pdfrwt>
<totfact> 0.65818369E+04</totfact>
</mgrwt>
</event>
<event>
 7    0  0.4766352E-002  0.4295679E+03  0.7546771E-02  0.1033997E+00
         21   -1    0    0  502  501  0.00000000000E+00  0.00000000000E+00  0.13011387478E+04  0.13011387478E+04  0.00000000000E+00 0. -1.
         21   -1    0    0  501  502 -0.00000000000E+00 -0.00000000000E+00 -0.35455212542E+02  0.35455212542E+02  0.00000000000E+00 0. -1.
      99926    2    1    2    0    0  0.00000000000E+00  0.00000000000E+00  0.12656835353E+04  0.13365939603E+04  0.42956792641E+03 0.  0.
      99925    2    3    3    0    0 -0.44431748155E+02  0.38756432612E+02  0.61675074579E+03  0.67308999302E+03  0.26304451135E+03 0.  0.
         25    1    4    4    0    0 -0.58742743894E+01 -0.10984420879E+02  0.34869542141E+03  0.37066314844E+03  0.12509000000E+03 0.  0.
         25    1    4    4    0    0 -0.38557473766E+02  0.49740853491E+02  0.26805532439E+03  0.30242684458E+03  0.12509000000E+03 0.  0.
         25    1    3    3    0    0  0.44431748155E+02 -0.38756432612E+02  0.64893278947E+03  0.66350396733E+03  0.12509000000E+03 0.  0.
<mgrwt>
<rscale>  2 0.42956793E+03</rscale>
<asrwt>0</asrwt>
<pdfrwt beam="1">  1       21 0.19134390E+00 0.42956793E+03</pdfrwt>
<pdfrwt beam="2">  1       21 0.52140027E-02 0.42956793E+03</pdfrwt>
<totfact> 0.34383042E+04</totfact>
</mgrwt>
</event>
<event>
 7    0  0.4766352E-002  0.4566412E+03  0.7546771E-02  0.1025760E+00
         21   -1    0    0  502  501  0.00000000000E+00  0.00000000000E+00  0.16916838456E+03  0.16916838456E+03  0.00000000000E+00 0.  1.
         21   -1    0    0  501  502 -0.00000000000E+00 -0.00000000000E+00 -0.30815622659E+03  0.30815622659E+03  0.00000000000E+00 0.  1.
      99926    2    1    2    0    0  0.00000000000E+00  0.00000000000E+00 -0.13898784203E+03  0.47732461116E+03  0.45664117662E+03 0.  0.
      99925    2    3    3    0    0  0.24873515974E+02  0.74175716317E+02  0.21141802375E-01  0.27461364852E+03  0.26323359743E+03 0.  0.
         25    1    4    4    0    0  0.26598500375E+02  0.65296767989E+02  0.27550780834E+02  0.14621115469E+03  0.12509000000E+03 0.  0.
         25    1    3    3    0    0 -0.24873515974E+02 -0.74175716317E+02 -0.13900898383E+03  0.20271096264E+03  0.12509000000E+03 0.  0.
         25    1    4    4    0    0 -0.17249844008E+01  0.88789483278E+01 -0.27529639031E+02  0.12840249382E+03  0.12509000000E+03 0.  0.
<mgrwt>
<rscale>  2 0.45664118E+03</rscale>
<asrwt>0</asrwt>
<pdfrwt beam="1">  1       21 0.24877704E-01 0.45664118E+03</pdfrwt>
<pdfrwt beam="2">  1       21 0.45317092E-01 0.45664118E+03</pdfrwt>
<totfact> 0.66031116E+04</totfact>
</mgrwt>
</event>
<event>
 7    0  0.4766352E-002  0.4545897E+03  0.7546771E-02  0.1026362E+00
         21   -1    0    0  502  501  0.00000000000E+00  0.00000000000E+00  0.24028358070E+03  0.24028358070E+03  0.00000000000E+00 0.  1.
         21   -1    0    0  501  502 -0.00000000000E+00 -0.00000000000E+00 -0.21500823127E+03  0.21500823127E+03  0.00000000000E+00 0.  1.
      99926    2    1    2    0    0  0.00000000000E+00  0.00000000000E+00  0.25275349432E+02  0.45529181198E+03  0.45458969496E+03 0.  0.
      99925    2    3    3    0    0 -0.49400465797E+02  0.93270585109E+02 -0.24771703534E+02  0.28414268496E+03  0.26264733018E+03 0.  0.
         25    1    3    3    0    0  0.49400465797E+02 -0.93270585109E+02  0.50047052966E+02  0.17114912702E+03  0.12509000000E+03 0.  0.
         25    1    4    4    0    0 -0.43631203505E+02  0.62249405688E+02  0.19673753003E+02  0.14769304346E+03  0.12509000000E+03 0.  0.
         25    1    4    4    0    0 -0.57692622925E+01  0.31021179421E+02 -0.44445456537E+02  0.13644964150E+03  0.12509000000E+03 0.  0.
<mgrwt>
<rscale>  2 0.45458969E+03</rscale>
<asrwt>0</asrwt>
<pdfrwt beam="1">  1       21 0.35335821E-01 0.45458969E+03</pdfrwt>
<pdfrwt beam="2">  1       21 0.31618857E-01 0.45458969E+03</pdfrwt>
<totfact> 0.68749244E+04</totfact>
</mgrwt>
</event>
<event>
 7    0  0.4766352E-002  0.4548263E+03  0.7546771E-02  0.1026292E+00
         21   -1    0    0  502  501  0.00000000000E+00  0.00000000000E+00  0.52344267276E+03  0.52344267276E+03  0.00000000000E+00 0.  1.
         21   -1    0    0  501  502 -0.00000000000E+00 -0.00000000000E+00 -0.98801169821E+02  0.98801169821E+02  0.00000000000E+00 0.  1.
      99926    2    1    2    0    0  0.00000000000E+00  0.00000000000E+00  0.42464150294E+03  0.62224384258E+03  0.45482633346E+03 0.  0.
      99925    2    3    3    0    0  0.98897424439E+02  0.18794294025E+02  0.19695493617E+03  0.34363550309E+03  0.26298324291E+03 0.  0.
         25    1    4    4    0    0  0.51150409478E+02  0.46151135527E+02  0.12168073636E+03  0.18761663413E+03  0.12509000000E+03 0.  0.
         25    1    4    4    0    0  0.47747014961E+02 -0.27356841502E+02  0.75274199814E+02  0.15601886896E+03  0.12509000000E+03 0.  0.
         25    1    3    3    0    0 -0.98897424439E+02 -0.18794294025E+02  0.22768656677E+03  0.27860833950E+03  0.12509000000E+03 0.  0.
<mgrwt>
<rscale>  2 0.45482633E+03</rscale>
<asrwt>0</asrwt>
<pdfrwt beam="1">  1       21 0.76976862E-01 0.45482633E+03</pdfrwt>
<pdfrwt beam="2">  1       21 0.14529584E-01 0.45482633E+03</pdfrwt>
<totfact> 0.57408255E+04</totfact>
</mgrwt>
</event>
<event>
 7    0  0.4766352E-002  0.4707358E+03  0.7546771E-02  0.1021713E+00
         21   -1    0    0  502  501  0.00000000000E+00  0.00000000000E+00  0.32417063993E+03  0.32417063993E+03  0.00000000000E+00 0.  1.
         21   -1    0    0  501  502 -0.00000000000E+00 -0.00000000000E+00 -0.17089165010E+03  0.17089165010E+03  0.00000000000E+00 0.  1.
      99926    2    1    2    0    0  0.00000000000E+00  0.00000000000E+00  0.15327898984E+03  0.49506229003E+03  0.47073583068E+03 0.  0.
      99925    2    3    3    0    0 -0.25390546275E+01  0.52510325795E+02  0.21714639914E+03  0.34509450954E+03  0.26300927882E+03 0.  0.
         25    1    3    3    0    0  0.25390546275E+01 -0.52510325795E+02 -0.63867409299E+02  0.14996778049E+03  0.12509000000E+03 0.  0.
         25    1    4    4    0    0  0.12296864631E+02  0.47006138988E+02  0.15338673557E+03  0.20380330893E+03  0.12509000000E+03 0.  0.
         25    1    4    4    0    0 -0.14835919259E+02  0.55041868071E+01  0.63759663569E+02  0.14129120061E+03  0.12509000000E+03 0.  0.
<mgrwt>
<rscale>  2 0.47073583E+03</rscale>
<asrwt>0</asrwt>
<pdfrwt beam="1">  1       21 0.47672153E-01 0.47073583E+03</pdfrwt>
<pdfrwt beam="2">  1       21 0.25131125E-01 0.47073583E+03</pdfrwt>
<totfact> 0.58024910E+04</totfact>
</mgrwt>
</event>
<event>
 7    0  0.4766352E-002  0.4583971E+03  0.7546771E-02  0.1025247E+00
         21   -1    0    0  502  501  0.00000000000E+00  0.00000000000E+00  0.43687692782E+03  0.43687692782E+03  0.00000000000E+00 0. -1.
         21   -1    0    0  501  502 -0.00000000000E+00 -0.00000000000E+00 -0.12024435310E+03  0.12024435310E+03  0.00000000000E+00 0. -1.
      99926    2    1    2    0    0  0.00000000000E+00  0.00000000000E+00  0.31663257472E+03  0.55712128092E+03  0.45839713598E+03 0.  0.
      99925    2    3    3    0    0  0.14172249050E+02  0.71161108474E+02  0.30914786067E+03  0.41231698179E+03  0.26299836066E+03 0.  0.
         25    1    4    4    0    0  0.26068519505E+02  0.30393187478E+02  0.10056745263E+03  0.16542259272E+03  0.12509000000E+03 0.  0.
         25    1    3    3    0    0 -0.14172249050E+02 -0.71161108474E+02  0.74847140473E+01  0.14480429913E+03  0.12509000000E+03 0.  0.
         25    1    4    4    0    0 -0.11896270455E+02  0.40767920996E+02  0.20858040804E+03  0.24689438906E+03  0.12509000000E+03 0.  0.
<mgrwt>
<rscale>  2 0.45839714E+03</rscale>
<asrwt>0</asrwt>
<pdfrwt beam="1">  1       21 0.64246606E-01 0.45839714E+03</pdfrwt>
<pdfrwt beam="2">  1       21 0.17682993E-01 0.45839714E+03</pdfrwt>
<totfact> 0.59775740E+04</totfact>
</mgrwt>
</event>
<event>
 7    0  0.4766352E-002  0.4584474E+03  0.7546771E-02  0.1025232E+00
         21   -1    0    0  502  501  0.00000000000E+00  0.00000000000E+00  0.21742398637E+03  0.21742398637E+03  0.00000000000E+00 0. -1.
         21   -1    0    0  501  502 -0.00000000000E+00 -0.00000000000E+00 -0.24166379983E+03  0.24166379983E+03  0.00000000000E+00 0. -1.
      99926    2    1    2    0    0  0.88817841970E-15  0.14210854715E-13 -0.24239813458E+02  0.45908778619E+03  0.45844740906E+03 0.  0.
      99925    2    3    3    0    0 -0.75451969695E+01  0.81124605770E+02 -0.98606461928E+02  0.29230637787E+03  0.26283388775E+03 0.  0.
         25    1    4    4    0    0  0.15856804391E+01  0.80071523706E+02 -0.67089717913E+02  0.16298006516E+03  0.12509000000E+03 0.  0.
         25    1    4    4    0    0 -0.91308774086E+01  0.10530820636E+01 -0.31516744015E+02  0.12932631270E+03  0.12509000000E+03 0.  0.
         25    1    3    3    0    0  0.75451969695E+01 -0.81124605770E+02  0.74366648470E+02  0.16678140833E+03  0.12509000000E+03 0.  0.
<mgrwt>
<rscale>  2 0.45844741E+03</rscale>
<asrwt>0</asrwt>
<pdfrwt beam="1">  1       21 0.31974116E-01 0.45844741E+03</pdfrwt>
<pdfrwt beam="2">  1       21 0.35538794E-01 0.45844741E+03</pdfrwt>
<totfact> 0.66402026E+04</totfact>
</mgrwt>
</event>
<event>
 7    0  0.4766352E-002  0.4583203E+03  0.7546771E-02  0.1025269E+00
         21   -1    0    0  502  501  0.00000000000E+00  0.00000000000E+00  0.65612389198E+03  0.65612389198E+03  0.00000000000E+00 0.  1.
         21   -1    0    0  501  502 -0.00000000000E+00 -0.00000000000E+00 -0.80037289980E+02  0.80037289980E+02  0.00000000000E+00 0.  1.
      99926    2    1    2    0    0  0.00000000000E+00 -0.71054273576E-14  0.57608660200E+03  0.73616118196E+03  0.45832031683E+03 0.  0.
      99925    2    3    3    0    0 -0.58437002415E+02  0.62222178007E+02  0.23380949666E+03  0.36187839098E+03  0.26268347196E+03 0.  0.
         25    1    4    4    0    0 -0.69806574234E+01  0.13161127061E+02  0.14798709856E+03  0.19434411306E+03  0.12509000000E+03 0.  0.
         25    1    3    3    0    0  0.58437002415E+02 -0.62222178007E+02  0.34227710534E+03  0.37428279098E+03  0.12509000000E+03 0.  0.
         25    1    4    4    0    0 -0.51456344992E+02  0.49061050946E+02  0.85822398108E+02  0.16753427792E+03  0.12509000000E+03 0.  0.
<mgrwt>
<rscale>  2 0.45832032E+03</rscale>
<asrwt>0</asrwt>
<pdfrwt beam="1">  1       21 0.96488805E-01 0.45832032E+03</pdfrwt>
<pdfrwt beam="2">  1       21 0.11770190E-01 0.45832032E+03</pdfrwt>
<totfact> 0.49673734E+04</totfact>
</mgrwt>
</event>
<event>
 7    0  0.4766352E-002  0.4609340E+03  0.7546771E-02  0.1024511E+00
         21   -1    0    0  502  501  0.00000000000E+00  0.00000000000E+00  0.71711015691E+03  0.71711015691E+03  0.00000000000E+00 0.  1.
         21   -1    0    0  501  502 -0.00000000000E+00 -0.00000000000E+00 -0.74068162244E+02  0.74068162244E+02  0.00000000000E+00 0.  1.
      99926    2    1    2    0    0  0.88817841970E-15 -0.71054273576E-14  0.64304199467E+03  0.79117831916E+03  0.46093397119E+03 0.  0.
      99925    2    3    3    0    0  0.68111948437E+01 -0.39399417986E+02  0.21071400070E+03  0.33934460087E+03  0.26297464048E+03 0.  0.
         25    1    4    4    0    0  0.33789437823E+00  0.20434118345E+02  0.90907536351E+02  0.15597870249E+03  0.12509000000E+03 0.  0.
         25    1    3    3    0    0 -0.68111948437E+01  0.39399417986E+02  0.43232799397E+03  0.45183371829E+03  0.12509000000E+03 0.  0.
         25    1    4    4    0    0  0.64733004654E+01 -0.59833536332E+02  0.11980646435E+03  0.18336589838E+03  0.12509000000E+03 0.  0.
<mgrwt>
<rscale>  2 0.46093397E+03</rscale>
<asrwt>0</asrwt>
<pdfrwt beam="1">  1       21 0.10545737E+00 0.46093397E+03</pdfrwt>
<pdfrwt beam="2">  1       21 0.10892377E-01 0.46093397E+03</pdfrwt>
<totfact> 0.46013824E+04</totfact>
</mgrwt>
</event>
<event>
 7    0  0.4766352E-002  0.4644554E+03  0.7546771E-02  0.1023497E+00
         21   -1    0    0  502  501  0.00000000000E+00  0.00000000000E+00  0.43639192010E+03  0.43639192010E+03  0.00000000000E+00 0.  1.
         21   -1    0    0  501  502 -0.00000000000E+00 -0.00000000000E+00 -0.12358088288E+03  0.12358088288E+03  0.00000000000E+00 0.  1.
      99926    2    1    2    0    0  0.14210854715E-13 -0.17763568394E-14  0.31281103722E+03  0.55997280298E+03  0.46445537468E+03 0.  0.
      99925    2    3    3    0    0 -0.11388199072E+03  0.15901853267E+02  0.14700274879E+03  0.32256624586E+03  0.26309161536E+03 0.  0.
         25    1    4    4    0    0 -0.67383949115E+02  0.68441497552E+01  0.12000816583E+03  0.18610993243E+03  0.12509000000E+03 0.  0.
         25    1    4    4    0    0 -0.46498041609E+02  0.90577035122E+01  0.26994582962E+02  0.13645631343E+03  0.12509000000E+03 0.  0.
         25    1    3    3    0    0  0.11388199072E+03 -0.15901853267E+02  0.16580828843E+03  0.23740655711E+03  0.12509000000E+03 0.  0.
<mgrwt>
<rscale>  2 0.46445537E+03</rscale>
<asrwt>0</asrwt>
<pdfrwt beam="1">  1       21 0.64175282E-01 0.46445537E+03</pdfrwt>
<pdfrwt beam="2">  1       21 0.18173659E-01 0.46445537E+03</pdfrwt>
<totfact> 0.56840227E+04</totfact>
</mgrwt>
</event>
<event>
 7    0  0.4766352E-002  0.4438789E+03  0.7546771E-02  0.1029563E+00
         21   -1    0    0  502  501  0.00000000000E+00  0.00000000000E+00  0.44524939408E+03  0.44524939408E+03  0.00000000000E+00 0.  1.
         21   -1    0    0  501  502 -0.00000000000E+00 -0.00000000000E+00 -0.11062813701E+03  0.11062813701E+03  0.00000000000E+00 0.  1.
      99926    2    1    2    0    0  0.00000000000E+00  0.00000000000E+00  0.33462125708E+03  0.55587753109E+03  0.44387886172E+03 0.  0.
      99925    2    3    3    0    0  0.48899801769E+02 -0.69587299261E+02  0.14151941051E+03  0.31058298553E+03  0.26305981168E+03 0.  0.
         25    1    3    3    0    0 -0.48899801769E+02  0.69587299261E+02  0.19310184657E+03  0.24529454556E+03  0.12509000000E+03 0.  0.
         25    1    4    4    0    0  0.40160197370E+02 -0.53478358907E+02  0.37116873117E+02  0.14662178110E+03  0.12509000000E+03 0.  0.
         25    1    4    4    0    0  0.87396043990E+01 -0.16108940354E+02  0.10440253739E+03  0.16396120443E+03  0.12509000000E+03 0.  0.
<mgrwt>
<rscale>  2 0.44387886E+03</rscale>
<asrwt>0</asrwt>
<pdfrwt beam="1">  1       21 0.65477852E-01 0.44387886E+03</pdfrwt>
<pdfrwt beam="2">  1       21 0.16268844E-01 0.44387886E+03</pdfrwt>
<totfact> 0.67199357E+04</totfact>
</mgrwt>
</event>
<event>
 7    0  0.4766352E-002  0.4532903E+03  0.7546771E-02  0.1026745E+00
         21   -1    0    0  502  501  0.00000000000E+00  0.00000000000E+00  0.81749923785E+03  0.81749923785E+03  0.00000000000E+00 0. -1.
         21   -1    0    0  501  502 -0.00000000000E+00 -0.00000000000E+00 -0.62835574838E+02  0.62835574838E+02  0.00000000000E+00 0. -1.
      99926    2    1    2    0    0  0.00000000000E+00  0.35527136788E-14  0.75466366301E+03  0.88033481268E+03  0.45329034642E+03 0.  0.
      99925    2    3    3    0    0 -0.63342710555E+02 -0.21748404222E+02  0.64889853307E+03  0.70336288588E+03  0.26299192182E+03 0.  0.
         25    1    3    3    0    0  0.63342710555E+02  0.21748404222E+02  0.10576512994E+03  0.17697192681E+03  0.12509000000E+03 0.  0.
         25    1    4    4    0    0 -0.32766984591E+02 -0.11957358498E+02  0.43027164297E+03  0.44944170761E+03  0.12509000000E+03 0.  0.
         25    1    4    4    0    0 -0.30575725964E+02 -0.97910457240E+01  0.21862689010E+03  0.25392117826E+03  0.12509000000E+03 0.  0.
<mgrwt>
<rscale>  2 0.45329035E+03</rscale>
<asrwt>0</asrwt>
<pdfrwt beam="1">  1       21 0.12022047E+00 0.45329035E+03</pdfrwt>
<pdfrwt beam="2">  1       21 0.92405262E-02 0.45329035E+03</pdfrwt>
<totfact> 0.44690289E+04</totfact>
</mgrwt>
</event>
<event>
 7    0  0.4766352E-002  0.4667701E+03  0.7546771E-02  0.1022836E+00
         21   -1    0    0  502  501  0.00000000000E+00  0.00000000000E+00  0.92752773191E+02  0.92752773191E+02  0.00000000000E+00 0.  1.
         21   -1    0    0  501  502 -0.00000000000E+00 -0.00000000000E+00 -0.58724465625E+03  0.58724465625E+03  0.00000000000E+00 0.  1.
      99926    2    1    2    0    0  0.00000000000E+00  0.00000000000E+00 -0.49449188306E+03  0.67999742944E+03  0.46677005221E+03 0.  0.
      99925    2    3    3    0    0  0.32204238167E+02  0.53839293347E+02 -0.46358167464E+03  0.53668402620E+03  0.26303230307E+03 0.  0.
         25    1    4    4    0    0 -0.13183341465E+02  0.16384875506E+02 -0.27515802264E+03  0.30298797033E+03  0.12509000000E+03 0.  0.
         25    1    4    4    0    0  0.45387579632E+02  0.37454417841E+02 -0.18842365200E+03  0.23369605588E+03  0.12509000000E+03 0.  0.
         25    1    3    3    0    0 -0.32204238167E+02 -0.53839293347E+02 -0.30910208423E+02  0.14331340324E+03  0.12509000000E+03 0.  0.
<mgrwt>
<rscale>  2 0.46677005E+03</rscale>
<asrwt>0</asrwt>
<pdfrwt beam="1">  1       21 0.13640114E-01 0.46677005E+03</pdfrwt>
<pdfrwt beam="2">  1       21 0.86359506E-01 0.46677005E+03</pdfrwt>
<totfact> 0.49271127E+04</totfact>
</mgrwt>
</event>
<event>
 7    0  0.4766352E-002  0.4447618E+03  0.7546771E-02  0.1029296E+00
         21   -1    0    0  502  501  0.00000000000E+00  0.00000000000E+00  0.60246429431E+03  0.60246429431E+03  0.00000000000E+00 0. -1.
         21   -1    0    0  501  502 -0.00000000000E+00 -0.00000000000E+00 -0.82084971770E+02  0.82084971770E+02  0.00000000000E+00 0. -1.
      99926    2    1    2    0    0  0.00000000000E+00  0.14210854715E-13  0.52037932254E+03  0.68454926608E+03  0.44476179958E+03 0.  0.
      99925    2    3    3    0    0 -0.25084095612E+02  0.10012618048E+03  0.32679872031E+03  0.43201130551E+03  0.26302452475E+03 0.  0.
         25    1    3    3    0    0  0.25084095612E+02 -0.10012618048E+03  0.19358060223E+03  0.25253796057E+03  0.12509000000E+03 0.  0.
         25    1    4    4    0    0 -0.42192023816E+01  0.77728112509E+02  0.12812925836E+03  0.19525387599E+03  0.12509000000E+03 0.  0.
         25    1    4    4    0    0 -0.20864893230E+02  0.22398067973E+02  0.19866946195E+03  0.23675742952E+03  0.12509000000E+03 0.  0.
<mgrwt>
<rscale>  2 0.44476180E+03</rscale>
<asrwt>0</asrwt>
<pdfrwt beam="1">  1       21 0.88597688E-01 0.44476180E+03</pdfrwt>
<pdfrwt beam="2">  1       21 0.12071320E-01 0.44476180E+03</pdfrwt>
<totfact> 0.58309964E+04</totfact>
</mgrwt>
</event>
<event>
 7    0  0.4766352E-002  0.4550368E+03  0.7546771E-02  0.1026231E+00
         21   -1    0    0  502  501  0.00000000000E+00  0.00000000000E+00  0.19512684205E+03  0.19512684205E+03  0.00000000000E+00 0. -1.
         21   -1    0    0  501  502 -0.00000000000E+00 -0.00000000000E+00 -0.26528699297E+03  0.26528699297E+03  0.00000000000E+00 0. -1.
      99926    2    1    2    0    0  0.00000000000E+00  0.00000000000E+00 -0.70160150924E+02  0.46041383502E+03  0.45503675972E+03 0.  0.
      99925    2    3    3    0    0  0.94920274194E+01 -0.69519620597E+02  0.45632172971E+02  0.27608139998E+03  0.26308851738E+03 0.  0.
         25    1    3    3    0    0 -0.94920274194E+01  0.69519620597E+02 -0.11579232390E+03  0.18433243503E+03  0.12509000000E+03 0.  0.
         25    1    4    4    0    0  0.65991488039E+01 -0.67066068184E+02 -0.21993436526E+01  0.14210472012E+03  0.12509000000E+03 0.  0.
         25    1    4    4    0    0  0.28928786155E+01 -0.24535524132E+01  0.47831516624E+02  0.13397667987E+03  0.12509000000E+03 0.  0.
<mgrwt>
<rscale>  2 0.45503676E+03</rscale>
<asrwt>0</asrwt>
<pdfrwt beam="1">  1       21 0.28695124E-01 0.45503676E+03</pdfrwt>
<pdfrwt beam="2">  1       21 0.39012793E-01 0.45503676E+03</pdfrwt>
<totfact> 0.68130434E+04</totfact>
</mgrwt>
</event>
<event>
 7    0  0.4766352E-002  0.4512207E+03  0.7546771E-02  0.1027359E+00
         21   -1    0    0  502  501  0.00000000000E+00  0.00000000000E+00  0.51145241159E+03  0.51145241159E+03  0.00000000000E+00 0.  1.
         21   -1    0    0  501  502 -0.00000000000E+00 -0.00000000000E+00 -0.99520539512E+02  0.99520539512E+02  0.00000000000E+00 0.  1.
      99926    2    1    2    0    0  0.17763568394E-14  0.00000000000E+00  0.41193187208E+03  0.61097295110E+03  0.45122065527E+03 0.  0.
      99925    2    3    3    0    0 -0.87224065781E+01  0.58100945084E+02  0.13489057457E+03  0.30137451955E+03  0.26301964514E+03 0.  0.
         25    1    3    3    0    0  0.87224065781E+01 -0.58100945084E+02  0.27704129751E+03  0.30959843156E+03  0.12509000000E+03 0.  0.
         25    1    4    4    0    0  0.19666096061E+02  0.26429355849E+02  0.10326619075E+03  0.16551942616E+03  0.12509000000E+03 0.  0.
         25    1    4    4    0    0 -0.28388502639E+02  0.31671589235E+02  0.31624383820E+02  0.13585509339E+03  0.12509000000E+03 0.  0.
<mgrwt>
<rscale>  2 0.45122066E+03</rscale>
<asrwt>0</asrwt>
<pdfrwt beam="1">  1       21 0.75213589E-01 0.45122066E+03</pdfrwt>
<pdfrwt beam="2">  1       21 0.14635374E-01 0.45122066E+03</pdfrwt>
<totfact> 0.59772284E+04</totfact>
</mgrwt>
</event>
<event>
 7    0  0.4766352E-002  0.4544884E+03  0.7546771E-02  0.1026392E+00
         21   -1    0    0  502  501  0.00000000000E+00  0.00000000000E+00  0.47981659054E+03  0.47981659054E+03  0.00000000000E+00 0. -1.
         21   -1    0    0  501  502 -0.00000000000E+00 -0.00000000000E+00 -0.10762430545E+03  0.10762430545E+03  0.00000000000E+00 0. -1.
      99926    2    1    2    0    0  0.00000000000E+00  0.00000000000E+00  0.37219228508E+03  0.58744089599E+03  0.45448840382E+03 0.  0.
      99925    2    3    3    0    0  0.75535665817E+02 -0.39425306915E+02  0.13899931391E+03  0.30943646880E+03  0.26300214318E+03 0.  0.
         25    1    4    4    0    0  0.24899508482E+02 -0.56906080783E+02  0.59246456859E+02  0.15171004681E+03  0.12509000000E+03 0.  0.
         25    1    4    4    0    0  0.50636157335E+02  0.17480773868E+02  0.79752857054E+02  0.15772642199E+03  0.12509000000E+03 0.  0.
         25    1    3    3    0    0 -0.75535665817E+02  0.39425306915E+02  0.23319297117E+03  0.27800442719E+03  0.12509000000E+03 0.  0.
<mgrwt>
<rscale>  2 0.45448840E+03</rscale>
<asrwt>0</asrwt>
<pdfrwt beam="1">  1       21 0.70561263E-01 0.45448840E+03</pdfrwt>
<pdfrwt beam="2">  1       21 0.15827104E-01 0.45448840E+03</pdfrwt>
<totfact> 0.59699086E+04</totfact>
</mgrwt>
</event>
<event>
 7    0  0.4766352E-002  0.4522782E+03  0.7546771E-02  0.1027045E+00
         21   -1    0    0  502  501  0.00000000000E+00  0.00000000000E+00  0.48091021649E+03  0.48091021649E+03  0.00000000000E+00 0. -1.
         21   -1    0    0  501  502 -0.00000000000E+00 -0.00000000000E+00 -0.10633770907E+03  0.10633770907E+03  0.00000000000E+00 0. -1.
      99926    2    1    2    0    0  0.00000000000E+00  0.00000000000E+00  0.37457250742E+03  0.58724792556E+03  0.45227819178E+03 0.  0.
      99925    2    3    3    0    0  0.66095933241E+02 -0.26032619133E+02  0.12591782918E+03  0.29997971158E+03  0.26284245853E+03 0.  0.
         25    1    4    4    0    0  0.50484378037E+02 -0.48490405960E+02  0.54429670237E+02  0.15333000032E+03  0.12509000000E+03 0.  0.
         25    1    3    3    0    0 -0.66095933241E+02  0.26032619133E+02  0.24865467825E+03  0.28726821398E+03  0.12509000000E+03 0.  0.
         25    1    4    4    0    0  0.15611555204E+02  0.22457786827E+02  0.71488158940E+02  0.14664971126E+03  0.12509000000E+03 0.  0.
<mgrwt>
<rscale>  2 0.45227819E+03</rscale>
<asrwt>0</asrwt>
<pdfrwt beam="1">  1       21 0.70722090E-01 0.45227819E+03</pdfrwt>
<pdfrwt beam="2">  1       21 0.15637899E-01 0.45227819E+03</pdfrwt>
<totfact> 0.60766918E+04</totfact>
</mgrwt>
</event>
<event>
 7    0  0.4766352E-002  0.4453277E+03  0.7546771E-02  0.1029125E+00
         21   -1    0    0  502  501  0.00000000000E+00  0.00000000000E+00  0.74099460708E+03  0.74099460708E+03  0.00000000000E+00 0.  1.
         21   -1    0    0  501  502 -0.00000000000E+00 -0.00000000000E+00 -0.66908974156E+02  0.66908974156E+02  0.00000000000E+00 0.  1.
      99926    2    1    2    0    0 -0.71054273576E-14  0.00000000000E+00  0.67408563292E+03  0.80790358124E+03  0.44532769514E+03 0.  0.
      99925    2    3    3    0    0  0.61928312316E+02 -0.39121831077E+02  0.56158536045E+03  0.62441120281E+03  0.26295550877E+03 0.  0.
         25    1    3    3    0    0 -0.61928312316E+02  0.39121831077E+02  0.11250027247E+03  0.18349237842E+03  0.12509000000E+03 0.  0.
         25    1    4    4    0    0  0.43423536889E+02 -0.27504079891E+02  0.37564236909E+03  0.39924525735E+03  0.12509000000E+03 0.  0.
         25    1    4    4    0    0  0.18504775427E+02 -0.11617751186E+02  0.18594299137E+03  0.22516594546E+03  0.12509000000E+03 0.  0.
<mgrwt>
<rscale>  2 0.44532770E+03</rscale>
<asrwt>0</asrwt>
<pdfrwt beam="1">  1       21 0.10896979E+00 0.44532770E+03</pdfrwt>
<pdfrwt beam="2">  1       21 0.98395554E-02 0.44532770E+03</pdfrwt>
<totfact> 0.51158844E+04</totfact>
</mgrwt>
</event>
<event>
 7    0  0.4766352E-002  0.4553500E+03  0.7546771E-02  0.1026139E+00
         21   -1    0    0  502  501  0.00000000000E+00  0.00000000000E+00  0.29861143047E+03  0.29861143047E+03  0.00000000000E+00 0.  1.
         21   -1    0    0  501  502 -0.00000000000E+00 -0.00000000000E+00 -0.17358978847E+03  0.17358978847E+03  0.00000000000E+00 0.  1.
      99926    2    1    2    0    0  0.71054273576E-14  0.00000000000E+00  0.12502164200E+03  0.47220121893E+03  0.45534995355E+03 0.  0.
      99925    2    3    3    0    0 -0.58688749374E+02  0.86924893588E+02  0.12370794231E+03  0.30895434964E+03  0.26296164880E+03 0.  0.
         25    1    3    3    0    0  0.58688749374E+02 -0.86924893588E+02  0.13136996915E+01  0.16324686930E+03  0.12509000000E+03 0.  0.
         25    1    4    4    0    0  0.70744203319E+01  0.37505499688E+02  0.36882331873E+02  0.13588423174E+03  0.12509000000E+03 0.  0.
         25    1    4    4    0    0 -0.65763169705E+02  0.49419393900E+02  0.86825610437E+02  0.17307011790E+03  0.12509000000E+03 0.  0.
<mgrwt>
<rscale>  2 0.45534995E+03</rscale>
<asrwt>0</asrwt>
<pdfrwt beam="1">  1       21 0.43913446E-01 0.45534995E+03</pdfrwt>
<pdfrwt beam="2">  1       21 0.25527910E-01 0.45534995E+03</pdfrwt>
<totfact> 0.67085924E+04</totfact>
</mgrwt>
</event>
<event>
 7    0  0.4766352E-002  0.4538927E+03  0.7546771E-02  0.1026568E+00
         21   -1    0    0  502  501  0.00000000000E+00  0.00000000000E+00  0.63313155822E+02  0.63313155822E+02  0.00000000000E+00 0. -1.
         21   -1    0    0  501  502 -0.00000000000E+00 -0.00000000000E+00 -0.81349028116E+03  0.81349028116E+03  0.00000000000E+00 0. -1.
      99926    2    1    2    0    0  0.14210854715E-13  0.00000000000E+00 -0.75017712534E+03  0.87680343699E+03  0.45389266102E+03 0.  0.
      99925    2    3    3    0    0 -0.10951425680E+03 -0.23037529054E+02 -0.48545171569E+03  0.56335304091E+03  0.26301935336E+03 0.  0.
         25    1    4    4    0    0 -0.97310721084E+02 -0.20797761102E+02 -0.28432604279E+03  0.32617591882E+03  0.12509000000E+03 0.  0.
         25    1    3    3    0    0  0.10951425680E+03  0.23037529054E+02 -0.26472540965E+03  0.31345039608E+03  0.12509000000E+03 0.  0.
         25    1    4    4    0    0 -0.12203535718E+02 -0.22397679521E+01 -0.20112567290E+03  0.23717712209E+03  0.12509000000E+03 0.  0.
<mgrwt>
<rscale>  2 0.45389266E+03</rscale>
<asrwt>0</asrwt>
<pdfrwt beam="1">  1       21 0.93107586E-02 0.45389266E+03</pdfrwt>
<pdfrwt beam="2">  1       21 0.11963092E+00 0.45389266E+03</pdfrwt>
<totfact> 0.44637745E+04</totfact>
</mgrwt>
</event>
<event>
 7    0  0.4766352E-002  0.4579337E+03  0.7546771E-02  0.1025382E+00
         21   -1    0    0  502  501  0.00000000000E+00  0.00000000000E+00  0.29185858976E+02  0.29185858976E+02  0.00000000000E+00 0. -1.
         21   -1    0    0  501  502 -0.00000000000E+00 -0.00000000000E+00 -0.17962745016E+04  0.17962745016E+04  0.00000000000E+00 0. -1.
      99926    2    1    2    0    0  0.00000000000E+00  0.00000000000E+00 -0.17670886427E+04  0.18254603606E+04  0.45793368204E+03 0.  0.
      99925    2    3    3    0    0  0.16695093833E+02  0.99704262560E+02 -0.13352081862E+04  0.13646047402E+04  0.26295537689E+03 0.  0.
         25    1    4    4    0    0  0.16966882529E+02  0.84969433239E+02 -0.62075008841E+03  0.63912898546E+03  0.12509000000E+03 0.  0.
         25    1    4    4    0    0 -0.27178869641E+00  0.14734829321E+02 -0.71445809783E+03  0.72547575475E+03  0.12509000000E+03 0.  0.
         25    1    3    3    0    0 -0.16695093833E+02 -0.99704262560E+02 -0.43188045642E+03  0.46085562041E+03  0.12509000000E+03 0.  0.
<mgrwt>
<rscale>  2 0.45793368E+03</rscale>
<asrwt>0</asrwt>
<pdfrwt beam="1">  1       21 0.42920382E-02 0.45793368E+03</pdfrwt>
<pdfrwt beam="2">  1       21 0.26415801E+00 0.45793368E+03</pdfrwt>
<totfact> 0.16398689E+04</totfact>
</mgrwt>
</event>
<event>
 6    0  0.4766352E-002  0.4567351E+03  0.7546771E-02  0.1025732E+00
         21   -1    0    0  502  501  0.00000000000E+00  0.00000000000E+00  0.19561955874E+03  0.19561955874E+03  0.00000000000E+00 0.  1.
         21   -1    0    0  501  502 -0.00000000000E+00 -0.00000000000E+00 -0.26659774459E+03  0.26659774459E+03  0.00000000000E+00 0.  1.
      99926    2    1    2    0    0  0.35527136788E-14  0.00000000000E+00 -0.70978185846E+02  0.46221730333E+03  0.45673507927E+03 0.  0.
         25    1    3    3    0    0 -0.16090280936E+02 -0.77268312128E+02 -0.53488838051E+02  0.15728271709E+03  0.12509000000E+03 0.  0.
         25    1    3    3    0    0  0.94044894220E+01  0.57285147124E+02 -0.84233597483E+02  0.16159467673E+03  0.12509000000E+03 0.  0.
         25    1    3    3    0    0  0.66857915139E+01  0.19983165004E+02  0.66744249688E+02  0.14333990951E+03  0.12509000000E+03 0.  0.
<mgrwt>
<rscale>  2 0.45673508E+03</rscale>
<asrwt>0</asrwt>
<pdfrwt beam="1">  1       21 0.28767582E-01 0.45673508E+03</pdfrwt>
<pdfrwt beam="2">  1       21 0.39205551E-01 0.45673508E+03</pdfrwt>
<totfact> 0.67086203E+04</totfact>
</mgrwt>
</event>
<event>
 7    0  0.4766352E-002  0.4479290E+03  0.7546771E-02  0.1028341E+00
         21   -1    0    0  502  501  0.00000000000E+00  0.00000000000E+00  0.60417197501E+03  0.60417197501E+03  0.00000000000E+00 0. -1.
         21   -1    0    0  501  502 -0.00000000000E+00 -0.00000000000E+00 -0.83022898124E+02  0.83022898124E+02  0.00000000000E+00 0. -1.
      99926    2    1    2    0    0  0.00000000000E+00  0.00000000000E+00  0.52114907689E+03  0.68719487313E+03  0.44792904943E+03 0.  0.
      99925    2    3    3    0    0  0.83098230994E+02  0.62983131727E+02  0.36354580342E+03  0.46057075530E+03  0.26284535107E+03 0.  0.
         25    1    3    3    0    0 -0.83098230994E+02 -0.62983131727E+02  0.15760327347E+03  0.22662411784E+03  0.12509000000E+03 0.  0.
         25    1    4    4    0    0  0.81369808593E+02  0.23775663742E+02  0.18014426315E+03  0.23512930822E+03  0.12509000000E+03 0.  0.
         25    1    4    4    0    0  0.17284224013E+01  0.39207467984E+02  0.18340154027E+03  0.22544144708E+03  0.12509000000E+03 0.  0.
<mgrwt>
<rscale>  2 0.44792905E+03</rscale>
<asrwt>0</asrwt>
<pdfrwt beam="1">  1       21 0.88848817E-01 0.44792905E+03</pdfrwt>
<pdfrwt beam="2">  1       21 0.12209250E-01 0.44792905E+03</pdfrwt>
<totfact> 0.56694518E+04</totfact>
</mgrwt>
</event>
<event>
 7    0  0.4766352E-002  0.4532980E+03  0.7546771E-02  0.1026743E+00
         21   -1    0    0  502  501  0.00000000000E+00  0.00000000000E+00  0.78800106278E+02  0.78800106278E+02  0.00000000000E+00 0. -1.
         21   -1    0    0  501  502 -0.00000000000E+00 -0.00000000000E+00 -0.65189975715E+03  0.65189975715E+03  0.00000000000E+00 0. -1.
      99926    2    1    2    0    0 -0.14210854715E-13  0.31086244690E-14 -0.57309965087E+03  0.73069986343E+03  0.45329800417E+03 0.  0.
      99925    2    3    3    0    0 -0.87717769193E+02 -0.36016737942E+01 -0.47022867981E+03  0.54647900719E+03  0.26422890625E+03 0.  0.
         25    1    4    4    0    0 -0.94226458369E+01  0.25167923473E+02 -0.20766116191E+03  0.24391161697E+03  0.12509000000E+03 0.  0.
         25    1    4    4    0    0 -0.78295123356E+02 -0.28769597267E+02 -0.26256751790E+03  0.30256739022E+03  0.12509000000E+03 0.  0.
         25    1    3    3    0    0  0.87717769193E+02  0.36016737942E+01 -0.10287097106E+03  0.18422085624E+03  0.12509000000E+03 0.  0.
<mgrwt>
<rscale>  2 0.45329800E+03</rscale>
<asrwt>0</asrwt>
<pdfrwt beam="1">  1       21 0.11588251E-01 0.45329800E+03</pdfrwt>
<pdfrwt beam="2">  1       21 0.95867609E-01 0.45329800E+03</pdfrwt>
<totfact> 0.51959594E+04</totfact>
</mgrwt>
</event>
<event>
 7    0  0.4766352E-002  0.4510797E+03  0.7546771E-02  0.1027401E+00
         21   -1    0    0  502  501  0.00000000000E+00  0.00000000000E+00  0.23759585839E+03  0.23759585839E+03  0.00000000000E+00 0. -1.
         21   -1    0    0  501  502 -0.00000000000E+00 -0.00000000000E+00 -0.21409554965E+03  0.21409554965E+03  0.00000000000E+00 0. -1.
      99926    2    1    2    0    0  0.00000000000E+00  0.00000000000E+00  0.23500308736E+02  0.45169140804E+03  0.45107966435E+03 0.  0.
      99925    2    3    3    0    0  0.55342454389E+02  0.70172263321E+02 -0.48486494493E+02  0.28193705099E+03  0.26296506760E+03 0.  0.
         25    1    4    4    0    0  0.32534371825E+02  0.52940317447E+02 -0.62189445654E+02  0.15289276573E+03  0.12509000000E+03 0.  0.
         25    1    4    4    0    0  0.22808082565E+02  0.17231945875E+02  0.13702951161E+02  0.12904428526E+03  0.12509000000E+03 0.  0.
         25    1    3    3    0    0 -0.55342454389E+02 -0.70172263321E+02  0.71986803229E+02  0.16975435705E+03  0.12509000000E+03 0.  0.
<mgrwt>
<rscale>  2 0.45107966E+03</rscale>
<asrwt>0</asrwt>
<pdfrwt beam="1">  1       21 0.34940567E-01 0.45107966E+03</pdfrwt>
<pdfrwt beam="2">  1       21 0.31484640E-01 0.45107966E+03</pdfrwt>
<totfact> 0.70983384E+04</totfact>
</mgrwt>
</event>
<event>
 7    0  0.4766352E-002  0.4508541E+03  0.7546771E-02  0.1027468E+00
         21   -1    0    0  502  501  0.00000000000E+00  0.00000000000E+00  0.21746583550E+03  0.21746583550E+03  0.00000000000E+00 0.  1.
         21   -1    0    0  501  502 -0.00000000000E+00 -0.00000000000E+00 -0.23367976366E+03  0.23367976366E+03  0.00000000000E+00 0.  1.
      99926    2    1    2    0    0  0.00000000000E+00  0.00000000000E+00 -0.16213928155E+02  0.45114559916E+03  0.45085414513E+03 0.  0.
      99925    2    3    3    0    0  0.22560086128E+02 -0.10682825167E+03 -0.14454027904E+02  0.28509790062E+03  0.26296513301E+03 0.  0.
         25    1    4    4    0    0  0.24820569922E+02 -0.83524960151E+02  0.18696513375E+02  0.15358889078E+03  0.12509000000E+03 0.  0.
         25    1    4    4    0    0 -0.22604837941E+01 -0.23303291517E+02 -0.33150541279E+02  0.13150900984E+03  0.12509000000E+03 0.  0.
         25    1    3    3    0    0 -0.22560086128E+02  0.10682825167E+03 -0.17599002509E+01  0.16604769854E+03  0.12509000000E+03 0.  0.
<mgrwt>
<rscale>  2 0.45085415E+03</rscale>
<asrwt>0</asrwt>
<pdfrwt beam="1">  1       21 0.31980270E-01 0.45085415E+03</pdfrwt>
<pdfrwt beam="2">  1       21 0.34364671E-01 0.45085415E+03</pdfrwt>
<totfact> 0.71153862E+04</totfact>
</mgrwt>
</event>
<event>
 7    0  0.4766352E-002  0.4318590E+03  0.7546771E-02  0.1033274E+00
         21   -1    0    0  502  501  0.00000000000E+00  0.00000000000E+00  0.15768758897E+03  0.15768758897E+03  0.00000000000E+00 0. -1.
         21   -1    0    0  501  502 -0.00000000000E+00 -0.00000000000E+00 -0.29568311231E+03  0.29568311231E+03  0.00000000000E+00 0. -1.
      99926    2    1    2    0    0 -0.35527136788E-14  0.00000000000E+00 -0.13799552334E+03  0.45337070129E+03  0.43185903756E+03 0.  0.
      99925    2    3    3    0    0 -0.12102968092E+02  0.40664931296E+02 -0.54267477521E+01  0.26622875828E+03  0.26277021077E+03 0.  0.
         25    1    3    3    0    0  0.12102968092E+02 -0.40664931296E+02 -0.13256877559E+03  0.18714194301E+03  0.12509000000E+03 0.  0.
         25    1    4    4    0    0 -0.36606597388E+02  0.26516011541E+02  0.22702813966E+02  0.13492986216E+03  0.12509000000E+03 0.  0.
         25    1    4    4    0    0  0.24503629296E+02  0.14148919755E+02 -0.28129561718E+02  0.13129889612E+03  0.12509000000E+03 0.  0.
<mgrwt>
<rscale>  2 0.43185904E+03</rscale>
<asrwt>0</asrwt>
<pdfrwt beam="1">  1       21 0.23189352E-01 0.43185904E+03</pdfrwt>
<pdfrwt beam="2">  1       21 0.43482810E-01 0.43185904E+03</pdfrwt>
<totfact> 0.82898239E+04</totfact>
</mgrwt>
</event>
<event>
 7    0  0.4766352E-002  0.4566068E+03  0.7546771E-02  0.1025770E+00
         21   -1    0    0  502  501  0.00000000000E+00  0.00000000000E+00  0.15507657925E+03  0.15507657925E+03  0.00000000000E+00 0.  1.
         21   -1    0    0  501  502 -0.00000000000E+00 -0.00000000000E+00 -0.33610771448E+03  0.33610771448E+03  0.00000000000E+00 0.  1.
      99926    2    1    2    0    0  0.00000000000E+00  0.00000000000E+00 -0.18103113523E+03  0.49118429372E+03  0.45660676569E+03 0.  0.
      99925    2    3    3    0    0 -0.49069174734E+02 -0.99402796348E+02 -0.14488359615E+03  0.32017887711E+03  0.26312460371E+03 0.  0.
         25    1    4    4    0    0 -0.22671596947E+01 -0.81359829881E+02 -0.92527762968E+02  0.17559458121E+03  0.12509000000E+03 0.  0.
         25    1    3    3    0    0  0.49069174734E+02  0.99402796348E+02 -0.36147539080E+02  0.17100541662E+03  0.12509000000E+03 0.  0.
         25    1    4    4    0    0 -0.46802015039E+02 -0.18042966467E+02 -0.52355833186E+02  0.14458429589E+03  0.12509000000E+03 0.  0.
<mgrwt>
<rscale>  2 0.45660677E+03</rscale>
<asrwt>0</asrwt>
<pdfrwt beam="1">  1       21 0.22805379E-01 0.45660677E+03</pdfrwt>
<pdfrwt beam="2">  1       21 0.49427605E-01 0.45660677E+03</pdfrwt>
<totfact> 0.65060678E+04</totfact>
</mgrwt>
</event>
<event>
 7    0  0.4766352E-002  0.4492650E+03  0.7546771E-02  0.1027941E+00
         21   -1    0    0  502  501  0.00000000000E+00  0.00000000000E+00  0.77745643629E+02  0.77745643629E+02  0.00000000000E+00 0. -1.
         21   -1    0    0  501  502 -0.00000000000E+00 -0.00000000000E+00 -0.64903652556E+03  0.64903652556E+03  0.00000000000E+00 0. -1.
      99926    2    1    2    0    0  0.00000000000E+00  0.00000000000E+00 -0.57129088193E+03  0.72678216919E+03  0.44926501052E+03 0.  0.
      99925    2    3    3    0    0  0.56438937563E+02  0.54607982119E+02 -0.48079703371E+03  0.55356545507E+03  0.26287171784E+03 0.  0.
         25    1    3    3    0    0 -0.56438937563E+02 -0.54607982119E+02 -0.90493848227E+02  0.17321671412E+03  0.12509000000E+03 0.  0.
         25    1    4    4    0    0  0.30050139133E+01  0.33469966338E+01 -0.17706082820E+03  0.21683698365E+03  0.12509000000E+03 0.  0.
         25    1    4    4    0    0  0.53433923650E+02  0.51260985485E+02 -0.30373620551E+03  0.33672847142E+03  0.12509000000E+03 0.  0.
<mgrwt>
<rscale>  2 0.44926501E+03</rscale>
<asrwt>0</asrwt>
<pdfrwt beam="1">  1       21 0.11433183E-01 0.44926501E+03</pdfrwt>
<pdfrwt beam="2">  1       21 0.95446547E-01 0.44926501E+03</pdfrwt>
<totfact> 0.53861288E+04</totfact>
</mgrwt>
</event>
<event>
 6    0  0.4766352E-002  0.4405219E+03  0.7546771E-02  0.1030587E+00
         21   -1    0    0  502  501  0.00000000000E+00  0.00000000000E+00  0.55691612993E+03  0.55691612993E+03  0.00000000000E+00 0.  1.
         21   -1    0    0  501  502 -0.00000000000E+00 -0.00000000000E+00 -0.87113437515E+02  0.87113437515E+02  0.00000000000E+00 0.  1.
      99926    2    1    2    0    0  0.00000000000E+00  0.00000000000E+00  0.46980269242E+03  0.64402956745E+03  0.44052186545E+03 0.  0.
         25    1    3    3    0    0 -0.67803334685E+02 -0.99572605441E+01  0.18316517297E+03  0.23214958092E+03  0.12509000000E+03 0.  0.
         25    1    3    3    0    0  0.99191123118E+02  0.45722312635E+01  0.20206782044E+03  0.25756299493E+03  0.12509000000E+03 0.  0.
         25    1    3    3    0    0 -0.31387788433E+02  0.53850292806E+01  0.84569699009E+02  0.15431699159E+03  0.12509000000E+03 0.  0.
<mgrwt>
<rscale>  2 0.44052187E+03</rscale>
<asrwt>0</asrwt>
<pdfrwt beam="1">  1       21 0.81899429E-01 0.44052187E+03</pdfrwt>
<pdfrwt beam="2">  1       21 0.12810800E-01 0.44052187E+03</pdfrwt>
<totfact> 0.62932519E+04</totfact>
</mgrwt>
</event>
<event>
 7    0  0.4766352E-002  0.4584866E+03  0.7546771E-02  0.1025221E+00
         21   -1    0    0  502  501  0.00000000000E+00  0.00000000000E+00  0.37447925200E+02  0.37447925200E+02  0.00000000000E+00 0.  1.
         21   -1    0    0  501  502 -0.00000000000E+00 -0.00000000000E+00 -0.14033484525E+04  0.14033484525E+04  0.00000000000E+00 0.  1.
      99926    2    1    2    0    0  0.00000000000E+00 -0.14210854715E-13 -0.13659005273E+04  0.14407963777E+04  0.45848658815E+03 0.  0.
      99925    2    3    3    0    0  0.51060408981E+02 -0.10276161031E+03 -0.79628520036E+03  0.84642591855E+03  0.26305817108E+03 0.  0.
         25    1    4    4    0    0  0.50218673777E+02 -0.31490473077E+02 -0.31510658841E+03  0.34417035789E+03  0.12509000000E+03 0.  0.
         25    1    4    4    0    0  0.84173520453E+00 -0.71271137235E+02 -0.48117861195E+03  0.50225556066E+03  0.12509000000E+03 0.  0.
         25    1    3    3    0    0 -0.51060408981E+02  0.10276161031E+03 -0.56961532695E+03  0.59437045916E+03  0.12509000000E+03 0.  0.
<mgrwt>
<rscale>  2 0.45848659E+03</rscale>
<asrwt>0</asrwt>
<pdfrwt beam="1">  1       21 0.55070485E-02 0.45848659E+03</pdfrwt>
<pdfrwt beam="2">  1       21 0.20637475E+00 0.45848659E+03</pdfrwt>
<totfact> 0.24591886E+04</totfact>
</mgrwt>
</event>
<event>
 7    0  0.4766352E-002  0.4557727E+03  0.7546771E-02  0.1026014E+00
         21   -1    0    0  502  501  0.00000000000E+00  0.00000000000E+00  0.45819865134E+03  0.45819865134E+03  0.00000000000E+00 0.  1.
         21   -1    0    0  501  502 -0.00000000000E+00 -0.00000000000E+00 -0.11333992230E+03  0.11333992230E+03  0.00000000000E+00 0.  1.
      99926    2    1    2    0    0  0.14210854715E-13  0.22204460493E-15  0.34485872904E+03  0.57153857363E+03  0.45577274837E+03 0.  0.
      99925    2    3    3    0    0 -0.65239229324E+02 -0.12585826127E+01  0.99812680844E+02  0.28877928571E+03  0.26300791532E+03 0.  0.
         25    1    4    4    0    0 -0.31235375883E+02 -0.37506349478E+02  0.67805051079E+02  0.15042409385E+03  0.12509000000E+03 0.  0.
         25    1    3    3    0    0  0.65239229324E+02  0.12585826127E+01  0.24504604819E+03  0.28275928793E+03  0.12509000000E+03 0.  0.
         25    1    4    4    0    0 -0.34003853441E+02  0.36247766865E+02  0.32007629765E+02  0.13835519186E+03  0.12509000000E+03 0.  0.
<mgrwt>
<rscale>  2 0.45577275E+03</rscale>
<asrwt>0</asrwt>
<pdfrwt beam="1">  1       21 0.67382154E-01 0.45577275E+03</pdfrwt>
<pdfrwt beam="2">  1       21 0.16667636E-01 0.45577275E+03</pdfrwt>
<totfact> 0.60097194E+04</totfact>
</mgrwt>
</event>
<event>
 7    0  0.4766352E-002  0.4107446E+03  0.7546771E-02  0.1040121E+00
         21   -1    0    0  502  501  0.00000000000E+00  0.00000000000E+00  0.17846483164E+02  0.17846483164E+02  0.00000000000E+00 0.  1.
         21   -1    0    0  501  502 -0.00000000000E+00 -0.00000000000E+00 -0.23633665574E+04  0.23633665574E+04  0.00000000000E+00 0.  1.
      99926    2    1    2    0    0  0.00000000000E+00  0.00000000000E+00 -0.23455200742E+04  0.23812130405E+04  0.41074459936E+03 0.  0.
      99925    2    3    3    0    0 -0.49846457464E+02 -0.23144291759E+02 -0.17282421567E+04  0.17489948321E+04  0.26294798512E+03 0.  0.
         25    1    3    3    0    0  0.49846457464E+02  0.23144291759E+02 -0.61727791752E+03  0.63221820847E+03  0.12509000000E+03 0.  0.
         25    1    4    4    0    0  0.59333667275E+01 -0.33297309914E+02 -0.93777616196E+03  0.94668661854E+03  0.12509000000E+03 0.  0.
         25    1    4    4    0    0 -0.55779824192E+02  0.10153018155E+02 -0.79046599471E+03  0.80230821351E+03  0.12509000000E+03 0.  0.
<mgrwt>
<rscale>  2 0.41074460E+03</rscale>
<asrwt>0</asrwt>
<pdfrwt beam="1">  1       21 0.26244813E-02 0.41074460E+03</pdfrwt>
<pdfrwt beam="2">  1       21 0.34755410E+00 0.41074460E+03</pdfrwt>
<totfact> 0.12073147E+04</totfact>
</mgrwt>
</event>
<event>
 7    0  0.4766352E-002  0.4536338E+03  0.7546771E-02  0.1026644E+00
         21   -1    0    0  502  501  0.00000000000E+00  0.00000000000E+00  0.10698471642E+03  0.10698471642E+03  0.00000000000E+00 0.  1.
         21   -1    0    0  501  502 -0.00000000000E+00 -0.00000000000E+00 -0.48087144703E+03  0.48087144703E+03  0.00000000000E+00 0.  1.
      99926    2    1    2    0    0  0.00000000000E+00  0.35527136788E-14 -0.37388673062E+03  0.58785616345E+03  0.45363375269E+03 0.  0.
      99925    2    3    3    0    0 -0.10975388845E+03  0.19620847142E+02 -0.24801233917E+03  0.37827857831E+03  0.26297085153E+03 0.  0.
         25    1    4    4    0    0 -0.80622119894E+02  0.29683156136E+01 -0.89889615421E+02  0.17388613566E+03  0.12509000000E+03 0.  0.
         25    1    4    4    0    0 -0.29131768558E+02  0.16652531529E+02 -0.15812272375E+03  0.20439244265E+03  0.12509000000E+03 0.  0.
         25    1    3    3    0    0  0.10975388845E+03 -0.19620847142E+02 -0.12587439144E+03  0.20957758514E+03  0.12509000000E+03 0.  0.
<mgrwt>
<rscale>  2 0.45363375E+03</rscale>
<asrwt>0</asrwt>
<pdfrwt beam="1">  1       21 0.15733047E-01 0.45363375E+03</pdfrwt>
<pdfrwt beam="2">  1       21 0.70716388E-01 0.45363375E+03</pdfrwt>
<totfact> 0.60078192E+04</totfact>
</mgrwt>
</event>
<event>
 7    0  0.4766352E-002  0.4561690E+03  0.7546771E-02  0.1025898E+00
         21   -1    0    0  502  501  0.00000000000E+00  0.00000000000E+00  0.11818306811E+04  0.11818306811E+04  0.00000000000E+00 0. -1.
         21   -1    0    0  501  502 -0.00000000000E+00 -0.00000000000E+00 -0.44018615487E+02  0.44018615487E+02  0.00000000000E+00 0. -1.
      99926    2    1    2    0    0  0.14210854715E-13  0.00000000000E+00  0.11378120656E+04  0.12258492966E+04  0.45616904903E+03 0.  0.
      99925    2    3    3    0    0 -0.73707115629E+02  0.68789172213E+02  0.85952632040E+03  0.90451589777E+03  0.26305669493E+03 0.  0.
         25    1    4    4    0    0 -0.33934960611E+02  0.69862547096E+02  0.38589349067E+03  0.41302984309E+03  0.12509000000E+03 0.  0.
         25    1    4    4    0    0 -0.39772155017E+02 -0.10733748836E+01  0.47363282973E+03  0.49148605468E+03  0.12509000000E+03 0.  0.
         25    1    3    3    0    0  0.73707115629E+02 -0.68789172213E+02  0.27828574521E+03  0.32133339882E+03  0.12509000000E+03 0.  0.
<mgrwt>
<rscale>  2 0.45616905E+03</rscale>
<asrwt>0</asrwt>
<pdfrwt beam="1">  1       21 0.17379861E+00 0.45616905E+03</pdfrwt>
<pdfrwt beam="2">  1       21 0.64733266E-02 0.45616905E+03</pdfrwt>
<totfact> 0.31062783E+04</totfact>
</mgrwt>
</event>
<event>
 7    0  0.4766352E-002  0.4563648E+03  0.7546771E-02  0.1025841E+00
         21   -1    0    0  502  501  0.00000000000E+00  0.00000000000E+00  0.11047790168E+03  0.11047790168E+03  0.00000000000E+00 0.  1.
         21   -1    0    0  501  502 -0.00000000000E+00 -0.00000000000E+00 -0.47129061170E+03  0.47129061170E+03  0.00000000000E+00 0.  1.
      99926    2    1    2    0    0 -0.35527136788E-14 -0.28421709430E-13 -0.36081271002E+03  0.58176851338E+03  0.45636475701E+03 0.  0.
      99925    2    3    3    0    0  0.20390512728E+02  0.10373529577E+03 -0.28284404706E+03  0.40037555569E+03  0.26291262053E+03 0.  0.
         25    1    4    4    0    0  0.28242252900E+02  0.15321801675E+02 -0.11402419311E+03  0.17228292768E+03  0.12509000000E+03 0.  0.
         25    1    4    4    0    0 -0.78517401719E+01  0.88413494092E+02 -0.16881985396E+03  0.22809262801E+03  0.12509000000E+03 0.  0.
         25    1    3    3    0    0 -0.20390512728E+02 -0.10373529577E+03 -0.77968662960E+02  0.18139295769E+03  0.12509000000E+03 0.  0.
<mgrwt>
<rscale>  2 0.45636476E+03</rscale>
<asrwt>0</asrwt>
<pdfrwt beam="1">  1       21 0.16246750E-01 0.45636476E+03</pdfrwt>
<pdfrwt beam="2">  1       21 0.69307443E-01 0.45636476E+03</pdfrwt>
<totfact> 0.59173725E+04</totfact>
</mgrwt>
</event>
<event>
 7    0  0.4766352E-002  0.4170028E+03  0.7546771E-02  0.1038046E+00
         21   -1    0    0  502  501  0.00000000000E+00  0.00000000000E+00  0.12223457182E+03  0.12223457182E+03  0.00000000000E+00 0.  1.
         21   -1    0    0  501  502 -0.00000000000E+00 -0.00000000000E+00 -0.35565090452E+03  0.35565090452E+03  0.00000000000E+00 0.  1.
      99926    2    1    2    0    0  0.00000000000E+00  0.00000000000E+00 -0.23341633270E+03  0.47788547634E+03  0.41700281069E+03 0.  0.
      99925    2    3    3    0    0  0.59047308928E+02 -0.19858355871E+02 -0.19376562355E+03  0.33262493171E+03  0.26308418678E+03 0.  0.
         25    1    4    4    0    0  0.30441967147E+02  0.86703655634E+00 -0.14471953612E+03  0.19369748927E+03  0.12509000000E+03 0.  0.
         25    1    4    4    0    0  0.28605341781E+02 -0.20725392428E+02 -0.49046087430E+02  0.13892744244E+03  0.12509000000E+03 0.  0.
         25    1    3    3    0    0 -0.59047308928E+02  0.19858355871E+02 -0.39650709152E+02  0.14526054463E+03  0.12509000000E+03 0.  0.
<mgrwt>
<rscale>  2 0.41700281E+03</rscale>
<asrwt>0</asrwt>
<pdfrwt beam="1">  1       21 0.17975672E-01 0.41700281E+03</pdfrwt>
<pdfrwt beam="2">  1       21 0.52301604E-01 0.41700281E+03</pdfrwt>
<totfact> 0.91481253E+04</totfact>
</mgrwt>
</event>
<event>
 7    0  0.4766352E-002  0.4604502E+03  0.7546771E-02  0.1024651E+00
         21   -1    0    0  502  501  0.00000000000E+00  0.00000000000E+00  0.17291289552E+03  0.17291289552E+03  0.00000000000E+00 0. -1.
         21   -1    0    0  501  502 -0.00000000000E+00 -0.00000000000E+00 -0.30653353955E+03  0.30653353955E+03  0.00000000000E+00 0. -1.
      99926    2    1    2    0    0  0.00000000000E+00  0.00000000000E+00 -0.13362064403E+03  0.47944643507E+03  0.46045022270E+03 0.  0.
      99925    2    3    3    0    0  0.69727423260E+02 -0.94202649210E+02 -0.99837452730E+02  0.30473276993E+03  0.26298002097E+03 0.  0.
         25    1    4    4    0    0  0.26421667291E+02 -0.50133563882E+02 -0.91394821578E+02  0.16496060209E+03  0.12509000000E+03 0.  0.
         25    1    4    4    0    0  0.43305755969E+02 -0.44069085328E+02 -0.84426311524E+01  0.13977216784E+03  0.12509000000E+03 0.  0.
         25    1    3    3    0    0 -0.69727423260E+02  0.94202649210E+02 -0.33783191299E+02  0.17471366514E+03  0.12509000000E+03 0.  0.
<mgrwt>
<rscale>  2 0.46045022E+03</rscale>
<asrwt>0</asrwt>
<pdfrwt beam="1">  1       21 0.25428367E-01 0.46045022E+03</pdfrwt>
<pdfrwt beam="2">  1       21 0.45078462E-01 0.46045022E+03</pdfrwt>
<totfact> 0.63930081E+04</totfact>
</mgrwt>
</event>
<event>
 7    0  0.4766352E-002  0.4497226E+03  0.7546771E-02  0.1027805E+00
         21   -1    0    0  502  501  0.00000000000E+00  0.00000000000E+00  0.60395829567E+03  0.60395829567E+03  0.00000000000E+00 0.  1.
         21   -1    0    0  501  502 -0.00000000000E+00 -0.00000000000E+00 -0.83718690011E+02  0.83718690011E+02  0.00000000000E+00 0.  1.
      99926    2    1    2    0    0  0.00000000000E+00  0.00000000000E+00  0.52023960566E+03  0.68767698568E+03  0.44972256930E+03 0.  0.
      99925    2    3    3    0    0  0.92240293114E+02  0.33284824826E+02  0.25931571109E+03  0.38215294719E+03  0.26302107481E+03 0.  0.
         25    1    3    3    0    0 -0.92240293114E+02 -0.33284824826E+02  0.26092389457E+03  0.30552403849E+03  0.12509000000E+03 0.  0.
         25    1    4    4    0    0  0.43345736725E+02  0.55303980170E+02  0.15019487572E+03  0.20770987436E+03  0.12509000000E+03 0.  0.
         25    1    4    4    0    0  0.48894556389E+02 -0.22019155344E+02  0.10912083537E+03  0.17444307283E+03  0.12509000000E+03 0.  0.
<mgrwt>
<rscale>  2 0.44972257E+03</rscale>
<asrwt>0</asrwt>
<pdfrwt beam="1">  1       21 0.88817394E-01 0.44972257E+03</pdfrwt>
<pdfrwt beam="2">  1       21 0.12311572E-01 0.44972257E+03</pdfrwt>
<totfact> 0.55862206E+04</totfact>
</mgrwt>
</event>
<event>
 7    0  0.4766352E-002  0.4553378E+03  0.7546771E-02  0.1026142E+00
         21   -1    0    0  502  501  0.00000000000E+00  0.00000000000E+00  0.64238768965E+02  0.64238768965E+02  0.00000000000E+00 0. -1.
         21   -1    0    0  501  502 -0.00000000000E+00 -0.00000000000E+00 -0.80688241903E+03  0.80688241903E+03  0.00000000000E+00 0. -1.
      99926    2    1    2    0    0  0.00000000000E+00  0.00000000000E+00 -0.74264365007E+03  0.87112118800E+03  0.45533782315E+03 0.  0.
      99925    2    3    3    0    0 -0.10193302492E+03  0.36430979434E+02 -0.40396743962E+03  0.49420390071E+03  0.26330637169E+03 0.  0.
         25    1    3    3    0    0  0.10193302492E+03 -0.36430979434E+02 -0.33867621045E+03  0.37691728729E+03  0.12509000000E+03 0.  0.
         25    1    4    4    0    0 -0.80577868531E+01  0.11758666527E+02 -0.19293217883E+03  0.23037692570E+03  0.12509000000E+03 0.  0.
         25    1    4    4    0    0 -0.93875238067E+02  0.24672312907E+02 -0.21103526078E+03  0.26382697501E+03  0.12509000000E+03 0.  0.
<mgrwt>
<rscale>  2 0.45533782E+03</rscale>
<asrwt>0</asrwt>
<pdfrwt beam="1">  1       21 0.94468776E-02 0.45533782E+03</pdfrwt>
<pdfrwt beam="2">  1       21 0.11865918E+00 0.45533782E+03</pdfrwt>
<totfact> 0.44388300E+04</totfact>
</mgrwt>
</event>
<event>
 7    0  0.4766352E-002  0.4538714E+03  0.7546771E-02  0.1026574E+00
         21   -1    0    0  502  501  0.00000000000E+00  0.00000000000E+00  0.11668821384E+03  0.11668821384E+03  0.00000000000E+00 0. -1.
         21   -1    0    0  501  502 -0.00000000000E+00 -0.00000000000E+00 -0.44134545071E+03  0.44134545071E+03  0.00000000000E+00 0. -1.
      99926    2    1    2    0    0  0.00000000000E+00  0.00000000000E+00 -0.32465723687E+03  0.55803366454E+03  0.45387140174E+03 0.  0.
      99925    2    3    3    0    0 -0.68022856227E+02  0.55491271503E+02 -0.11872564767E+03  0.30159318859E+03  0.26297581981E+03 0.  0.
         25    1    4    4    0    0  0.22166317354E+01  0.26985539299E+02 -0.33457398641E+02  0.13228771073E+03  0.12509000000E+03 0.  0.
         25    1    3    3    0    0  0.68022856227E+02 -0.55491271503E+02 -0.20593158919E+03  0.25644047596E+03  0.12509000000E+03 0.  0.
         25    1    4    4    0    0 -0.70239487962E+02  0.28505732204E+02 -0.85268249033E+02  0.16930547785E+03  0.12509000000E+03 0.  0.
<mgrwt>
<rscale>  2 0.45387140E+03</rscale>
<asrwt>0</asrwt>
<pdfrwt beam="1">  1       21 0.17160032E-01 0.45387140E+03</pdfrwt>
<pdfrwt beam="2">  1       21 0.64903742E-01 0.45387140E+03</pdfrwt>
<totfact> 0.61889413E+04</totfact>
</mgrwt>
</event>
<event>
 7    0  0.4766352E-002  0.4558692E+03  0.7546771E-02  0.1025986E+00
         21   -1    0    0  502  501  0.00000000000E+00  0.00000000000E+00  0.26144047073E+03  0.26144047073E+03  0.00000000000E+00 0. -1.
         21   -1    0    0  501  502 -0.00000000000E+00 -0.00000000000E+00 -0.19872277203E+03  0.19872277203E+03  0.00000000000E+00 0. -1.
      99926    2    1    2    0    0  0.00000000000E+00  0.00000000000E+00  0.62717698700E+02  0.46016324276E+03  0.45586917011E+03 0.  0.
      99925    2    3    3    0    0 -0.64688965276E+02 -0.37935877121E+02 -0.47229415495E+02  0.27751694791E+03  0.26298525755E+03 0.  0.
         25    1    4    4    0    0 -0.11900022805E+01 -0.27102160724E+02 -0.48309418497E+02  0.13681100554E+03  0.12509000000E+03 0.  0.
         25    1    3    3    0    0  0.64688965276E+02  0.37935877121E+02  0.10994711420E+03  0.18264629485E+03  0.12509000000E+03 0.  0.
         25    1    4    4    0    0 -0.63498962995E+02 -0.10833716397E+02  0.10800030017E+01  0.14070594237E+03  0.12509000000E+03 0.  0.
<mgrwt>
<rscale>  2 0.45586917E+03</rscale>
<asrwt>0</asrwt>
<pdfrwt beam="1">  1       21 0.38447128E-01 0.45586917E+03</pdfrwt>
<pdfrwt beam="2">  1       21 0.29223937E-01 0.45586917E+03</pdfrwt>
<totfact> 0.67698212E+04</totfact>
</mgrwt>
</event>
<event>
 7    0  0.4766352E-002  0.4466735E+03  0.7546771E-02  0.1028719E+00
         21   -1    0    0  502  501  0.00000000000E+00  0.00000000000E+00  0.18825438348E+03  0.18825438348E+03  0.00000000000E+00 0. -1.
         21   -1    0    0  501  502 -0.00000000000E+00 -0.00000000000E+00 -0.26495687335E+03  0.26495687335E+03  0.00000000000E+00 0. -1.
      99926    2    1    2    0    0 -0.71054273576E-14  0.00000000000E+00 -0.76702489863E+02  0.45321125683E+03  0.44667345049E+03 0.  0.
      99925    2    3    3    0    0 -0.54091880302E+02  0.61378759217E+02 -0.11567793346E+03  0.29874483038E+03  0.26300913633E+03 0.  0.
         25    1    3    3    0    0  0.54091880302E+02 -0.61378759217E+02  0.38975443593E+02  0.15446642645E+03  0.12509000000E+03 0.  0.
         25    1    4    4    0    0 -0.58425051327E+02  0.22698930006E+02 -0.86612654699E+02  0.16455390637E+03  0.12509000000E+03 0.  0.
         25    1    4    4    0    0  0.43331710248E+01  0.38679829211E+02 -0.29065278756E+02  0.13419092402E+03  0.12509000000E+03 0.  0.
<mgrwt>
<rscale>  2 0.44667345E+03</rscale>
<asrwt>0</asrwt>
<pdfrwt beam="1">  1       21 0.27684468E-01 0.44667345E+03</pdfrwt>
<pdfrwt beam="2">  1       21 0.38964246E-01 0.44667345E+03</pdfrwt>
<totfact> 0.73434211E+04</totfact>
</mgrwt>
</event>
<event>
 7    0  0.4766352E-002  0.4445284E+03  0.7546771E-02  0.1029366E+00
         21   -1    0    0  502  501  0.00000000000E+00  0.00000000000E+00  0.16736193094E+03  0.16736193094E+03  0.00000000000E+00 0.  1.
         21   -1    0    0  501  502 -0.00000000000E+00 -0.00000000000E+00 -0.29517690360E+03  0.29517690360E+03  0.00000000000E+00 0.  1.
      99926    2    1    2    0    0  0.00000000000E+00  0.88817841970E-15 -0.12781497266E+03  0.46253883454E+03  0.44452840879E+03 0.  0.
      99925    2    3    3    0    0  0.61693006624E+02 -0.30277256014E+01  0.46079952100E+01  0.27018877681E+03  0.26299343586E+03 0.  0.
         25    1    3    3    0    0 -0.61693006624E+02  0.30277256014E+01 -0.13242296787E+03  0.19235005773E+03  0.12509000000E+03 0.  0.
         25    1    4    4    0    0 -0.71625077250E+01  0.99963324210E+01  0.14168283586E+02  0.12648903723E+03  0.12509000000E+03 0.  0.
         25    1    4    4    0    0  0.68855514349E+02 -0.13024058022E+02 -0.95602883757E+01  0.14369973959E+03  0.12509000000E+03 0.  0.
<mgrwt>
<rscale>  2 0.44452841E+03</rscale>
<asrwt>0</asrwt>
<pdfrwt beam="1">  1       21 0.24612049E-01 0.44452841E+03</pdfrwt>
<pdfrwt beam="2">  1       21 0.43408368E-01 0.44452841E+03</pdfrwt>
<totfact> 0.73949611E+04</totfact>
</mgrwt>
</event>
<event>
 7    0  0.4766352E-002  0.4502207E+03  0.7546771E-02  0.1027656E+00
         21   -1    0    0  502  501  0.00000000000E+00  0.00000000000E+00  0.81496626945E+02  0.81496626945E+02  0.00000000000E+00 0.  1.
         21   -1    0    0  501  502 -0.00000000000E+00 -0.00000000000E+00 -0.62180083373E+03  0.62180083373E+03  0.00000000000E+00 0.  1.
      99926    2    1    2    0    0  0.35527136788E-14  0.00000000000E+00 -0.54030420679E+03  0.70329746068E+03  0.45022070401E+03 0.  0.
      99925    2    3    3    0    0 -0.29785922746E+02 -0.99978351178E+02 -0.38886169864E+03  0.48088969716E+03  0.26298024311E+03 0.  0.
         25    1    3    3    0    0  0.29785922746E+02  0.99978351178E+02 -0.15144250815E+03  0.22240776352E+03  0.12509000000E+03 0.  0.
         25    1    4    4    0    0  0.12386090092E+02 -0.40888415258E+02 -0.23568426932E+03  0.27022187297E+03  0.12509000000E+03 0.  0.
         25    1    4    4    0    0 -0.42172012837E+02 -0.59089935919E+02 -0.15317742932E+03  0.21066782419E+03  0.12509000000E+03 0.  0.
<mgrwt>
<rscale>  2 0.45022070E+03</rscale>
<asrwt>0</asrwt>
<pdfrwt beam="1">  1       21 0.11984798E-01 0.45022070E+03</pdfrwt>
<pdfrwt beam="2">  1       21 0.91441298E-01 0.45022070E+03</pdfrwt>
<totfact> 0.54754642E+04</totfact>
</mgrwt>
</event>
<event>
 7    0  0.4766352E-002  0.4496321E+03  0.7546771E-02  0.1027832E+00
         21   -1    0    0  502  501  0.00000000000E+00  0.00000000000E+00  0.12215228851E+03  0.12215228851E+03  0.00000000000E+00 0. -1.
         21   -1    0    0  501  502 -0.00000000000E+00 -0.00000000000E+00 -0.41376422009E+03  0.41376422009E+03  0.00000000000E+00 0. -1.
      99926    2    1    2    0    0  0.00000000000E+00  0.00000000000E+00 -0.29161193158E+03  0.53591650860E+03  0.44963205574E+03 0.  0.
      99925    2    3    3    0    0 -0.82327596937E+02 -0.58227223132E+02 -0.23092598755E+03  0.36416513412E+03  0.26290909161E+03 0.  0.
         25    1    3    3    0    0  0.82327596937E+02  0.58227223132E+02 -0.60685944034E+02  0.17175137448E+03  0.12509000000E+03 0.  0.
         25    1    4    4    0    0 -0.38447784282E+02 -0.70156132098E+02 -0.12219021196E+03  0.19229683041E+03  0.12509000000E+03 0.  0.
         25    1    4    4    0    0 -0.43879812655E+02  0.11928908966E+02 -0.10873577559E+03  0.17186830372E+03  0.12509000000E+03 0.  0.
<mgrwt>
<rscale>  2 0.44963206E+03</rscale>
<asrwt>0</asrwt>
<pdfrwt beam="1">  1       21 0.17963572E-01 0.44963206E+03</pdfrwt>
<pdfrwt beam="2">  1       21 0.60847679E-01 0.44963206E+03</pdfrwt>
<totfact> 0.65547612E+04</totfact>
</mgrwt>
</event>
<event>
 7    0  0.4766352E-002  0.4579353E+03  0.7546771E-02  0.1025382E+00
         21   -1    0    0  502  501  0.00000000000E+00  0.00000000000E+00  0.55947578455E+03  0.55947578455E+03  0.00000000000E+00 0.  1.
         21   -1    0    0  501  502 -0.00000000000E+00 -0.00000000000E+00 -0.93705894683E+02  0.93705894683E+02  0.00000000000E+00 0.  1.
      99926    2    1    2    0    0  0.00000000000E+00  0.00000000000E+00  0.46576988987E+03  0.65318167923E+03  0.45793527466E+03 0.  0.
      99925    2    3    3    0    0 -0.10811388010E+03  0.37523267673E+02  0.31842631844E+03  0.42856146013E+03  0.26300760094E+03 0.  0.
         25    1    4    4    0    0 -0.16376521750E+02  0.17116780265E+02  0.11218360102E+03  0.16968748648E+03  0.12509000000E+03 0.  0.
         25    1    4    4    0    0 -0.91737358350E+02  0.20406487408E+02  0.20624271742E+03  0.25887397365E+03  0.12509000000E+03 0.  0.
         25    1    3    3    0    0  0.10811388010E+03 -0.37523267673E+02  0.14734357143E+03  0.22462021910E+03  0.12509000000E+03 0.  0.
<mgrwt>
<rscale>  2 0.45793527E+03</rscale>
<asrwt>0</asrwt>
<pdfrwt beam="1">  1       21 0.82275849E-01 0.45793527E+03</pdfrwt>
<pdfrwt beam="2">  1       21 0.13780279E-01 0.45793527E+03</pdfrwt>
<totfact> 0.54251453E+04</totfact>
</mgrwt>
</event>
<event>
 7    0  0.4766352E-002  0.4605278E+03  0.7546771E-02  0.1024628E+00
         21   -1    0    0  502  501  0.00000000000E+00  0.00000000000E+00  0.19583856158E+03  0.19583856158E+03  0.00000000000E+00 0. -1.
         21   -1    0    0  501  502 -0.00000000000E+00 -0.00000000000E+00 -0.27074062808E+03  0.27074062808E+03  0.00000000000E+00 0. -1.
      99926    2    1    2    0    0  0.00000000000E+00  0.00000000000E+00 -0.74902066509E+02  0.46657918966E+03  0.46052776318E+03 0.  0.
      99925    2    3    3    0    0  0.29979043304E+02 -0.36670308556E+02 -0.15673761074E+03  0.30977351704E+03  0.26296292262E+03 0.  0.
         25    1    3    3    0    0 -0.29979043304E+02  0.36670308556E+02  0.81835544230E+02  0.15680567262E+03  0.12509000000E+03 0.  0.
         25    1    4    4    0    0  0.14114559874E+02  0.20269386022E+02 -0.90667149861E+02  0.15645481448E+03  0.12509000000E+03 0.  0.
         25    1    4    4    0    0  0.15864483430E+02 -0.56939694578E+02 -0.66070460878E+02  0.15331870256E+03  0.12509000000E+03 0.  0.
<mgrwt>
<rscale>  2 0.46052776E+03</rscale>
<asrwt>0</asrwt>
<pdfrwt beam="1">  1       21 0.28799789E-01 0.46052776E+03</pdfrwt>
<pdfrwt beam="2">  1       21 0.39814798E-01 0.46052776E+03</pdfrwt>
<totfact> 0.64798484E+04</totfact>
</mgrwt>
</event>
<event>
 7    0  0.4766352E-002  0.4661240E+03  0.7546771E-02  0.1023020E+00
         21   -1    0    0  502  501  0.00000000000E+00  0.00000000000E+00  0.15227311692E+03  0.15227311692E+03  0.00000000000E+00 0. -1.
         21   -1    0    0  501  502 -0.00000000000E+00 -0.00000000000E+00 -0.35671358983E+03  0.35671358983E+03  0.00000000000E+00 0. -1.
      99926    2    1    2    0    0  0.00000000000E+00  0.00000000000E+00 -0.20444047291E+03  0.50898670675E+03  0.46612397566E+03 0.  0.
      99925    2    3    3    0    0  0.79760522976E+02  0.59548966749E+02 -0.20595358252E+03  0.34911920515E+03  0.26374138998E+03 0.  0.
         25    1    4    4    0    0  0.43183096052E+02  0.49948868512E+02 -0.15230129417E+03  0.20785298063E+03  0.12509000000E+03 0.  0.
         25    1    4    4    0    0  0.36577426924E+02  0.96000982370E+01 -0.53652288348E+02  0.14126622452E+03  0.12509000000E+03 0.  0.
         25    1    3    3    0    0 -0.79760522976E+02 -0.59548966749E+02  0.15131096064E+01  0.15986750160E+03  0.12509000000E+03 0.  0.
<mgrwt>
<rscale>  2 0.46612398E+03</rscale>
<asrwt>0</asrwt>
<pdfrwt beam="1">  1       21 0.22393106E-01 0.46612398E+03</pdfrwt>
<pdfrwt beam="2">  1       21 0.52457880E-01 0.46612398E+03</pdfrwt>
<totfact> 0.59237874E+04</totfact>
</mgrwt>
</event>
<event>
 7    0  0.4766352E-002  0.4529181E+03  0.7546771E-02  0.1026855E+00
         21   -1    0    0  502  501  0.00000000000E+00  0.00000000000E+00  0.14304788213E+03  0.14304788213E+03  0.00000000000E+00 0. -1.
         21   -1    0    0  501  502 -0.00000000000E+00 -0.00000000000E+00 -0.35850723034E+03  0.35850723034E+03  0.00000000000E+00 0. -1.
      99926    2    1    2    0    0  0.00000000000E+00  0.00000000000E+00 -0.21545934821E+03  0.50155511247E+03  0.45291809427E+03 0.  0.
      99925    2    3    3    0    0  0.60091517784E+02 -0.51904067000E+02 -0.49678696493E+02  0.27921358404E+03  0.26303465541E+03 0.  0.
         25    1    4    4    0    0  0.14603048977E+02  0.11744750461E+02 -0.12779156335E+02  0.12712986722E+03  0.12509000000E+03 0.  0.
         25    1    4    4    0    0  0.45488468807E+02 -0.63648817461E+02 -0.36899540158E+02  0.15208371682E+03  0.12509000000E+03 0.  0.
         25    1    3    3    0    0 -0.60091517784E+02  0.51904067000E+02 -0.16578065172E+03  0.22234152843E+03  0.12509000000E+03 0.  0.
<mgrwt>
<rscale>  2 0.45291809E+03</rscale>
<asrwt>0</asrwt>
<pdfrwt beam="1">  1       21 0.21036453E-01 0.45291809E+03</pdfrwt>
<pdfrwt beam="2">  1       21 0.52721651E-01 0.45291809E+03</pdfrwt>
<totfact> 0.66249604E+04</totfact>
</mgrwt>
</event>
<event>
 7    0  0.4766352E-002  0.4577619E+03  0.7546771E-02  0.1025432E+00
         21   -1    0    0  502  501  0.00000000000E+00  0.00000000000E+00  0.22666930388E+03  0.22666930388E+03  0.00000000000E+00 0. -1.
         21   -1    0    0  501  502 -0.00000000000E+00 -0.00000000000E+00 -0.23111414317E+03  0.23111414317E+03  0.00000000000E+00 0. -1.
      99926    2    1    2    0    0  0.00000000000E+00  0.00000000000E+00 -0.44448392884E+01  0.45778344705E+03  0.45776186800E+03 0.  0.
      99925    2    3    3    0    0  0.69815367372E+02  0.79666201201E+02  0.43687999205E+02  0.28694677834E+03  0.26307588865E+03 0.  0.
         25    1    4    4    0    0  0.45125781880E+02  0.47162160404E+01  0.12199365920E+01  0.13306981337E+03  0.12509000000E+03 0.  0.
         25    1    4    4    0    0  0.24689585492E+02  0.74949985161E+02  0.42468062613E+02  0.15387696497E+03  0.12509000000E+03 0.  0.
         25    1    3    3    0    0 -0.69815367372E+02 -0.79666201201E+02 -0.48132838493E+02  0.17083666871E+03  0.12509000000E+03 0.  0.
<mgrwt>
<rscale>  2 0.45776187E+03</rscale>
<asrwt>0</asrwt>
<pdfrwt beam="1">  1       21 0.33333721E-01 0.45776187E+03</pdfrwt>
<pdfrwt beam="2">  1       21 0.33987374E-01 0.45776187E+03</pdfrwt>
<totfact> 0.66856853E+04</totfact>
</mgrwt>
</event>
<event>
 7    0  0.4766352E-002  0.4532597E+03  0.7546771E-02  0.1026754E+00
         21   -1    0    0  502  501  0.00000000000E+00  0.00000000000E+00  0.12806816803E+03  0.12806816803E+03  0.00000000000E+00 0. -1.
         21   -1    0    0  501  502 -0.00000000000E+00 -0.00000000000E+00 -0.40104493610E+03  0.40104493610E+03  0.00000000000E+00 0. -1.
      99926    2    1    2    0    0  0.35527136788E-14  0.00000000000E+00 -0.27297676808E+03  0.52911310413E+03  0.45325970597E+03 0.  0.
      99925    2    3    3    0    0  0.16190411363E+02  0.98658917094E+02 -0.11377518099E+03  0.30330707061E+03  0.26278256398E+03 0.  0.
         25    1    4    4    0    0  0.24115957127E+02  0.80259048439E+02 -0.36548998604E+02  0.15494009050E+03  0.12509000000E+03 0.  0.
         25    1    4    4    0    0 -0.79255457634E+01  0.18399868655E+02 -0.77226182385E+02  0.14836698011E+03  0.12509000000E+03 0.  0.
         25    1    3    3    0    0 -0.16190411363E+02 -0.98658917094E+02 -0.15920158709E+03  0.22580603352E+03  0.12509000000E+03 0.  0.
<mgrwt>
<rscale>  2 0.45325971E+03</rscale>
<asrwt>0</asrwt>
<pdfrwt beam="1">  1       21 0.18833554E-01 0.45325971E+03</pdfrwt>
<pdfrwt beam="2">  1       21 0.58977197E-01 0.45325971E+03</pdfrwt>
<totfact> 0.64146858E+04</totfact>
</mgrwt>
</event>
<event>
 7    0  0.4766352E-002  0.4694699E+03  0.7546771E-02  0.1022070E+00
         21   -1    0    0  502  501  0.00000000000E+00  0.00000000000E+00  0.54706257213E+02  0.54706257213E+02  0.00000000000E+00 0.  1.
         21   -1    0    0  501  502 -0.00000000000E+00 -0.00000000000E+00 -0.10072064603E+04  0.10072064603E+04  0.00000000000E+00 0.  1.
      99926    2    1    2    0    0  0.00000000000E+00  0.00000000000E+00 -0.95250020306E+03  0.10619127175E+04  0.46946989544E+03 0.  0.
      99925    2    3    3    0    0  0.35741397337E+02  0.11248348249E+03 -0.69356008035E+03  0.75106311306E+03  0.26294530504E+03 0.  0.
         25    1    3    3    0    0 -0.35741397337E+02 -0.11248348249E+03 -0.25894012271E+03  0.31084960442E+03  0.12509000000E+03 0.  0.
         25    1    4    4    0    0  0.24518565508E+02  0.13304691202E+02 -0.31339579704E+03  0.33858914419E+03  0.12509000000E+03 0.  0.
         25    1    4    4    0    0  0.11222831828E+02  0.99178791291E+02 -0.38016428331E+03  0.41247396887E+03  0.12509000000E+03 0.  0.
<mgrwt>
<rscale>  2 0.46946990E+03</rscale>
<asrwt>0</asrwt>
<pdfrwt beam="1">  1       21 0.80450379E-02 0.46946990E+03</pdfrwt>
<pdfrwt beam="2">  1       21 0.14811860E+00 0.46946990E+03</pdfrwt>
<totfact> 0.32960727E+04</totfact>
</mgrwt>
</event>
<event>
 7    0  0.4766352E-002  0.4552493E+03  0.7546771E-02  0.1026168E+00
         21   -1    0    0  502  501  0.00000000000E+00  0.00000000000E+00  0.11961273930E+03  0.11961273930E+03  0.00000000000E+00 0. -1.
         21   -1    0    0  501  502 -0.00000000000E+00 -0.00000000000E+00 -0.43317269192E+03  0.43317269192E+03  0.00000000000E+00 0. -1.
      99926    2    1    2    0    0  0.00000000000E+00  0.00000000000E+00 -0.31355995262E+03  0.55278543123E+03  0.45524926040E+03 0.  0.
      99925    2    3    3    0    0  0.91649630275E+02  0.51032651218E+02 -0.14494426710E+03  0.31808829933E+03  0.26299684292E+03 0.  0.
         25    1    3    3    0    0 -0.91649630275E+02 -0.51032651218E+02 -0.16861568551E+03  0.23469713190E+03  0.12509000000E+03 0.  0.
         25    1    4    4    0    0  0.48769011314E+02  0.49622715924E+02 -0.38220573702E+02  0.14815245781E+03  0.12509000000E+03 0.  0.
         25    1    4    4    0    0  0.42880618961E+02  0.14099352936E+01 -0.10672369340E+03  0.16993584152E+03  0.12509000000E+03 0.  0.
<mgrwt>
<rscale>  2 0.45524926E+03</rscale>
<asrwt>0</asrwt>
<pdfrwt beam="1">  1       21 0.17590109E-01 0.45524926E+03</pdfrwt>
<pdfrwt beam="2">  1       21 0.63701866E-01 0.45524926E+03</pdfrwt>
<totfact> 0.61561335E+04</totfact>
</mgrwt>
</event>
<event>
 7    0  0.4766352E-002  0.4589017E+03  0.7546771E-02  0.1025100E+00
         21   -1    0    0  502  501  0.00000000000E+00  0.00000000000E+00  0.42731709370E+02  0.42731709370E+02  0.00000000000E+00 0.  1.
         21   -1    0    0  501  502 -0.00000000000E+00 -0.00000000000E+00 -0.12320519479E+04  0.12320519479E+04  0.00000000000E+00 0.  1.
      99926    2    1    2    0    0  0.00000000000E+00 -0.35527136788E-14 -0.11893202385E+04  0.12747836572E+04  0.45890167036E+03 0.  0.
      99925    2    3    3    0    0 -0.68687188223E+02  0.26654865694E+02 -0.49396497559E+03  0.56443524875E+03  0.26297783410E+03 0.  0.
         25    1    4    4    0    0  0.96877131988E+00  0.33661250498E+02 -0.22338553413E+03  0.25822978771E+03  0.12509000000E+03 0.  0.
         25    1    3    3    0    0  0.68687188223E+02 -0.26654865694E+02 -0.69535526292E+03  0.71034840850E+03  0.12509000000E+03 0.  0.
         25    1    4    4    0    0 -0.69655959543E+02 -0.70063848043E+01 -0.27057944146E+03  0.30620546104E+03  0.12509000000E+03 0.  0.
<mgrwt>
<rscale>  2 0.45890167E+03</rscale>
<asrwt>0</asrwt>
<pdfrwt beam="1">  1       21 0.62840750E-02 0.45890167E+03</pdfrwt>
<pdfrwt beam="2">  1       21 0.18118411E+00 0.45890167E+03</pdfrwt>
<totfact> 0.28966337E+04</totfact>
</mgrwt>
</event>
<event>
 7    0  0.4766352E-002  0.4566836E+03  0.7546771E-02  0.1025747E+00
         21   -1    0    0  502  501  0.00000000000E+00  0.00000000000E+00  0.12442601762E+03  0.12442601762E+03  0.00000000000E+00 0. -1.
         21   -1    0    0  501  502 -0.00000000000E+00 -0.00000000000E+00 -0.41904396342E+03  0.41904396342E+03  0.00000000000E+00 0. -1.
      99926    2    1    2    0    0  0.00000000000E+00  0.35527136788E-14 -0.29461794580E+03  0.54346998104E+03  0.45668357350E+03 0.  0.
      99925    2    3    3    0    0 -0.99228084875E+02 -0.30144134887E+02 -0.12721073935E+03  0.31017282597E+03  0.26319142856E+03 0.  0.
         25    1    4    4    0    0 -0.16812161727E+02 -0.32022517973E+02 -0.81192599659E+02  0.15345304421E+03  0.12509000000E+03 0.  0.
         25    1    3    3    0    0  0.99228084875E+02  0.30144134887E+02 -0.16740720645E+03  0.23329715508E+03  0.12509000000E+03 0.  0.
         25    1    4    4    0    0 -0.82415923148E+02  0.18783830864E+01 -0.46018139695E+02  0.15671978175E+03  0.12509000000E+03 0.  0.
<mgrwt>
<rscale>  2 0.45668357E+03</rscale>
<asrwt>0</asrwt>
<pdfrwt beam="1">  1       21 0.18297944E-01 0.45668357E+03</pdfrwt>
<pdfrwt beam="2">  1       21 0.61624112E-01 0.45668357E+03</pdfrwt>
<totfact> 0.61476962E+04</totfact>
</mgrwt>
</event>
<event>
 7    0  0.4766352E-002  0.4545274E+03  0.7546771E-02  0.1026380E+00
         21   -1    0    0  502  501  0.00000000000E+00  0.00000000000E+00  0.37281621923E+03  0.37281621923E+03  0.00000000000E+00 0. -1.
         21   -1    0    0  501  502 -0.00000000000E+00 -0.00000000000E+00 -0.13853687485E+03  0.13853687485E+03  0.00000000000E+00 0. -1.
      99926    2    1    2    0    0  0.00000000000E+00  0.00000000000E+00  0.23427934438E+03  0.51135309408E+03  0.45452742010E+03 0.  0.
      99925    2    3    3    0    0 -0.85211588454E+02 -0.55157861997E+02  0.92621430385E+02  0.29683531570E+03  0.26311417813E+03 0.  0.
         25    1    4    4    0    0 -0.27017283054E+02 -0.58072482485E+02  0.23459649914E+02  0.14247880572E+03  0.12509000000E+03 0.  0.
         25    1    4    4    0    0 -0.58194305400E+02  0.29146204885E+01  0.69161780471E+02  0.15435650997E+03  0.12509000000E+03 0.  0.
         25    1    3    3    0    0  0.85211588454E+02  0.55157861997E+02  0.14165791399E+03  0.21451777838E+03  0.12509000000E+03 0.  0.
<mgrwt>
<rscale>  2 0.45452742E+03</rscale>
<asrwt>0</asrwt>
<pdfrwt beam="1">  1       21 0.54825915E-01 0.45452742E+03</pdfrwt>
<pdfrwt beam="2">  1       21 0.20373070E-01 0.45452742E+03</pdfrwt>
<totfact> 0.64722599E+04</totfact>
</mgrwt>
</event>
<event>
 7    0  0.4766352E-002  0.4480404E+03  0.7546771E-02  0.1028308E+00
         21   -1    0    0  502  501  0.00000000000E+00  0.00000000000E+00  0.10910820563E+03  0.10910820563E+03  0.00000000000E+00 0.  1.
         21   -1    0    0  501  502 -0.00000000000E+00 -0.00000000000E+00 -0.45995674362E+03  0.45995674362E+03  0.00000000000E+00 0.  1.
      99926    2    1    2    0    0  0.00000000000E+00  0.00000000000E+00 -0.35084853799E+03  0.56906494925E+03  0.44804042213E+03 0.  0.
      99925    2    3    3    0    0  0.10016200779E+03  0.35464047747E+02 -0.21372726530E+03  0.35519611559E+03  0.26304906408E+03 0.  0.
         25    1    3    3    0    0 -0.10016200779E+03 -0.35464047747E+02 -0.13712127269E+03  0.21386883366E+03  0.12509000000E+03 0.  0.
         25    1    4    4    0    0  0.33937184656E+02  0.54180951021E+02 -0.11596778182E+03  0.18216295583E+03  0.12509000000E+03 0.  0.
         25    1    4    4    0    0  0.66224823135E+02 -0.18716903274E+02 -0.97759483479E+02  0.17303315976E+03  0.12509000000E+03 0.  0.
<mgrwt>
<rscale>  2 0.44804042E+03</rscale>
<asrwt>0</asrwt>
<pdfrwt beam="1">  1       21 0.16045324E-01 0.44804042E+03</pdfrwt>
<pdfrwt beam="2">  1       21 0.67640698E-01 0.44804042E+03</pdfrwt>
<totfact> 0.64078430E+04</totfact>
</mgrwt>
</event>
<event>
 7    0  0.4766352E-002  0.4606362E+03  0.7546771E-02  0.1024597E+00
         21   -1    0    0  502  501  0.00000000000E+00  0.00000000000E+00  0.85451822096E+03  0.85451822096E+03  0.00000000000E+00 0.  1.
         21   -1    0    0  501  502 -0.00000000000E+00 -0.00000000000E+00 -0.62077592940E+02  0.62077592940E+02  0.00000000000E+00 0.  1.
      99926    2    1    2    0    0  0.00000000000E+00  0.00000000000E+00  0.79244062802E+03  0.91659581390E+03  0.46063623080E+03 0.  0.
      99925    2    3    3    0    0 -0.10450296087E+03 -0.38893808881E+02  0.57541863963E+03  0.64240673909E+03  0.26295667019E+03 0.  0.
         25    1    4    4    0    0 -0.13793968253E+02  0.25513729706E+00  0.27026601337E+03  0.29813011377E+03  0.12509000000E+03 0.  0.
         25    1    3    3    0    0  0.10450296087E+03  0.38893808881E+02  0.21702198839E+03  0.27418907481E+03  0.12509000000E+03 0.  0.
         25    1    4    4    0    0 -0.90708992614E+02 -0.39148946178E+02  0.30515262626E+03  0.34427662532E+03  0.12509000000E+03 0.  0.
<mgrwt>
<rscale>  2 0.46063623E+03</rscale>
<asrwt>0</asrwt>
<pdfrwt beam="1">  1       21 0.12566444E+00 0.46063623E+03</pdfrwt>
<pdfrwt beam="2">  1       21 0.91290583E-02 0.46063623E+03</pdfrwt>
<totfact> 0.40698521E+04</totfact>
</mgrwt>
</event>
<event>
 7    0  0.4766352E-002  0.4615355E+03  0.7546771E-02  0.1024337E+00
         21   -1    0    0  502  501  0.00000000000E+00  0.00000000000E+00  0.27833195131E+03  0.27833195131E+03  0.00000000000E+00 0. -1.
         21   -1    0    0  501  502 -0.00000000000E+00 -0.00000000000E+00 -0.19133180238E+03  0.19133180238E+03  0.00000000000E+00 0. -1.
      99926    2    1    2    0    0  0.00000000000E+00 -0.35527136788E-14  0.87000148931E+02  0.46966375369E+03  0.46153549768E+03 0.  0.
      99925    2    3    3    0    0  0.11667885759E+03  0.82224900216E+01  0.77611086530E+02  0.29814924194E+03  0.26303597580E+03 0.  0.
         25    1    4    4    0    0  0.74744540367E+02  0.41876404787E+02  0.44744790413E+02  0.15808220634E+03  0.12509000000E+03 0.  0.
         25    1    3    3    0    0 -0.11667885759E+03 -0.82224900216E+01  0.93890624012E+01  0.17151451176E+03  0.12509000000E+03 0.  0.
         25    1    4    4    0    0  0.41934317222E+02 -0.33653914766E+02  0.32866296117E+02  0.14006703559E+03  0.12509000000E+03 0.  0.
<mgrwt>
<rscale>  2 0.46153550E+03</rscale>
<asrwt>0</asrwt>
<pdfrwt beam="1">  1       21 0.40931169E-01 0.46153550E+03</pdfrwt>
<pdfrwt beam="2">  1       21 0.28137030E-01 0.46153550E+03</pdfrwt>
<totfact> 0.64071449E+04</totfact>
</mgrwt>
</event>
<event>
 7    0  0.4766352E-002  0.4495029E+03  0.7546771E-02  0.1027870E+00
         21   -1    0    0  502  501  0.00000000000E+00  0.00000000000E+00  0.78215323977E+03  0.78215323977E+03  0.00000000000E+00 0.  1.
         21   -1    0    0  501  502 -0.00000000000E+00 -0.00000000000E+00 -0.64582259452E+02  0.64582259452E+02  0.00000000000E+00 0.  1.
      99926    2    1    2    0    0  0.00000000000E+00  0.00000000000E+00  0.71757098032E+03  0.84673549923E+03  0.44950294087E+03 0.  0.
      99925    2    3    3    0    0 -0.70082521826E+02 -0.20872880751E+01  0.60840223289E+03  0.66650997342E+03  0.26299496391E+03 0.  0.
         25    1    4    4    0    0 -0.53255634729E+02  0.91065072867E+01  0.22860887681E+03  0.26613646455E+03  0.12509000000E+03 0.  0.
         25    1    4    4    0    0 -0.16826887097E+02 -0.11193795362E+02  0.37979335608E+03  0.40037350887E+03  0.12509000000E+03 0.  0.
         25    1    3    3    0    0  0.70082521826E+02  0.20872880751E+01  0.10916874743E+03  0.18022552581E+03  0.12509000000E+03 0.  0.
<mgrwt>
<rscale>  2 0.44950294E+03</rscale>
<asrwt>0</asrwt>
<pdfrwt beam="1">  1       21 0.11502253E+00 0.44950294E+03</pdfrwt>
<pdfrwt beam="2">  1       21 0.94973916E-02 0.44950294E+03</pdfrwt>
<totfact> 0.47605701E+04</totfact>
</mgrwt>
</event>
<event>
 7    0  0.4766352E-002  0.4511435E+03  0.7546771E-02  0.1027382E+00
         21   -1    0    0  502  501  0.00000000000E+00  0.00000000000E+00  0.14873179176E+03  0.14873179176E+03  0.00000000000E+00 0.  1.
         21   -1    0    0  501  502 -0.00000000000E+00 -0.00000000000E+00 -0.34210988311E+03  0.34210988311E+03  0.00000000000E+00 0.  1.
      99926    2    1    2    0    0  0.14210854715E-13  0.00000000000E+00 -0.19337809135E+03  0.49084167487E+03  0.45114350662E+03 0.  0.
      99925    2    3    3    0    0  0.10584193298E+03 -0.19773868378E+02 -0.10066444677E+03  0.30153544507E+03  0.26305279535E+03 0.  0.
         25    1    4    4    0    0  0.83154598362E+02 -0.29927893608E+02 -0.78441014271E+02  0.17207808363E+03  0.12509000000E+03 0.  0.
         25    1    3    3    0    0 -0.10584193298E+03  0.19773868378E+02 -0.92713644578E+02  0.18930622979E+03  0.12509000000E+03 0.  0.
         25    1    4    4    0    0  0.22687334619E+02  0.10154025230E+02 -0.22223432504E+02  0.12945736145E+03  0.12509000000E+03 0.  0.
<mgrwt>
<rscale>  2 0.45114351E+03</rscale>
<asrwt>0</asrwt>
<pdfrwt beam="1">  1       21 0.21872323E-01 0.45114351E+03</pdfrwt>
<pdfrwt beam="2">  1       21 0.50310276E-01 0.45114351E+03</pdfrwt>
<totfact> 0.67976371E+04</totfact>
</mgrwt>
</event>
<event>
 7    0  0.4766352E-002  0.4516599E+03  0.7546771E-02  0.1027228E+00
         21   -1    0    0  502  501  0.00000000000E+00  0.00000000000E+00  0.52934973506E+03  0.52934973506E+03  0.00000000000E+00 0. -1.
         21   -1    0    0  501  502 -0.00000000000E+00 -0.00000000000E+00 -0.96343056218E+02  0.96343056218E+02  0.00000000000E+00 0. -1.
      99926    2    1    2    0    0  0.00000000000E+00  0.00000000000E+00  0.43300667884E+03  0.62569279128E+03  0.45165992199E+03 0.  0.
      99925    2    3    3    0    0 -0.45108003532E+02 -0.93279314110E+02  0.21958622373E+03  0.35749219250E+03  0.26238672913E+03 0.  0.
         25    1    4    4    0    0 -0.21868915733E+02 -0.57053642998E+02  0.16091498219E+03  0.21277807041E+03  0.12509000000E+03 0.  0.
         25    1    4    4    0    0 -0.23239087799E+02 -0.36225671113E+02  0.58671241546E+02  0.14471412210E+03  0.12509000000E+03 0.  0.
         25    1    3    3    0    0  0.45108003532E+02  0.93279314110E+02  0.21342045511E+03  0.26820059877E+03  0.12509000000E+03 0.  0.
<mgrwt>
<rscale>  2 0.45165992E+03</rscale>
<asrwt>0</asrwt>
<pdfrwt beam="1">  1       21 0.77845548E-01 0.45165992E+03</pdfrwt>
<pdfrwt beam="2">  1       21 0.14168097E-01 0.45165992E+03</pdfrwt>
<totfact> 0.58655532E+04</totfact>
</mgrwt>
</event>
<event>
 7    0  0.4766352E-002  0.4570291E+03  0.7546771E-02  0.1025646E+00
         21   -1    0    0  502  501  0.00000000000E+00  0.00000000000E+00  0.22147986996E+03  0.22147986996E+03  0.00000000000E+00 0.  1.
         21   -1    0    0  501  502 -0.00000000000E+00 -0.00000000000E+00 -0.23577266761E+03  0.23577266761E+03  0.00000000000E+00 0.  1.
      99926    2    1    2    0    0  0.14210854715E-13  0.00000000000E+00 -0.14292797644E+02  0.45725253757E+03  0.45702910088E+03 0.  0.
      99925    2    3    3    0    0 -0.86662951117E+02  0.71760146832E+02 -0.33209696935E+02  0.28794411206E+03  0.26296186402E+03 0.  0.
         25    1    3    3    0    0  0.86662951117E+02 -0.71760146832E+02  0.18916899291E+02  0.16930842551E+03  0.12509000000E+03 0.  0.
         25    1    4    4    0    0 -0.77087702270E+02  0.64171532168E+02 -0.18452753593E+02  0.16139551294E+03  0.12509000000E+03 0.  0.
         25    1    4    4    0    0 -0.95752488475E+01  0.75886146634E+01 -0.14756943341E+02  0.12654859912E+03  0.12509000000E+03 0.  0.
<mgrwt>
<rscale>  2 0.45702910E+03</rscale>
<asrwt>0</asrwt>
<pdfrwt beam="1">  1       21 0.32570569E-01 0.45702910E+03</pdfrwt>
<pdfrwt beam="2">  1       21 0.34672451E-01 0.45702910E+03</pdfrwt>
<totfact> 0.67285134E+04</totfact>
</mgrwt>
</event>
<event>
 7    0  0.4766352E-002  0.4571198E+03  0.7546771E-02  0.1025620E+00
         21   -1    0    0  502  501  0.00000000000E+00  0.00000000000E+00  0.21036772425E+03  0.21036772425E+03  0.00000000000E+00 0.  1.
         21   -1    0    0  501  502 -0.00000000000E+00 -0.00000000000E+00 -0.24832525456E+03  0.24832525456E+03  0.00000000000E+00 0.  1.
      99926    2    1    2    0    0 -0.22204460493E-14  0.00000000000E+00 -0.37957530307E+02  0.45869297881E+03  0.45711975970E+03 0.  0.
      99925    2    3    3    0    0  0.39006513393E+01 -0.13701495743E+02 -0.13847788511E+03  0.29758805680E+03  0.26302011486E+03 0.  0.
         25    1    4    4    0    0  0.41708322121E+02 -0.14269402101E+02 -0.73761999094E+02  0.15176145947E+03  0.12509000000E+03 0.  0.
         25    1    3    3    0    0 -0.39006513393E+01  0.13701495743E+02  0.10052035480E+03  0.16110492201E+03  0.12509000000E+03 0.  0.
         25    1    4    4    0    0 -0.37807670782E+02  0.56790635839E+00 -0.64715886011E+02  0.14582659733E+03  0.12509000000E+03 0.  0.
<mgrwt>
<rscale>  2 0.45711976E+03</rscale>
<asrwt>0</asrwt>
<pdfrwt beam="1">  1       21 0.30936430E-01 0.45711976E+03</pdfrwt>
<pdfrwt beam="2">  1       21 0.36518420E-01 0.45711976E+03</pdfrwt>
<totfact> 0.67133493E+04</totfact>
</mgrwt>
</event>
<event>
 7    0  0.4766352E-002  0.4561502E+03  0.7546771E-02  0.1025904E+00
         21   -1    0    0  502  501  0.00000000000E+00  0.00000000000E+00  0.53354385129E+02  0.53354385129E+02  0.00000000000E+00 0. -1.
         21   -1    0    0  501  502 -0.00000000000E+00 -0.00000000000E+00 -0.97495725433E+03  0.97495725433E+03  0.00000000000E+00 0. -1.
      99926    2    1    2    0    0 -0.17763568394E-14  0.00000000000E+00 -0.92160286920E+03  0.10283116395E+04  0.45615017190E+03 0.  0.
      99925    2    3    3    0    0  0.10870955307E+02 -0.60434909379E+02 -0.36150052484E+03  0.45113514982E+03  0.26281122121E+03 0.  0.
         25    1    4    4    0    0 -0.14567651924E+02  0.16315532184E+00 -0.20204062679E+03  0.23807596703E+03  0.12509000000E+03 0.  0.
         25    1    4    4    0    0  0.25438607230E+02 -0.60598064701E+02 -0.15945989805E+03  0.21305918279E+03  0.12509000000E+03 0.  0.
         25    1    3    3    0    0 -0.10870955307E+02  0.60434909379E+02 -0.56010234436E+03  0.57717648964E+03  0.12509000000E+03 0.  0.
<mgrwt>
<rscale>  2 0.45615017E+03</rscale>
<asrwt>0</asrwt>
<pdfrwt beam="1">  1       21 0.78462334E-02 0.45615017E+03</pdfrwt>
<pdfrwt beam="2">  1       21 0.14337606E+00 0.45615017E+03</pdfrwt>
<totfact> 0.37743353E+04</totfact>
</mgrwt>
</event>
<event>
 7    0  0.4766352E-002  0.4558286E+03  0.7546771E-02  0.1025998E+00
         21   -1    0    0  502  501  0.00000000000E+00  0.00000000000E+00  0.60334824011E+02  0.60334824011E+02  0.00000000000E+00 0. -1.
         21   -1    0    0  501  502 -0.00000000000E+00 -0.00000000000E+00 -0.86094454371E+03  0.86094454371E+03  0.00000000000E+00 0. -1.
      99926    2    1    2    0    0  0.00000000000E+00 -0.14210854715E-13 -0.80060971970E+03  0.92127936773E+03  0.45582864117E+03 0.  0.
      99925    2    3    3    0    0  0.79659243748E+02 -0.71471388681E+02 -0.58311474961E+03  0.64850597344E+03  0.26283727259E+03 0.  0.
         25    1    4    4    0    0  0.44360685801E+02 -0.28940901407E+02 -0.20048952255E+03  0.24217556229E+03  0.12509000000E+03 0.  0.
         25    1    4    4    0    0  0.35298557947E+02 -0.42530487274E+02 -0.38262522706E+03  0.40633041115E+03  0.12509000000E+03 0.  0.
         25    1    3    3    0    0 -0.79659243748E+02  0.71471388681E+02 -0.21749497009E+03  0.27277339429E+03  0.12509000000E+03 0.  0.
<mgrwt>
<rscale>  2 0.45582864E+03</rscale>
<asrwt>0</asrwt>
<pdfrwt beam="1">  1       21 0.88727687E-02 0.45582864E+03</pdfrwt>
<pdfrwt beam="2">  1       21 0.12660948E+00 0.45582864E+03</pdfrwt>
<totfact> 0.42053035E+04</totfact>
</mgrwt>
</event>
<event>
 7    0  0.4766352E-002  0.4368934E+03  0.7546771E-02  0.1031704E+00
         21   -1    0    0  502  501  0.00000000000E+00  0.00000000000E+00  0.28393114988E+03  0.28393114988E+03  0.00000000000E+00 0. -1.
         21   -1    0    0  501  502 -0.00000000000E+00 -0.00000000000E+00 -0.16806523273E+03  0.16806523273E+03  0.00000000000E+00 0. -1.
      99926    2    1    2    0    0  0.00000000000E+00  0.71054273576E-14  0.11586591715E+03  0.45199638261E+03  0.43689337273E+03 0.  0.
      99925    2    3    3    0    0 -0.56592692646E+02 -0.63741493801E+02  0.11816789058E+03  0.30060775003E+03  0.26293660476E+03 0.  0.
         25    1    4    4    0    0 -0.21479866491E+02 -0.62626726693E+02  0.89805520212E+02  0.16761870755E+03  0.12509000000E+03 0.  0.
         25    1    4    4    0    0 -0.35112826155E+02 -0.11147671087E+01  0.28362370369E+02  0.13298904248E+03  0.12509000000E+03 0.  0.
         25    1    3    3    0    0  0.56592692646E+02  0.63741493801E+02 -0.23019734350E+01  0.15138863258E+03  0.12509000000E+03 0.  0.
<mgrwt>
<rscale>  2 0.43689337E+03</rscale>
<asrwt>0</asrwt>
<pdfrwt beam="1">  1       21 0.41754581E-01 0.43689337E+03</pdfrwt>
<pdfrwt beam="2">  1       21 0.24715475E-01 0.43689337E+03</pdfrwt>
<totfact> 0.79636233E+04</totfact>
</mgrwt>
</event>
<event>
 7    0  0.4766352E-002  0.4424574E+03  0.7546771E-02  0.1029995E+00
         21   -1    0    0  502  501  0.00000000000E+00  0.00000000000E+00  0.28846359203E+03  0.28846359203E+03  0.00000000000E+00 0. -1.
         21   -1    0    0  501  502 -0.00000000000E+00 -0.00000000000E+00 -0.16966488721E+03  0.16966488721E+03  0.00000000000E+00 0. -1.
      99926    2    1    2    0    0  0.00000000000E+00  0.00000000000E+00  0.11879870483E+03  0.45812847924E+03  0.44245742306E+03 0.  0.
      99925    2    3    3    0    0  0.23857684391E+02 -0.90211952142E+02  0.11552871337E+03  0.30203367997E+03  0.26300204336E+03 0.  0.
         25    1    3    3    0    0 -0.23857684391E+02  0.90211952142E+02  0.32699914612E+01  0.15609479927E+03  0.12509000000E+03 0.  0.
         25    1    4    4    0    0  0.22209244705E+02 -0.26347881316E+02  0.17902369022E+02  0.13097886973E+03  0.12509000000E+03 0.  0.
         25    1    4    4    0    0  0.16484396865E+01 -0.63864070826E+02  0.97626344345E+02  0.17105481024E+03  0.12509000000E+03 0.  0.
<mgrwt>
<rscale>  2 0.44245742E+03</rscale>
<asrwt>0</asrwt>
<pdfrwt beam="1">  1       21 0.42421117E-01 0.44245742E+03</pdfrwt>
<pdfrwt beam="2">  1       21 0.24950719E-01 0.44245742E+03</pdfrwt>
<totfact> 0.75572700E+04</totfact>
</mgrwt>
</event>
<event>
 7    0  0.4766352E-002  0.4552826E+03  0.7546771E-02  0.1026158E+00
         21   -1    0    0  502  501  0.00000000000E+00  0.00000000000E+00  0.71317953867E+03  0.71317953867E+03  0.00000000000E+00 0. -1.
         21   -1    0    0  501  502 -0.00000000000E+00 -0.00000000000E+00 -0.72661307676E+02  0.72661307676E+02  0.00000000000E+00 0. -1.
      99926    2    1    2    0    0  0.00000000000E+00  0.00000000000E+00  0.64051823099E+03  0.78584084634E+03  0.45528258428E+03 0.  0.
      99925    2    3    3    0    0  0.47264850613E+02  0.10303460149E+03  0.40476418770E+03  0.49587951748E+03  0.26308240725E+03 0.  0.
         25    1    3    3    0    0 -0.47264850613E+02 -0.10303460149E+03  0.23575404330E+03  0.28996132887E+03  0.12509000000E+03 0.  0.
         25    1    4    4    0    0  0.19593063434E+02  0.94636809237E+02  0.22425914066E+03  0.27437143449E+03  0.12509000000E+03 0.  0.
         25    1    4    4    0    0  0.27671787178E+02  0.83977922563E+01  0.18050504704E+03  0.22150808298E+03  0.12509000000E+03 0.  0.
<mgrwt>
<rscale>  2 0.45528258E+03</rscale>
<asrwt>0</asrwt>
<pdfrwt beam="1">  1       21 0.10487934E+00 0.45528258E+03</pdfrwt>
<pdfrwt beam="2">  1       21 0.10685487E-01 0.45528258E+03</pdfrwt>
<totfact> 0.48350003E+04</totfact>
</mgrwt>
</event>
<event>
 7    0  0.4766352E-002  0.4591032E+03  0.7546771E-02  0.1025042E+00
         21   -1    0    0  502  501  0.00000000000E+00  0.00000000000E+00  0.18578439587E+03  0.18578439587E+03  0.00000000000E+00 0. -1.
         21   -1    0    0  501  502 -0.00000000000E+00 -0.00000000000E+00 -0.28362945471E+03  0.28362945471E+03  0.00000000000E+00 0. -1.
      99926    2    1    2    0    0  0.00000000000E+00  0.00000000000E+00 -0.97845058840E+02  0.46941385058E+03  0.45910315571E+03 0.  0.
      99925    2    3    3    0    0  0.93604513957E+02  0.60227178268E+02 -0.24563737753E+02  0.28663863849E+03  0.26300040652E+03 0.  0.
         25    1    3    3    0    0 -0.93604513957E+02 -0.60227178268E+02 -0.73281321088E+02  0.18277521209E+03  0.12509000000E+03 0.  0.
         25    1    4    4    0    0  0.56225588204E+01  0.38056048369E+02 -0.16354356781E+02  0.13188953359E+03  0.12509000000E+03 0.  0.
         25    1    4    4    0    0  0.87981955137E+02  0.22171129899E+02 -0.82093809718E+01  0.15474910490E+03  0.12509000000E+03 0.  0.
<mgrwt>
<rscale>  2 0.45910316E+03</rscale>
<asrwt>0</asrwt>
<pdfrwt beam="1">  1       21 0.27321235E-01 0.45910316E+03</pdfrwt>
<pdfrwt beam="2">  1       21 0.41710214E-01 0.45910316E+03</pdfrwt>
<totfact> 0.65327068E+04</totfact>
</mgrwt>
</event>
<event>
 7    0  0.4766352E-002  0.4565580E+03  0.7546771E-02  0.1025784E+00
         21   -1    0    0  502  501  0.00000000000E+00  0.00000000000E+00  0.80291179201E+02  0.80291179201E+02  0.00000000000E+00 0. -1.
         21   -1    0    0  501  502 -0.00000000000E+00 -0.00000000000E+00 -0.64902892909E+03  0.64902892909E+03  0.00000000000E+00 0. -1.
      99926    2    1    2    0    0 -0.17763568394E-14 -0.14210854715E-13 -0.56873774989E+03  0.72932010829E+03  0.45655798340E+03 0.  0.
      99925    2    3    3    0    0 -0.11803782755E+02 -0.10934671596E+03 -0.30542647911E+03  0.41774930254E+03  0.26293176310E+03 0.  0.
         25    1    4    4    0    0  0.76902419269E+01 -0.70386064943E+02 -0.21005973163E+03  0.25453081721E+03  0.12509000000E+03 0.  0.
         25    1    4    4    0    0 -0.19494024682E+02 -0.38960651020E+02 -0.95366747479E+02  0.16321848532E+03  0.12509000000E+03 0.  0.
         25    1    3    3    0    0  0.11803782755E+02  0.10934671596E+03 -0.26331127078E+03  0.31157080575E+03  0.12509000000E+03 0.  0.
<mgrwt>
<rscale>  2 0.45655798E+03</rscale>
<asrwt>0</asrwt>
<pdfrwt beam="1">  1       21 0.11807526E-01 0.45655798E+03</pdfrwt>
<pdfrwt beam="2">  1       21 0.95445431E-01 0.45655798E+03</pdfrwt>
<totfact> 0.50715641E+04</totfact>
</mgrwt>
</event>
<event>
 7    0  0.4766352E-002  0.4536043E+03  0.7546771E-02  0.1026653E+00
         21   -1    0    0  502  501  0.00000000000E+00  0.00000000000E+00  0.28764338886E+03  0.28764338886E+03  0.00000000000E+00 0.  1.
         21   -1    0    0  501  502 -0.00000000000E+00 -0.00000000000E+00 -0.17882984715E+03  0.17882984715E+03  0.00000000000E+00 0.  1.
      99926    2    1    2    0    0  0.00000000000E+00  0.00000000000E+00  0.10881354171E+03  0.46647323601E+03  0.45360433536E+03 0.  0.
      99925    2    3    3    0    0 -0.27836936735E+02 -0.40420403655E+02 -0.34795654736E+02  0.26980139389E+03  0.26300827074E+03 0.  0.
         25    1    3    3    0    0  0.27836936735E+02  0.40420403655E+02  0.14360919645E+03  0.19667184212E+03  0.12509000000E+03 0.  0.
         25    1    4    4    0    0  0.97126369337E+01 -0.26486496135E+02 -0.49882488829E+02  0.13759229842E+03  0.12509000000E+03 0.  0.
         25    1    4    4    0    0 -0.37549573669E+02 -0.13933907520E+02  0.15086834093E+02  0.13220909547E+03  0.12509000000E+03 0.  0.
<mgrwt>
<rscale>  2 0.45360434E+03</rscale>
<asrwt>0</asrwt>
<pdfrwt beam="1">  1       21 0.42300498E-01 0.45360434E+03</pdfrwt>
<pdfrwt beam="2">  1       21 0.26298507E-01 0.45360434E+03</pdfrwt>
<totfact> 0.68453783E+04</totfact>
</mgrwt>
</event>
<event>
 7    0  0.4766352E-002  0.4567612E+03  0.7546771E-02  0.1025725E+00
         21   -1    0    0  502  501  0.00000000000E+00  0.00000000000E+00  0.25043894394E+03  0.25043894394E+03  0.00000000000E+00 0. -1.
         21   -1    0    0  501  502 -0.00000000000E+00 -0.00000000000E+00 -0.20826512608E+03  0.20826512608E+03  0.00000000000E+00 0. -1.
      99926    2    1    2    0    0  0.00000000000E+00  0.00000000000E+00  0.42173817861E+02  0.45870407002E+03  0.45676119903E+03 0.  0.
      99925    2    3    3    0    0  0.26300817316E+02  0.10865362017E+03  0.52986111498E+02  0.29059173864E+03  0.26294236704E+03 0.  0.
         25    1    4    4    0    0 -0.37209286073E+01  0.66167543969E+02 -0.84987967163E+01  0.14181582010E+03  0.12509000000E+03 0.  0.
         25    1    3    3    0    0 -0.26300817316E+02 -0.10865362017E+03 -0.10812293637E+02  0.16811233138E+03  0.12509000000E+03 0.  0.
         25    1    4    4    0    0  0.30021745923E+02  0.42486076205E+02  0.61484908215E+02  0.14877591854E+03  0.12509000000E+03 0.  0.
<mgrwt>
<rscale>  2 0.45676120E+03</rscale>
<asrwt>0</asrwt>
<pdfrwt beam="1">  1       21 0.36829256E-01 0.45676120E+03</pdfrwt>
<pdfrwt beam="2">  1       21 0.30627225E-01 0.45676120E+03</pdfrwt>
<totfact> 0.67324274E+04</totfact>
</mgrwt>
</event>
<event>
 7    0  0.4766352E-002  0.4793127E+03  0.7546771E-02  0.1019324E+00
         21   -1    0    0  502  501  0.00000000000E+00  0.00000000000E+00  0.91207249332E+03  0.91207249332E+03  0.00000000000E+00 0.  1.
         21   -1    0    0  501  502 -0.00000000000E+00 -0.00000000000E+00 -0.62972147845E+02  0.62972147845E+02  0.00000000000E+00 0.  1.
      99926    2    1    2    0    0  0.00000000000E+00  0.00000000000E+00  0.84910034547E+03  0.97504464116E+03  0.47931269082E+03 0.  0.
      99925    2    3    3    0    0 -0.30667525072E+02  0.92792758577E+02  0.33480325210E+03  0.43680677414E+03  0.26297518359E+03 0.  0.
         25    1    4    4    0    0  0.15943459808E+02  0.72667572103E+02  0.17509679556E+03  0.22768655178E+03  0.12509000000E+03 0.  0.
         25    1    4    4    0    0 -0.46610984880E+02  0.20125186474E+02  0.15970645654E+03  0.20912022237E+03  0.12509000000E+03 0.  0.
         25    1    3    3    0    0  0.30667525072E+02 -0.92792758577E+02  0.51429709337E+03  0.53823786702E+03  0.12509000000E+03 0.  0.
<mgrwt>
<rscale>  2 0.47931269E+03</rscale>
<asrwt>0</asrwt>
<pdfrwt beam="1">  1       21 0.13412830E+00 0.47931269E+03</pdfrwt>
<pdfrwt beam="2">  1       21 0.92606106E-02 0.47931269E+03</pdfrwt>
<totfact> 0.33338530E+04</totfact>
</mgrwt>
</event>
<event>
 7    0  0.4766352E-002  0.4381072E+03  0.7546771E-02  0.1031329E+00
         21   -1    0    0  502  501  0.00000000000E+00  0.00000000000E+00  0.68394020569E+03  0.68394020569E+03  0.00000000000E+00 0. -1.
         21   -1    0    0  501  502 -0.00000000000E+00 -0.00000000000E+00 -0.70158866001E+02  0.70158866001E+02  0.00000000000E+00 0. -1.
      99926    2    1    2    0    0  0.00000000000E+00  0.00000000000E+00  0.61378133969E+03  0.75409907169E+03  0.43810715239E+03 0.  0.
      99925    2    3    3    0    0  0.89546082700E+02  0.35797994109E+02  0.39506373763E+03  0.48431231357E+03  0.26302673433E+03 0.  0.
         25    1    3    3    0    0 -0.89546082700E+02 -0.35797994109E+02  0.21871760206E+03  0.26978675813E+03  0.12509000000E+03 0.  0.
         25    1    4    4    0    0  0.49059259753E+02  0.52150081731E+02  0.24389502503E+03  0.28329972348E+03  0.12509000000E+03 0.  0.
         25    1    4    4    0    0  0.40486822948E+02 -0.16352087622E+02  0.15116871260E+03  0.20101259008E+03  0.12509000000E+03 0.  0.
<mgrwt>
<rscale>  2 0.43810715E+03</rscale>
<asrwt>0</asrwt>
<pdfrwt beam="1">  1       21 0.10057944E+00 0.43810715E+03</pdfrwt>
<pdfrwt beam="2">  1       21 0.10317481E-01 0.43810715E+03</pdfrwt>
<totfact> 0.57294535E+04</totfact>
</mgrwt>
</event>
<event>
 7    0  0.4766352E-002  0.4318746E+03  0.7546771E-02  0.1033269E+00
         21   -1    0    0  502  501  0.00000000000E+00  0.00000000000E+00  0.11386184869E+04  0.11386184869E+04  0.00000000000E+00 0.  1.
         21   -1    0    0  501  502 -0.00000000000E+00 -0.00000000000E+00 -0.40952194954E+02  0.40952194954E+02  0.00000000000E+00 0.  1.
      99926    2    1    2    0    0  0.00000000000E+00  0.35527136788E-14  0.10976662920E+04  0.11795706819E+04  0.43187464040E+03 0.  0.
      99925    2    3    3    0    0 -0.83019290022E+02 -0.30103186201E+02  0.75548538147E+03  0.80469245105E+03  0.26262782571E+03 0.  0.
         25    1    4    4    0    0 -0.45755485854E+02 -0.29848927663E+02  0.27821183855E+03  0.30989330128E+03  0.12509000000E+03 0.  0.
         25    1    4    4    0    0 -0.37263804168E+02 -0.25425853883E+00  0.47727354292E+03  0.49479914978E+03  0.12509000000E+03 0.  0.
         25    1    3    3    0    0  0.83019290022E+02  0.30103186201E+02  0.34218091053E+03  0.37487823085E+03  0.12509000000E+03 0.  0.
<mgrwt>
<rscale>  2 0.43187464E+03</rscale>
<asrwt>0</asrwt>
<pdfrwt beam="1">  1       21 0.16744387E+00 0.43187464E+03</pdfrwt>
<pdfrwt beam="2">  1       21 0.60223823E-02 0.43187464E+03</pdfrwt>
<totfact> 0.39453273E+04</totfact>
</mgrwt>
</event>
<event>
 7    0  0.4766352E-002  0.4504804E+03  0.7546771E-02  0.1027579E+00
         21   -1    0    0  502  501  0.00000000000E+00  0.00000000000E+00  0.98667372322E+02  0.98667372322E+02  0.00000000000E+00 0.  1.
         21   -1    0    0  501  502 -0.00000000000E+00 -0.00000000000E+00 -0.51418369285E+03  0.51418369285E+03  0.00000000000E+00 0.  1.
      99926    2    1    2    0    0  0.00000000000E+00  0.00000000000E+00 -0.41551632053E+03  0.61285106517E+03  0.45048042739E+03 0.  0.
      99925    2    3    3    0    0  0.10189044400E+03  0.36998301413E+02 -0.27255247907E+03  0.39413502792E+03  0.26326228271E+03 0.  0.
         25    1    4    4    0    0  0.45169336335E+02 -0.21614654212E+02 -0.11619074540E+03  0.17791925033E+03  0.12509000000E+03 0.  0.
         25    1    3    3    0    0 -0.10189044400E+03 -0.36998301413E+02 -0.14296384146E+03  0.21871603725E+03  0.12509000000E+03 0.  0.
         25    1    4    4    0    0  0.56721107670E+02  0.58612955624E+02 -0.15636173367E+03  0.21621577759E+03  0.12509000000E+03 0.  0.
<mgrwt>
<rscale>  2 0.45048043E+03</rscale>
<asrwt>0</asrwt>
<pdfrwt beam="1">  1       21 0.14509908E-01 0.45048043E+03</pdfrwt>
<pdfrwt beam="2">  1       21 0.75615247E-01 0.45048043E+03</pdfrwt>
<totfact> 0.60007649E+04</totfact>
</mgrwt>
</event>
<event>
 7    0  0.4766352E-002  0.4463094E+03  0.7546771E-02  0.1028828E+00
         21   -1    0    0  502  501  0.00000000000E+00  0.00000000000E+00  0.27154867920E+03  0.27154867920E+03  0.00000000000E+00 0.  1.
         21   -1    0    0  501  502 -0.00000000000E+00 -0.00000000000E+00 -0.18338524996E+03  0.18338524996E+03  0.00000000000E+00 0.  1.
      99926    2    1    2    0    0  0.00000000000E+00 -0.14210854715E-13  0.88163429244E+02  0.45493392917E+03  0.44630941022E+03 0.  0.
      99925    2    3    3    0    0  0.72530455376E+02 -0.74881381109E+02  0.67398687357E+02  0.29077982230E+03  0.26294948908E+03 0.  0.
         25    1    4    4    0    0  0.66636583014E+02 -0.12693791316E+02  0.23470138708E+02  0.14422178076E+03  0.12509000000E+03 0.  0.
         25    1    4    4    0    0  0.58938723618E+01 -0.62187589793E+02  0.43928548648E+02  0.14655804155E+03  0.12509000000E+03 0.  0.
         25    1    3    3    0    0 -0.72530455376E+02  0.74881381109E+02  0.20764741887E+02  0.16415410686E+03  0.12509000000E+03 0.  0.
<mgrwt>
<rscale>  2 0.44630941E+03</rscale>
<asrwt>0</asrwt>
<pdfrwt beam="1">  1       21 0.39933630E-01 0.44630941E+03</pdfrwt>
<pdfrwt beam="2">  1       21 0.26968419E-01 0.44630941E+03</pdfrwt>
<totfact> 0.73511824E+04</totfact>
</mgrwt>
</event>
<event>
 7    0  0.4766352E-002  0.4535959E+03  0.7546771E-02  0.1026655E+00
         21   -1    0    0  502  501  0.00000000000E+00  0.00000000000E+00  0.23080101189E+03  0.23080101189E+03  0.00000000000E+00 0. -1.
         21   -1    0    0  501  502 -0.00000000000E+00 -0.00000000000E+00 -0.22286436418E+03  0.22286436418E+03  0.00000000000E+00 0. -1.
      99926    2    1    2    0    0  0.00000000000E+00  0.35527136788E-14  0.79366477043E+01  0.45366537607E+03  0.45359594693E+03 0.  0.
      99925    2    3    3    0    0 -0.50519567847E+02 -0.14599906504E+02  0.10366281942E+03  0.28760396557E+03  0.26306781802E+03 0.  0.
         25    1    4    4    0    0  0.31663654291E+01  0.22295631390E+02  0.53715354510E+02  0.13798539220E+03  0.12509000000E+03 0.  0.
         25    1    3    3    0    0  0.50519567847E+02  0.14599906504E+02 -0.95726171719E+02  0.16606141050E+03  0.12509000000E+03 0.  0.
         25    1    4    4    0    0 -0.53685933277E+02 -0.36895537894E+02  0.49947464913E+02  0.14961857338E+03  0.12509000000E+03 0.  0.
<mgrwt>
<rscale>  2 0.45359595E+03</rscale>
<asrwt>0</asrwt>
<pdfrwt beam="1">  1       21 0.33941325E-01 0.45359595E+03</pdfrwt>
<pdfrwt beam="2">  1       21 0.32774171E-01 0.45359595E+03</pdfrwt>
<totfact> 0.69418107E+04</totfact>
</mgrwt>
</event>
<event>
 7    0  0.4766352E-002  0.4521700E+03  0.7546771E-02  0.1027077E+00
         21   -1    0    0  502  501  0.00000000000E+00  0.00000000000E+00  0.67795569838E+03  0.67795569838E+03  0.00000000000E+00 0.  1.
         21   -1    0    0  501  502 -0.00000000000E+00 -0.00000000000E+00 -0.75394935038E+02  0.75394935038E+02  0.00000000000E+00 0.  1.
      99926    2    1    2    0    0  0.71054273576E-14  0.00000000000E+00  0.60256076334E+03  0.75335063342E+03  0.45216999387E+03 0.  0.
      99925    2    3    3    0    0  0.51253448582E+02  0.65208216017E+02  0.25781783206E+03  0.37735299487E+03  0.26276647575E+03 0.  0.
         25    1    4    4    0    0 -0.13832329305E+02  0.21727064223E+02  0.11130252088E+03  0.16940825809E+03  0.12509000000E+03 0.  0.
         25    1    3    3    0    0 -0.51253448582E+02 -0.65208216017E+02  0.34474293128E+03  0.37599763855E+03  0.12509000000E+03 0.  0.
         25    1    4    4    0    0  0.65085777886E+02  0.43481151794E+02  0.14651531118E+03  0.20794473678E+03  0.12509000000E+03 0.  0.
<mgrwt>
<rscale>  2 0.45216999E+03</rscale>
<asrwt>0</asrwt>
<pdfrwt beam="1">  1       21 0.99699364E-01 0.45216999E+03</pdfrwt>
<pdfrwt beam="2">  1       21 0.11087491E-01 0.45216999E+03</pdfrwt>
<totfact> 0.51230165E+04</totfact>
</mgrwt>
</event>
<event>
 7    0  0.4766352E-002  0.4594636E+03  0.7546771E-02  0.1024937E+00
         21   -1    0    0  502  501  0.00000000000E+00  0.00000000000E+00  0.18250207577E+02  0.18250207577E+02  0.00000000000E+00 0.  1.
         21   -1    0    0  501  502 -0.00000000000E+00 -0.00000000000E+00 -0.28918415548E+04  0.28918415548E+04  0.00000000000E+00 0.  1.
      99926    2    1    2    0    0  0.00000000000E+00  0.14432899320E-14 -0.28735913472E+04  0.29100917624E+04  0.45946363797E+03 0.  0.
      99925    2    3    3    0    0  0.42808518642E+02  0.76200019099E+00 -0.11138298871E+04  0.11453705224E+04  0.26348333240E+03 0.  0.
         25    1    3    3    0    0 -0.42808518642E+02 -0.76200019099E+00 -0.17597614602E+04  0.17647212400E+04  0.12509000000E+03 0.  0.
         25    1    4    4    0    0  0.90728390129E+01 -0.33473063542E+02 -0.63561664413E+03  0.64873630142E+03  0.12509000000E+03 0.  0.
         25    1    4    4    0    0  0.33735679629E+02  0.34235063733E+02 -0.47821324294E+03  0.49663422102E+03  0.12509000000E+03 0.  0.
<mgrwt>
<rscale>  2 0.45946364E+03</rscale>
<asrwt>0</asrwt>
<pdfrwt beam="1">  1       21 0.26838548E-02 0.45946364E+03</pdfrwt>
<pdfrwt beam="2">  1       21 0.42527070E+00 0.45946364E+03</pdfrwt>
<totfact> 0.36513298E+03</totfact>
</mgrwt>
</event>
<event>
 7    0  0.4766352E-002  0.4613324E+03  0.7546771E-02  0.1024396E+00
         21   -1    0    0  502  501  0.00000000000E+00  0.00000000000E+00  0.14002913447E+03  0.14002913447E+03  0.00000000000E+00 0. -1.
         21   -1    0    0  501  502 -0.00000000000E+00 -0.00000000000E+00 -0.37997010649E+03  0.37997010649E+03  0.00000000000E+00 0. -1.
      99926    2    1    2    0    0  0.00000000000E+00  0.35527136788E-14 -0.23994097202E+03  0.51999924096E+03  0.46133235367E+03 0.  0.
      99925    2    3    3    0    0 -0.84327289123E+02  0.28779736358E+02 -0.61200548363E+02  0.28434056392E+03  0.26299179503E+03 0.  0.
         25    1    4    4    0    0 -0.57707561552E+02 -0.22078799057E+02 -0.39554933620E+02  0.14501633322E+03  0.12509000000E+03 0.  0.
         25    1    4    4    0    0 -0.26619727571E+02  0.50858535415E+02 -0.21645614743E+02  0.13932423069E+03  0.12509000000E+03 0.  0.
         25    1    3    3    0    0  0.84327289123E+02 -0.28779736358E+02 -0.17874042366E+03  0.23565867704E+03  0.12509000000E+03 0.  0.
<mgrwt>
<rscale>  2 0.46133235E+03</rscale>
<asrwt>0</asrwt>
<pdfrwt beam="1">  1       21 0.20592520E-01 0.46133235E+03</pdfrwt>
<pdfrwt beam="2">  1       21 0.55877956E-01 0.46133235E+03</pdfrwt>
<totfact> 0.60775714E+04</totfact>
</mgrwt>
</event>
<event>
 7    0  0.4766352E-002  0.4606209E+03  0.7546771E-02  0.1024601E+00
         21   -1    0    0  502  501  0.00000000000E+00  0.00000000000E+00  0.11877108778E+04  0.11877108778E+04  0.00000000000E+00 0. -1.
         21   -1    0    0  501  502 -0.00000000000E+00 -0.00000000000E+00 -0.44659786023E+02  0.44659786023E+02  0.00000000000E+00 0. -1.
      99926    2    1    2    0    0  0.00000000000E+00 -0.71054273576E-14  0.11430510917E+04  0.12323706638E+04  0.46062094463E+03 0.  0.
      99925    2    3    3    0    0 -0.14586029470E+02  0.61869305496E+02  0.44834190400E+03  0.52363310527E+03  0.26294600745E+03 0.  0.
         25    1    3    3    0    0  0.14586029470E+02 -0.61869305496E+02  0.69470918773E+03  0.70873755850E+03  0.12509000000E+03 0.  0.
         25    1    4    4    0    0 -0.15760206401E+02  0.64944180026E+02  0.28009879205E+03  0.31395695888E+03  0.12509000000E+03 0.  0.
         25    1    4    4    0    0  0.11741769316E+01 -0.30748745296E+01  0.16824311195E+03  0.20967614639E+03  0.12509000000E+03 0.  0.
<mgrwt>
<rscale>  2 0.46062094E+03</rscale>
<asrwt>0</asrwt>
<pdfrwt beam="1">  1       21 0.17466334E+00 0.46062094E+03</pdfrwt>
<pdfrwt beam="2">  1       21 0.65676164E-02 0.46062094E+03</pdfrwt>
<totfact> 0.29817355E+04</totfact>
</mgrwt>
</event>
<event>
 7    0  0.4766352E-002  0.4548770E+03  0.7546771E-02  0.1026278E+00
         21   -1    0    0  502  501  0.00000000000E+00  0.00000000000E+00  0.41934822889E+03  0.41934822889E+03  0.00000000000E+00 0.  1.
         21   -1    0    0  501  502 -0.00000000000E+00 -0.00000000000E+00 -0.12335398323E+03  0.12335398323E+03  0.00000000000E+00 0.  1.
      99926    2    1    2    0    0  0.00000000000E+00  0.00000000000E+00  0.29599424565E+03  0.54270221212E+03  0.45487701369E+03 0.  0.
      99925    2    3    3    0    0 -0.29497608552E+02  0.85694283533E+02  0.10573264474E+03  0.29762956162E+03  0.26304057605E+03 0.  0.
         25    1    4    4    0    0 -0.48871781367E+02  0.63163109377E+02  0.42651200229E+02  0.15441716997E+03  0.12509000000E+03 0.  0.
         25    1    4    4    0    0  0.19374172815E+02  0.22531174156E+02  0.63081444508E+02  0.14321239165E+03  0.12509000000E+03 0.  0.
         25    1    3    3    0    0  0.29497608552E+02 -0.85694283533E+02  0.19026160092E+03  0.24507265050E+03  0.12509000000E+03 0.  0.
<mgrwt>
<rscale>  2 0.45487701E+03</rscale>
<asrwt>0</asrwt>
<pdfrwt beam="1">  1       21 0.61668857E-01 0.45487701E+03</pdfrwt>
<pdfrwt beam="2">  1       21 0.18140292E-01 0.45487701E+03</pdfrwt>
<totfact> 0.62412067E+04</totfact>
</mgrwt>
</event>
<event>
 7    0  0.4766352E-002  0.4528586E+03  0.7546771E-02  0.1026873E+00
         21   -1    0    0  502  501  0.00000000000E+00  0.00000000000E+00  0.29661663205E+03  0.29661663205E+03  0.00000000000E+00 0. -1.
         21   -1    0    0  501  502 -0.00000000000E+00 -0.00000000000E+00 -0.17285015548E+03  0.17285015548E+03  0.00000000000E+00 0. -1.
      99926    2    1    2    0    0  0.00000000000E+00  0.00000000000E+00  0.12376647658E+03  0.46946678753E+03  0.45285861355E+03 0.  0.
      99925    2    3    3    0    0 -0.74158087814E+02 -0.25822927998E+02 -0.33957465221E+01  0.27457198339E+03  0.26308173134E+03 0.  0.
         25    1    4    4    0    0 -0.32772984950E+02 -0.53376693985E+02  0.81894822495E+00  0.13989752957E+03  0.12509000000E+03 0.  0.
         25    1    4    4    0    0 -0.41385102864E+02  0.27553765987E+02 -0.42146947470E+01  0.13467445382E+03  0.12509000000E+03 0.  0.
         25    1    3    3    0    0  0.74158087814E+02  0.25822927998E+02  0.12716222310E+03  0.19489480414E+03  0.12509000000E+03 0.  0.
<mgrwt>
<rscale>  2 0.45285861E+03</rscale>
<asrwt>0</asrwt>
<pdfrwt beam="1">  1       21 0.43620093E-01 0.45285861E+03</pdfrwt>
<pdfrwt beam="2">  1       21 0.25419141E-01 0.45285861E+03</pdfrwt>
<totfact> 0.68633983E+04</totfact>
</mgrwt>
</event>
<event>
 7    0  0.4766352E-002  0.4539802E+03  0.7546771E-02  0.1026542E+00
         21   -1    0    0  502  501  0.00000000000E+00  0.00000000000E+00  0.11051578058E+03  0.11051578058E+03  0.00000000000E+00 0.  1.
         21   -1    0    0  501  502 -0.00000000000E+00 -0.00000000000E+00 -0.46621852342E+03  0.46621852342E+03  0.00000000000E+00 0.  1.
      99926    2    1    2    0    0  0.00000000000E+00  0.00000000000E+00 -0.35570274284E+03  0.57673430400E+03  0.45398019357E+03 0.  0.
      99925    2    3    3    0    0 -0.95756095276E+02 -0.37310636768E+02 -0.16715028385E+03  0.32821699819E+03  0.26310809017E+03 0.  0.
         25    1    4    4    0    0 -0.30962743122E+02 -0.10959458936E+02 -0.36741965204E+02  0.13444806175E+03  0.12509000000E+03 0.  0.
         25    1    3    3    0    0  0.95756095276E+02  0.37310636768E+02 -0.18855245899E+03  0.24851730582E+03  0.12509000000E+03 0.  0.
         25    1    4    4    0    0 -0.64793352154E+02 -0.26351177832E+02 -0.13040831864E+03  0.19376893644E+03  0.12509000000E+03 0.  0.
<mgrwt>
<rscale>  2 0.45398019E+03</rscale>
<asrwt>0</asrwt>
<pdfrwt beam="1">  1       21 0.16252321E-01 0.45398019E+03</pdfrwt>
<pdfrwt beam="2">  1       21 0.68561547E-01 0.45398019E+03</pdfrwt>
<totfact> 0.60620992E+04</totfact>
</mgrwt>
</event>
<event>
 7    0  0.4766352E-002  0.4508415E+03  0.7546771E-02  0.1027471E+00
         21   -1    0    0  502  501  0.00000000000E+00  0.00000000000E+00  0.52441219206E+03  0.52441219206E+03  0.00000000000E+00 0.  1.
         21   -1    0    0  501  502 -0.00000000000E+00 -0.00000000000E+00 -0.96898028169E+02  0.96898028169E+02  0.00000000000E+00 0.  1.
      99926    2    1    2    0    0  0.00000000000E+00  0.35527136788E-14  0.42751416389E+03  0.62131022023E+03  0.45084146818E+03 0.  0.
      99925    2    3    3    0    0  0.37138222206E+02  0.93558257168E+01  0.12906690289E+03  0.29544973670E+03  0.26299335063E+03 0.  0.
         25    1    4    4    0    0 -0.61759333762E+01  0.33036124933E+02  0.80323115790E+02  0.15241010050E+03  0.12509000000E+03 0.  0.
         25    1    3    3    0    0 -0.37138222206E+02 -0.93558257168E+01  0.29844726100E+03  0.32586048353E+03  0.12509000000E+03 0.  0.
         25    1    4    4    0    0  0.43314155582E+02 -0.23680299216E+02  0.48743787096E+02  0.14303963620E+03  0.12509000000E+03 0.  0.
<mgrwt>
<rscale>  2 0.45084147E+03</rscale>
<asrwt>0</asrwt>
<pdfrwt beam="1">  1       21 0.77119439E-01 0.45084147E+03</pdfrwt>
<pdfrwt beam="2">  1       21 0.14249710E-01 0.45084147E+03</pdfrwt>
<totfact> 0.59308968E+04</totfact>
</mgrwt>
</event>
<event>
 7    0  0.4766352E-002  0.4539742E+03  0.7546771E-02  0.1026543E+00
         21   -1    0    0  502  501  0.00000000000E+00  0.00000000000E+00  0.17524224097E+03  0.17524224097E+03  0.00000000000E+00 0. -1.
         21   -1    0    0  501  502 -0.00000000000E+00 -0.00000000000E+00 -0.29401097246E+03  0.29401097246E+03  0.00000000000E+00 0. -1.
      99926    2    1    2    0    0  0.00000000000E+00 -0.71054273576E-14 -0.11876873149E+03  0.46925321343E+03  0.45397419171E+03 0.  0.
      99925    2    3    3    0    0  0.97547584098E+02 -0.54736004549E+02 -0.73049661167E+02  0.29532994630E+03  0.26338557825E+03 0.  0.
         25    1    3    3    0    0 -0.97547584098E+02  0.54736004549E+02 -0.45719070326E+02  0.17392326713E+03  0.12509000000E+03 0.  0.
         25    1    4    4    0    0  0.43536353481E+02 -0.68158164723E+02 -0.44622363687E+02  0.15549795154E+03  0.12509000000E+03 0.  0.
         25    1    4    4    0    0  0.54011230617E+02  0.13422160174E+02 -0.28427297480E+02  0.13983199476E+03  0.12509000000E+03 0.  0.
<mgrwt>
<rscale>  2 0.45397419E+03</rscale>
<asrwt>0</asrwt>
<pdfrwt beam="1">  1       21 0.25770918E-01 0.45397419E+03</pdfrwt>
<pdfrwt beam="2">  1       21 0.43236907E-01 0.45397419E+03</pdfrwt>
<totfact> 0.68043333E+04</totfact>
</mgrwt>
</event>
<event>
 7    0  0.4766352E-002  0.4551013E+03  0.7546771E-02  0.1026212E+00
         21   -1    0    0  502  501  0.00000000000E+00  0.00000000000E+00  0.11658515469E+03  0.11658515469E+03  0.00000000000E+00 0. -1.
         21   -1    0    0  501  502 -0.00000000000E+00 -0.00000000000E+00 -0.44413295753E+03  0.44413295753E+03  0.00000000000E+00 0. -1.
      99926    2    1    2    0    0 -0.71054273576E-14  0.14210854715E-13 -0.32754780284E+03  0.56071811222E+03  0.45510134941E+03 0.  0.
      99925    2    3    3    0    0 -0.38632579351E+02 -0.94413064838E+02 -0.26766492842E+03  0.38855606720E+03  0.26253571271E+03 0.  0.
         25    1    4    4    0    0 -0.35338264960E+02 -0.53383319353E+02 -0.88013126504E+02  0.16580829380E+03  0.12509000000E+03 0.  0.
         25    1    4    4    0    0 -0.32943143914E+01 -0.41029745485E+02 -0.17965180191E+03  0.22274777340E+03  0.12509000000E+03 0.  0.
         25    1    3    3    0    0  0.38632579351E+02  0.94413064838E+02 -0.59882874418E+02  0.17216204503E+03  0.12509000000E+03 0.  0.
<mgrwt>
<rscale>  2 0.45510135E+03</rscale>
<asrwt>0</asrwt>
<pdfrwt beam="1">  1       21 0.17144876E-01 0.45510135E+03</pdfrwt>
<pdfrwt beam="2">  1       21 0.65313669E-01 0.45510135E+03</pdfrwt>
<totfact> 0.61114751E+04</totfact>
</mgrwt>
</event>
<event>
 7    0  0.4766352E-002  0.4379459E+03  0.7546771E-02  0.1031379E+00
         21   -1    0    0  502  501  0.00000000000E+00  0.00000000000E+00  0.12582393033E+03  0.12582393033E+03  0.00000000000E+00 0. -1.
         21   -1    0    0  501  502 -0.00000000000E+00 -0.00000000000E+00 -0.38108133644E+03  0.38108133644E+03  0.00000000000E+00 0. -1.
      99926    2    1    2    0    0 -0.44408920985E-14  0.00000000000E+00 -0.25525740611E+03  0.50690526677E+03  0.43794589404E+03 0.  0.
      99925    2    3    3    0    0  0.39115401414E+00 -0.55830249360E+02 -0.25405348870E+03  0.36991575162E+03  0.26301581403E+03 0.  0.
         25    1    4    4    0    0  0.38516672204E+02 -0.41190590862E+02 -0.13403162180E+03  0.19181288423E+03  0.12509000000E+03 0.  0.
         25    1    3    3    0    0 -0.39115401414E+00  0.55830249360E+02 -0.12039174072E+01  0.13698951515E+03  0.12509000000E+03 0.  0.
         25    1    4    4    0    0 -0.38125518189E+02 -0.14639658497E+02 -0.12002186690E+03  0.17810286739E+03  0.12509000000E+03 0.  0.
<mgrwt>
<rscale>  2 0.43794589E+03</rscale>
<asrwt>0</asrwt>
<pdfrwt beam="1">  1       21 0.18503519E-01 0.43794589E+03</pdfrwt>
<pdfrwt beam="2">  1       21 0.56041373E-01 0.43794589E+03</pdfrwt>
<totfact> 0.74349755E+04</totfact>
</mgrwt>
</event>
<event>
 7    0  0.4766352E-002  0.4506032E+03  0.7546771E-02  0.1027542E+00
         21   -1    0    0  502  501  0.00000000000E+00  0.00000000000E+00  0.13620139094E+03  0.13620139094E+03  0.00000000000E+00 0.  1.
         21   -1    0    0  501  502 -0.00000000000E+00 -0.00000000000E+00 -0.37268929185E+03  0.37268929185E+03  0.00000000000E+00 0.  1.
      99926    2    1    2    0    0  0.17763568394E-14  0.00000000000E+00 -0.23648790091E+03  0.50889068280E+03  0.45060315108E+03 0.  0.
      99925    2    3    3    0    0 -0.84816133134E+01 -0.10824110028E+03 -0.13856326627E+03  0.31647234759E+03  0.26299599707E+03 0.  0.
         25    1    4    4    0    0  0.62612244841E+00 -0.89400754286E+02 -0.10188222642E+03  0.18444615219E+03  0.12509000000E+03 0.  0.
         25    1    4    4    0    0 -0.91077357618E+01 -0.18840345993E+02 -0.36681039845E+02  0.13202619540E+03  0.12509000000E+03 0.  0.
         25    1    3    3    0    0  0.84816133134E+01  0.10824110028E+03 -0.97924634641E+02  0.19241833521E+03  0.12509000000E+03 0.  0.
<mgrwt>
<rscale>  2 0.45060315E+03</rscale>
<asrwt>0</asrwt>
<pdfrwt beam="1">  1       21 0.20029617E-01 0.45060315E+03</pdfrwt>
<pdfrwt beam="2">  1       21 0.54807248E-01 0.45060315E+03</pdfrwt>
<totfact> 0.66956470E+04</totfact>
</mgrwt>
</event>
<event>
 7    0  0.4766352E-002  0.4539007E+03  0.7546771E-02  0.1026565E+00
         21   -1    0    0  502  501  0.00000000000E+00  0.00000000000E+00  0.31138663190E+03  0.31138663190E+03  0.00000000000E+00 0.  1.
         21   -1    0    0  501  502 -0.00000000000E+00 -0.00000000000E+00 -0.16540999877E+03  0.16540999877E+03  0.00000000000E+00 0.  1.
      99926    2    1    2    0    0 -0.14210854715E-13  0.35527136788E-14  0.14597663313E+03  0.47679663067E+03  0.45390070456E+03 0.  0.
      99925    2    3    3    0    0  0.10047373561E+03 -0.27602380109E+02  0.48435505031E+02  0.28701084958E+03  0.26300640048E+03 0.  0.
         25    1    3    3    0    0 -0.10047373561E+03  0.27602380109E+02  0.97541128096E+02  0.18978578109E+03  0.12509000000E+03 0.  0.
         25    1    4    4    0    0  0.29311389018E+02 -0.48462732367E+02  0.28356821349E+02  0.14021202292E+03  0.12509000000E+03 0.  0.
         25    1    4    4    0    0  0.71162346595E+02  0.20860352258E+02  0.20078683682E+02  0.14679882666E+03  0.12509000000E+03 0.  0.
<mgrwt>
<rscale>  2 0.45390070E+03</rscale>
<asrwt>0</asrwt>
<pdfrwt beam="1">  1       21 0.45792152E-01 0.45390070E+03</pdfrwt>
<pdfrwt beam="2">  1       21 0.24325000E-01 0.45390070E+03</pdfrwt>
<totfact> 0.67521213E+04</totfact>
</mgrwt>
</event>
<event>
 7    0  0.4766352E-002  0.4557363E+03  0.7546771E-02  0.1026025E+00
         21   -1    0    0  502  501  0.00000000000E+00  0.00000000000E+00  0.33202232407E+03  0.33202232407E+03  0.00000000000E+00 0. -1.
         21   -1    0    0  501  502 -0.00000000000E+00 -0.00000000000E+00 -0.15638675448E+03  0.15638675448E+03  0.00000000000E+00 0. -1.
      99926    2    1    2    0    0  0.00000000000E+00  0.00000000000E+00  0.17563556959E+03  0.48840907855E+03  0.45573629953E+03 0.  0.
      99925    2    3    3    0    0 -0.30939310750E+02  0.10276734697E+03  0.69995687467E+02  0.29263966994E+03  0.26309734245E+03 0.  0.
         25    1    4    4    0    0 -0.35123208420E+02  0.38404129976E+02  0.66193173803E-01  0.13548442512E+03  0.12509000000E+03 0.  0.
         25    1    4    4    0    0  0.41838976704E+01  0.64363216995E+02  0.69929494294E+02  0.15715524482E+03  0.12509000000E+03 0.  0.
         25    1    3    3    0    0  0.30939310750E+02 -0.10276734697E+03  0.10563988212E+03  0.19576940861E+03  0.12509000000E+03 0.  0.
<mgrwt>
<rscale>  2 0.45573630E+03</rscale>
<asrwt>0</asrwt>
<pdfrwt beam="1">  1       21 0.48826812E-01 0.45573630E+03</pdfrwt>
<pdfrwt beam="2">  1       21 0.22998052E-01 0.45573630E+03</pdfrwt>
<totfact> 0.65707972E+04</totfact>
</mgrwt>
</event>
<event>
 7    0  0.4766352E-002  0.4506715E+03  0.7546771E-02  0.1027522E+00
         21   -1    0    0  502  501  0.00000000000E+00  0.00000000000E+00  0.47468390582E+03  0.47468390582E+03  0.00000000000E+00 0. -1.
         21   -1    0    0  501  502 -0.00000000000E+00 -0.00000000000E+00 -0.10696846359E+03  0.10696846359E+03  0.00000000000E+00 0. -1.
      99926    2    1    2    0    0  0.88817841970E-15  0.14210854715E-13  0.36771544223E+03  0.58165236940E+03  0.45067153491E+03 0.  0.
      99925    2    3    3    0    0 -0.25729489408E+01  0.10865279117E+03  0.23076352848E+03  0.36667473365E+03  0.26341318327E+03 0.  0.
         25    1    4    4    0    0 -0.18368161136E+02  0.14320774178E+02  0.11075436419E+03  0.16869057829E+03  0.12509000000E+03 0.  0.
         25    1    4    4    0    0  0.15795212195E+02  0.94332016994E+02  0.12000916430E+03  0.19798415536E+03  0.12509000000E+03 0.  0.
         25    1    3    3    0    0  0.25729489408E+01 -0.10865279117E+03  0.13695191375E+03  0.21497763576E+03  0.12509000000E+03 0.  0.
<mgrwt>
<rscale>  2 0.45067153E+03</rscale>
<asrwt>0</asrwt>
<pdfrwt beam="1">  1       21 0.69806456E-01 0.45067153E+03</pdfrwt>
<pdfrwt beam="2">  1       21 0.15730657E-01 0.45067153E+03</pdfrwt>
<totfact> 0.61913554E+04</totfact>
</mgrwt>
</event>
<event>
 7    0  0.4766352E-002  0.4481005E+03  0.7546771E-02  0.1028290E+00
         21   -1    0    0  502  501  0.00000000000E+00  0.00000000000E+00  0.12688142186E+03  0.12688142186E+03  0.00000000000E+00 0.  1.
         21   -1    0    0  501  502 -0.00000000000E+00 -0.00000000000E+00 -0.39563320797E+03  0.39563320797E+03  0.00000000000E+00 0.  1.
      99926    2    1    2    0    0 -0.35527136788E-14  0.14210854715E-13 -0.26875178611E+03  0.52251462983E+03  0.44810045286E+03 0.  0.
      99925    2    3    3    0    0  0.26958489839E+02 -0.95123073336E+02 -0.12395570432E+03  0.30713456424E+03  0.26304270501E+03 0.  0.
         25    1    4    4    0    0 -0.91858735660E+01 -0.15186612122E+02 -0.38527145674E+02  0.13208657205E+03  0.12509000000E+03 0.  0.
         25    1    3    3    0    0 -0.26958489839E+02  0.95123073336E+02 -0.14479608178E+03  0.21538006559E+03  0.12509000000E+03 0.  0.
         25    1    4    4    0    0  0.36144363405E+02 -0.79936461215E+02 -0.85428558651E+02  0.17504799219E+03  0.12509000000E+03 0.  0.
<mgrwt>
<rscale>  2 0.44810045E+03</rscale>
<asrwt>0</asrwt>
<pdfrwt beam="1">  1       21 0.18659033E-01 0.44810045E+03</pdfrwt>
<pdfrwt beam="2">  1       21 0.58181354E-01 0.44810045E+03</pdfrwt>
<totfact> 0.67323034E+04</totfact>
</mgrwt>
</event>
<event>
 7    0  0.4766352E-002  0.5136990E+03  0.7546771E-02  0.1010264E+00
         21   -1    0    0  502  501  0.00000000000E+00  0.00000000000E+00  0.36088949352E+03  0.36088949352E+03  0.00000000000E+00 0.  1.
         21   -1    0    0  501  502 -0.00000000000E+00 -0.00000000000E+00 -0.18280297211E+03  0.18280297211E+03  0.00000000000E+00 0.  1.
      99926    2    1    2    0    0 -0.71054273576E-14  0.28421709430E-13  0.17808652141E+03  0.54369246564E+03  0.51369902480E+03 0.  0.
      99925    2    3    3    0    0  0.62556141124E+02 -0.14828703206E+03  0.86198223122E+02  0.32010069001E+03  0.26292965486E+03 0.  0.
         25    1    4    4    0    0  0.12329088671E+02 -0.52595670421E+02  0.72191288876E+02  0.15419922589E+03  0.12509000000E+03 0.  0.
         25    1    3    3    0    0 -0.62556141124E+02  0.14828703206E+03  0.91888298288E+02  0.22359177563E+03  0.12509000000E+03 0.  0.
         25    1    4    4    0    0  0.50227052453E+02 -0.95691361636E+02  0.14006934246E+02  0.16590146412E+03  0.12509000000E+03 0.  0.
<mgrwt>
<rscale>  2 0.51369902E+03</rscale>
<asrwt>0</asrwt>
<pdfrwt beam="1">  1       21 0.53071985E-01 0.51369902E+03</pdfrwt>
<pdfrwt beam="2">  1       21 0.26882790E-01 0.51369902E+03</pdfrwt>
<totfact> 0.40105164E+04</totfact>
</mgrwt>
</event>
<event>
 6    0  0.4766352E-002  0.4589320E+03  0.7546771E-02  0.1025091E+00
         21   -1    0    0  502  501  0.00000000000E+00  0.00000000000E+00  0.39657256888E+03  0.39657256888E+03  0.00000000000E+00 0. -1.
         21   -1    0    0  501  502 -0.00000000000E+00 -0.00000000000E+00 -0.13277429591E+03  0.13277429591E+03  0.00000000000E+00 0. -1.
      99926    2    1    2    0    0  0.71054273576E-14  0.14210854715E-13  0.26379827297E+03  0.52934686480E+03  0.45893199327E+03 0.  0.
         25    1    3    3    0    0 -0.50458218720E+02 -0.67104403755E+02  0.14052516518E+03  0.20601908404E+03  0.12509000000E+03 0.  0.
         25    1    3    3    0    0  0.20978654065E+02  0.10164228758E+03  0.43839927234E+02  0.16834698058E+03  0.12509000000E+03 0.  0.
         25    1    3    3    0    0  0.29479564656E+02 -0.34537883821E+02  0.79433180552E+02  0.15498080018E+03  0.12509000000E+03 0.  0.
<mgrwt>
<rscale>  2 0.45893199E+03</rscale>
<asrwt>0</asrwt>
<pdfrwt beam="1">  1       21 0.58319495E-01 0.45893199E+03</pdfrwt>
<pdfrwt beam="2">  1       21 0.19525632E-01 0.45893199E+03</pdfrwt>
<totfact> 0.61317241E+04</totfact>
</mgrwt>
</event>
<event>
 7    0  0.4766352E-002  0.4520478E+03  0.7546771E-02  0.1027113E+00
         21   -1    0    0  502  501  0.00000000000E+00  0.00000000000E+00  0.43473054136E+03  0.43473054136E+03  0.00000000000E+00 0.  1.
         21   -1    0    0  501  502 -0.00000000000E+00 -0.00000000000E+00 -0.11751373099E+03  0.11751373099E+03  0.00000000000E+00 0.  1.
      99926    2    1    2    0    0  0.00000000000E+00  0.00000000000E+00  0.31721681037E+03  0.55224427235E+03  0.45204781999E+03 0.  0.
      99925    2    3    3    0    0 -0.88144214894E+02 -0.30351805833E+02  0.12703695333E+03  0.30626353965E+03  0.26261822760E+03 0.  0.
         25    1    4    4    0    0 -0.81475305127E+02 -0.76718653765E+01  0.86278956270E+02  0.17259388535E+03  0.12509000000E+03 0.  0.
         25    1    3    3    0    0  0.88144214894E+02  0.30351805833E+02  0.19017985704E+03  0.24598073270E+03  0.12509000000E+03 0.  0.
         25    1    4    4    0    0 -0.66689097673E+01 -0.22679940457E+02  0.40757997061E+02  0.13366965430E+03  0.12509000000E+03 0.  0.
<mgrwt>
<rscale>  2 0.45204782E+03</rscale>
<asrwt>0</asrwt>
<pdfrwt beam="1">  1       21 0.63930961E-01 0.45204782E+03</pdfrwt>
<pdfrwt beam="2">  1       21 0.17281431E-01 0.45204782E+03</pdfrwt>
<totfact> 0.63181226E+04</totfact>
</mgrwt>
</event>
<event>
 7    0  0.4766352E-002  0.4558541E+03  0.7546771E-02  0.1025991E+00
         21   -1    0    0  502  501  0.00000000000E+00  0.00000000000E+00  0.83761737998E+03  0.83761737998E+03  0.00000000000E+00 0. -1.
         21   -1    0    0  501  502 -0.00000000000E+00 -0.00000000000E+00 -0.62022046815E+02  0.62022046815E+02  0.00000000000E+00 0. -1.
      99926    2    1    2    0    0 -0.35527136788E-14 -0.71054273576E-14  0.77559533316E+03  0.89963942679E+03  0.45585411857E+03 0.  0.
      99925    2    3    3    0    0  0.24625941421E+02  0.41942389178E+02  0.69105974195E+03  0.74102235557E+03  0.26303034713E+03 0.  0.
         25    1    4    4    0    0 -0.95947979381E+01 -0.91334839550E+01  0.37673302810E+03  0.39717850299E+03  0.12509000000E+03 0.  0.
         25    1    3    3    0    0 -0.24625941421E+02 -0.41942389178E+02  0.84535591215E+02  0.15861707122E+03  0.12509000000E+03 0.  0.
         25    1    4    4    0    0  0.34220739359E+02  0.51075873133E+02  0.31432671385E+03  0.34384385258E+03  0.12509000000E+03 0.  0.
<mgrwt>
<rscale>  2 0.45585412E+03</rscale>
<asrwt>0</asrwt>
<pdfrwt beam="1">  1       21 0.12317902E+00 0.45585412E+03</pdfrwt>
<pdfrwt beam="2">  1       21 0.91208897E-02 0.45585412E+03</pdfrwt>
<totfact> 0.42961263E+04</totfact>
</mgrwt>
</event>
<event>
 7    0  0.4766352E-002  0.4532378E+03  0.7546771E-02  0.1026761E+00
         21   -1    0    0  502  501  0.00000000000E+00  0.00000000000E+00  0.11766022159E+03  0.11766022159E+03  0.00000000000E+00 0. -1.
         21   -1    0    0  501  502 -0.00000000000E+00 -0.00000000000E+00 -0.43647821004E+03  0.43647821004E+03  0.00000000000E+00 0. -1.
      99926    2    1    2    0    0  0.00000000000E+00  0.00000000000E+00 -0.31881798846E+03  0.55413843163E+03  0.45323778710E+03 0.  0.
      99925    2    3    3    0    0 -0.78878137382E+02 -0.67897173851E+02 -0.24982935092E+03  0.37739362412E+03  0.26301987790E+03 0.  0.
         25    1    3    3    0    0  0.78878137382E+02  0.67897173851E+02 -0.68988637532E+02  0.17674480751E+03  0.12509000000E+03 0.  0.
         25    1    4    4    0    0 -0.61237376638E+02 -0.35155196726E+02 -0.17697393177E+03  0.22793241275E+03  0.12509000000E+03 0.  0.
         25    1    4    4    0    0 -0.17640760744E+02 -0.32741977125E+02 -0.72855419149E+02  0.14946121137E+03  0.12509000000E+03 0.  0.
<mgrwt>
<rscale>  2 0.45323779E+03</rscale>
<asrwt>0</asrwt>
<pdfrwt beam="1">  1       21 0.17302974E-01 0.45323779E+03</pdfrwt>
<pdfrwt beam="2">  1       21 0.64187972E-01 0.45323779E+03</pdfrwt>
<totfact> 0.62460075E+04</totfact>
</mgrwt>
</event>
<event>
 7    0  0.4766352E-002  0.4560499E+03  0.7546771E-02  0.1025933E+00
         21   -1    0    0  502  501  0.00000000000E+00  0.00000000000E+00  0.41710432258E+03  0.41710432258E+03  0.00000000000E+00 0. -1.
         21   -1    0    0  501  502 -0.00000000000E+00 -0.00000000000E+00 -0.12465794775E+03  0.12465794775E+03  0.00000000000E+00 0. -1.
      99926    2    1    2    0    0  0.00000000000E+00  0.00000000000E+00  0.29244637482E+03  0.54176227033E+03  0.45604986065E+03 0.  0.
      99925    2    3    3    0    0  0.24425922293E+02  0.91074497461E+02  0.10700943746E+03  0.29901640402E+03  0.26280905692E+03 0.  0.
         25    1    4    4    0    0  0.42284565464E+02  0.71048269086E+02  0.43156648464E+02  0.15603155265E+03  0.12509000000E+03 0.  0.
         25    1    4    4    0    0 -0.17858643172E+02  0.20026228375E+02  0.63852788992E+02  0.14298485137E+03  0.12509000000E+03 0.  0.
         25    1    3    3    0    0 -0.24425922293E+02 -0.91074497461E+02  0.18543693737E+03  0.24274586630E+03  0.12509000000E+03 0.  0.
<mgrwt>
<rscale>  2 0.45604986E+03</rscale>
<asrwt>0</asrwt>
<pdfrwt beam="1">  1       21 0.61338870E-01 0.45604986E+03</pdfrwt>
<pdfrwt beam="2">  1       21 0.18332051E-01 0.45604986E+03</pdfrwt>
<totfact> 0.61898306E+04</totfact>
</mgrwt>
</event>
<event>
 7    0  0.4766352E-002  0.4495521E+03  0.7546771E-02  0.1027856E+00
         21   -1    0    0  502  501  0.00000000000E+00  0.00000000000E+00  0.29370032986E+03  0.29370032986E+03  0.00000000000E+00 0. -1.
         21   -1    0    0  501  502 -0.00000000000E+00 -0.00000000000E+00 -0.17202657652E+03  0.17202657652E+03  0.00000000000E+00 0. -1.
      99926    2    1    2    0    0  0.00000000000E+00  0.00000000000E+00  0.12167375335E+03  0.46572690638E+03  0.44955205379E+03 0.  0.
      99925    2    3    3    0    0  0.25493160838E+02 -0.10107606024E+03  0.48261508230E+02  0.28711241358E+03  0.26313132396E+03 0.  0.
         25    1    4    4    0    0  0.42498115674E+02 -0.56135429808E+02 -0.31736610518E+01  0.14357874683E+03  0.12509000000E+03 0.  0.
         25    1    3    3    0    0 -0.25493160838E+02  0.10107606024E+03  0.73412245118E+02  0.17861449280E+03  0.12509000000E+03 0.  0.
         25    1    4    4    0    0 -0.17004954837E+02 -0.44940630437E+02  0.51435169282E+02  0.14353366676E+03  0.12509000000E+03 0.  0.
<mgrwt>
<rscale>  2 0.44955205E+03</rscale>
<asrwt>0</asrwt>
<pdfrwt beam="1">  1       21 0.43191225E-01 0.44955205E+03</pdfrwt>
<pdfrwt beam="2">  1       21 0.25298026E-01 0.44955205E+03</pdfrwt>
<totfact> 0.70764066E+04</totfact>
</mgrwt>
</event>
<event>
 7    0  0.4766352E-002  0.4608823E+03  0.7546771E-02  0.1024526E+00
         21   -1    0    0  502  501  0.00000000000E+00  0.00000000000E+00  0.88837018483E+03  0.88837018483E+03  0.00000000000E+00 0.  1.
         21   -1    0    0  501  502 -0.00000000000E+00 -0.00000000000E+00 -0.59775894408E+02  0.59775894408E+02  0.00000000000E+00 0.  1.
      99926    2    1    2    0    0  0.14210854715E-13 -0.17763568394E-14  0.82859429042E+03  0.94814607923E+03  0.46088229458E+03 0.  0.
      99925    2    3    3    0    0 -0.11766771353E+03  0.13550786884E+02  0.52820640908E+03  0.60186627621E+03  0.26308114567E+03 0.  0.
         25    1    4    4    0    0 -0.87042955896E+02  0.35216498831E+02  0.25697761059E+03  0.30083496873E+03  0.12509000000E+03 0.  0.
         25    1    4    4    0    0 -0.30624757632E+02 -0.21665711947E+02  0.27122879849E+03  0.30103130748E+03  0.12509000000E+03 0.  0.
         25    1    3    3    0    0  0.11766771353E+03 -0.13550786884E+02  0.30038788134E+03  0.34627980303E+03  0.12509000000E+03 0.  0.
<mgrwt>
<rscale>  2 0.46088229E+03</rscale>
<asrwt>0</asrwt>
<pdfrwt beam="1">  1       21 0.13064267E+00 0.46088229E+03</pdfrwt>
<pdfrwt beam="2">  1       21 0.87905732E-02 0.46088229E+03</pdfrwt>
<totfact> 0.39373353E+04</totfact>
</mgrwt>
</event>
<event>
 7    0  0.4766352E-002  0.4501177E+03  0.7546771E-02  0.1027687E+00
         21   -1    0    0  502  501  0.00000000000E+00  0.00000000000E+00  0.33849866285E+03  0.33849866285E+03  0.00000000000E+00 0. -1.
         21   -1    0    0  501  502 -0.00000000000E+00 -0.00000000000E+00 -0.14963572986E+03  0.14963572986E+03  0.00000000000E+00 0. -1.
      99926    2    1    2    0    0 -0.35527136788E-14  0.71054273576E-14  0.18886293299E+03  0.48813439270E+03  0.45011773780E+03 0.  0.
      99925    2    3    3    0    0 -0.31012033621E+02  0.39653367607E+02  0.14679398538E+02  0.26785832145E+03  0.26267557907E+03 0.  0.
         25    1    4    4    0    0 -0.17662716632E+02  0.50914853955E+02 -0.18017131031E+02  0.13739148090E+03  0.12509000000E+03 0.  0.
         25    1    3    3    0    0  0.31012033621E+02 -0.39653367607E+02  0.17418353445E+03  0.22027607125E+03  0.12509000000E+03 0.  0.
         25    1    4    4    0    0 -0.13349316989E+02 -0.11261486347E+02  0.32696529569E+02  0.13046684056E+03  0.12509000000E+03 0.  0.
<mgrwt>
<rscale>  2 0.45011774E+03</rscale>
<asrwt>0</asrwt>
<pdfrwt beam="1">  1       21 0.49779215E-01 0.45011774E+03</pdfrwt>
<pdfrwt beam="2">  1       21 0.22005254E-01 0.45011774E+03</pdfrwt>
<totfact> 0.68738400E+04</totfact>
</mgrwt>
</event>
<event>
 7    0  0.4766352E-002  0.4518707E+03  0.7546771E-02  0.1027166E+00
         21   -1    0    0  502  501  0.00000000000E+00  0.00000000000E+00  0.25402873734E+02  0.25402873734E+02  0.00000000000E+00 0. -1.
         21   -1    0    0  501  502 -0.00000000000E+00 -0.00000000000E+00 -0.20094881982E+04  0.20094881982E+04  0.00000000000E+00 0. -1.
      99926    2    1    2    0    0  0.00000000000E+00  0.00000000000E+00 -0.19840853245E+04  0.20348910720E+04  0.45187066720E+03 0.  0.
      99925    2    3    3    0    0  0.52193219253E+02 -0.64777574146E+02 -0.92674576493E+03  0.96693287121E+03  0.26302318976E+03 0.  0.
         25    1    4    4    0    0 -0.21579562215E+01 -0.35564310028E+02 -0.34509708431E+03  0.36879395687E+03  0.12509000000E+03 0.  0.
         25    1    4    4    0    0  0.54351175475E+02 -0.29213264118E+02 -0.58164868062E+03  0.59813891434E+03  0.12509000000E+03 0.  0.
         25    1    3    3    0    0 -0.52193219253E+02  0.64777574146E+02 -0.10573395596E+04  0.10679582008E+04  0.12509000000E+03 0.  0.
<mgrwt>
<rscale>  2 0.45187067E+03</rscale>
<asrwt>0</asrwt>
<pdfrwt beam="1">  1       21 0.37357160E-02 0.45187067E+03</pdfrwt>
<pdfrwt beam="2">  1       21 0.29551303E+00 0.45187067E+03</pdfrwt>
<totfact> 0.13472690E+04</totfact>
</mgrwt>
</event>
<event>
 7    0  0.4766352E-002  0.4558226E+03  0.7546771E-02  0.1026000E+00
         21   -1    0    0  502  501  0.00000000000E+00  0.00000000000E+00  0.11806821559E+04  0.11806821559E+04  0.00000000000E+00 0.  1.
         21   -1    0    0  501  502 -0.00000000000E+00 -0.00000000000E+00 -0.43994536069E+02  0.43994536069E+02  0.00000000000E+00 0.  1.
      99926    2    1    2    0    0  0.00000000000E+00  0.00000000000E+00  0.11366876199E+04  0.12246766920E+04  0.45582261329E+03 0.  0.
      99925    2    3    3    0    0  0.76163500498E+02 -0.74139463346E+02  0.60381136472E+03  0.66709068946E+03  0.26291497669E+03 0.  0.
         25    1    3    3    0    0 -0.76163500498E+02  0.74139463346E+02  0.53287625516E+03  0.55758600255E+03  0.12509000000E+03 0.  0.
         25    1    4    4    0    0  0.19847811550E+02 -0.53959406515E+02  0.22589830915E+03  0.26454320507E+03  0.12509000000E+03 0.  0.
         25    1    4    4    0    0  0.56315688948E+02 -0.20180056831E+02  0.37791305557E+03  0.40254748439E+03  0.12509000000E+03 0.  0.
<mgrwt>
<rscale>  2 0.45582261E+03</rscale>
<asrwt>0</asrwt>
<pdfrwt beam="1">  1       21 0.17362971E+00 0.45582261E+03</pdfrwt>
<pdfrwt beam="2">  1       21 0.64697855E-02 0.45582261E+03</pdfrwt>
<totfact> 0.31182869E+04</totfact>
</mgrwt>
</event>
<event>
 7    0  0.4766352E-002  0.4511421E+03  0.7546771E-02  0.1027382E+00
         21   -1    0    0  502  501  0.00000000000E+00  0.00000000000E+00  0.49581184563E+03  0.49581184563E+03  0.00000000000E+00 0. -1.
         21   -1    0    0  501  502 -0.00000000000E+00 -0.00000000000E+00 -0.10262419518E+03  0.10262419518E+03  0.00000000000E+00 0. -1.
      99926    2    1    2    0    0  0.00000000000E+00  0.00000000000E+00  0.39318765045E+03  0.59843604081E+03  0.45114206905E+03 0.  0.
      99925    2    3    3    0    0 -0.89442680988E+02 -0.36702488808E+02  0.31648964085E+03  0.42271706447E+03  0.26301512877E+03 0.  0.
         25    1    4    4    0    0 -0.30482321971E+02 -0.55019353765E+02  0.17358315744E+03  0.22301327738E+03  0.12509000000E+03 0.  0.
         25    1    3    3    0    0  0.89442680988E+02  0.36702488808E+02  0.76698009606E+02  0.17571897634E+03  0.12509000000E+03 0.  0.
         25    1    4    4    0    0 -0.58960359018E+02  0.18316864956E+02  0.14290648340E+03  0.19970378709E+03  0.12509000000E+03 0.  0.
<mgrwt>
<rscale>  2 0.45114207E+03</rscale>
<asrwt>0</asrwt>
<pdfrwt beam="1">  1       21 0.72913505E-01 0.45114207E+03</pdfrwt>
<pdfrwt beam="2">  1       21 0.15091794E-01 0.45114207E+03</pdfrwt>
<totfact> 0.60600936E+04</totfact>
</mgrwt>
</event>
<event>
 7    0  0.4766352E-002  0.4561125E+03  0.7546771E-02  0.1025915E+00
         21   -1    0    0  502  501  0.00000000000E+00  0.00000000000E+00  0.37708947556E+02  0.37708947556E+02  0.00000000000E+00 0.  1.
         21   -1    0    0  501  502 -0.00000000000E+00 -0.00000000000E+00 -0.13792389348E+04  0.13792389348E+04  0.00000000000E+00 0.  1.
      99926    2    1    2    0    0  0.71054273576E-14 -0.71054273576E-14 -0.13415299872E+04  0.14169478823E+04  0.45611248024E+03 0.  0.
      99925    2    3    3    0    0 -0.44037150008E+02  0.42553263606E+02 -0.11427947414E+04  0.11742685530E+04  0.26301475800E+03 0.  0.
         25    1    3    3    0    0  0.44037150008E+02 -0.42553263606E+02 -0.19873524586E+03  0.24267932930E+03  0.12509000000E+03 0.  0.
         25    1    4    4    0    0 -0.16788713638E+02  0.38909551711E+02 -0.42203560192E+03  0.44221869195E+03  0.12509000000E+03 0.  0.
         25    1    4    4    0    0 -0.27248436370E+02  0.36437118959E+01 -0.72075913944E+03  0.73204986108E+03  0.12509000000E+03 0.  0.
<mgrwt>
<rscale>  2 0.45611248E+03</rscale>
<asrwt>0</asrwt>
<pdfrwt beam="1">  1       21 0.55454325E-02 0.45611248E+03</pdfrwt>
<pdfrwt beam="2">  1       21 0.20282929E+00 0.45611248E+03</pdfrwt>
<totfact> 0.25661305E+04</totfact>
</mgrwt>
</event>
<event>
 7    0  0.4766352E-002  0.4540314E+03  0.7546771E-02  0.1026527E+00
         21   -1    0    0  502  501  0.00000000000E+00  0.00000000000E+00  0.24170826948E+03  0.24170826948E+03  0.00000000000E+00 0. -1.
         21   -1    0    0  501  502 -0.00000000000E+00 -0.00000000000E+00 -0.21321621353E+03  0.21321621353E+03  0.00000000000E+00 0. -1.
      99926    2    1    2    0    0 -0.35527136788E-14  0.00000000000E+00  0.28492055959E+02  0.45492448301E+03  0.45403137335E+03 0.  0.
      99925    2    3    3    0    0  0.17780809743E+02  0.93596972171E+02  0.77623056777E+02  0.29018859215E+03  0.26288311029E+03 0.  0.
         25    1    3    3    0    0 -0.17780809743E+02 -0.93596972171E+02 -0.49131000818E+02  0.16473589086E+03  0.12509000000E+03 0.  0.
         25    1    4    4    0    0  0.49261437271E+02  0.45059790836E+02  0.40075690149E+02  0.14734531887E+03  0.12509000000E+03 0.  0.
         25    1    4    4    0    0 -0.31480627528E+02  0.48537181335E+02  0.37547366628E+02  0.14284327328E+03  0.12509000000E+03 0.  0.
<mgrwt>
<rscale>  2 0.45403137E+03</rscale>
<asrwt>0</asrwt>
<pdfrwt beam="1">  1       21 0.35545334E-01 0.45403137E+03</pdfrwt>
<pdfrwt beam="2">  1       21 0.31355325E-01 0.45403137E+03</pdfrwt>
<totfact> 0.69083731E+04</totfact>
</mgrwt>
</event>
<event>
 7    0  0.4766352E-002  0.4554406E+03  0.7546771E-02  0.1026112E+00
         21   -1    0    0  502  501  0.00000000000E+00  0.00000000000E+00  0.22464682003E+04  0.22464682003E+04  0.00000000000E+00 0.  1.
         21   -1    0    0  501  502 -0.00000000000E+00 -0.00000000000E+00 -0.23083582998E+02  0.23083582998E+02  0.00000000000E+00 0.  1.
      99926    2    1    2    0    0  0.00000000000E+00 -0.17763568394E-14  0.22233846173E+04  0.22695517833E+04  0.45544060053E+03 0.  0.
      99925    2    3    3    0    0 -0.32527190295E+02 -0.11472927011E+02  0.86058810146E+03  0.90059177736E+03  0.26318058992E+03 0.  0.
         25    1    3    3    0    0  0.32527190295E+02  0.11472927011E+02  0.13627965158E+04  0.13689600059E+04  0.12509000000E+03 0.  0.
         25    1    4    4    0    0 -0.50778539186E+02  0.77435103793E+01  0.38249455161E+03  0.40569448124E+03  0.12509000000E+03 0.  0.
         25    1    4    4    0    0  0.18251348892E+02 -0.19216437390E+02  0.47809354986E+03  0.49489729613E+03  0.12509000000E+03 0.  0.
<mgrwt>
<rscale>  2 0.45544060E+03</rscale>
<asrwt>0</asrwt>
<pdfrwt beam="1">  1       21 0.33036282E+00 0.45544060E+03</pdfrwt>
<pdfrwt beam="2">  1       21 0.33946461E-02 0.45544060E+03</pdfrwt>
<totfact> 0.97534561E+03</totfact>
</mgrwt>
</event>
<event>
 7    0  0.4766352E-002  0.4598541E+03  0.7546771E-02  0.1024824E+00
         21   -1    0    0  502  501  0.00000000000E+00  0.00000000000E+00  0.13554117393E+03  0.13554117393E+03  0.00000000000E+00 0. -1.
         21   -1    0    0  501  502 -0.00000000000E+00 -0.00000000000E+00 -0.39003976288E+03  0.39003976288E+03  0.00000000000E+00 0. -1.
      99926    2    1    2    0    0  0.00000000000E+00  0.00000000000E+00 -0.25449858895E+03  0.52558093681E+03  0.45985409573E+03 0.  0.
      99925    2    3    3    0    0 -0.17777302516E+02 -0.31940470210E+02 -0.31638616954E+02  0.26741374032E+03  0.26300737691E+03 0.  0.
         25    1    4    4    0    0  0.24683774175E+02 -0.10593565394E+02  0.70009688491E+01  0.12813287634E+03  0.12509000000E+03 0.  0.
         25    1    3    3    0    0  0.17777302516E+02  0.31940470210E+02 -0.22285997200E+03  0.25816719649E+03  0.12509000000E+03 0.  0.
         25    1    4    4    0    0 -0.42461076692E+02 -0.21346904816E+02 -0.38639585803E+02  0.13928086398E+03  0.12509000000E+03 0.  0.
<mgrwt>
<rscale>  2 0.45985410E+03</rscale>
<asrwt>0</asrwt>
<pdfrwt beam="1">  1       21 0.19932526E-01 0.45985410E+03</pdfrwt>
<pdfrwt beam="2">  1       21 0.57358788E-01 0.45985410E+03</pdfrwt>
<totfact> 0.61120480E+04</totfact>
</mgrwt>
</event>
<event>
 7    0  0.4766352E-002  0.4564627E+03  0.7546771E-02  0.1025812E+00
         21   -1    0    0  502  501  0.00000000000E+00  0.00000000000E+00  0.22164470208E+03  0.22164470208E+03  0.00000000000E+00 0.  1.
         21   -1    0    0  501  502 -0.00000000000E+00 -0.00000000000E+00 -0.23501370319E+03  0.23501370319E+03  0.00000000000E+00 0.  1.
      99926    2    1    2    0    0  0.00000000000E+00  0.00000000000E+00 -0.13369001102E+02  0.45665840527E+03  0.45646266979E+03 0.  0.
      99925    2    3    3    0    0  0.85045419559E+02  0.70784229878E+02 -0.38702447437E+02  0.28774297616E+03  0.26278320020E+03 0.  0.
         25    1    3    3    0    0 -0.85045419559E+02 -0.70784229878E+02  0.25333446335E+02  0.16891542911E+03  0.12509000000E+03 0.  0.
         25    1    4    4    0    0  0.23665133920E+02 -0.31325744062E+01 -0.19993184136E+02  0.12890728101E+03  0.12509000000E+03 0.  0.
         25    1    4    4    0    0  0.61380285639E+02  0.73916804284E+02 -0.18709263300E+02  0.15883569515E+03  0.12509000000E+03 0.  0.
<mgrwt>
<rscale>  2 0.45646267E+03</rscale>
<asrwt>0</asrwt>
<pdfrwt beam="1">  1       21 0.32594809E-01 0.45646267E+03</pdfrwt>
<pdfrwt beam="2">  1       21 0.34560838E-01 0.45646267E+03</pdfrwt>
<totfact> 0.67631728E+04</totfact>
</mgrwt>
</event>
<event>
 7    0  0.4766352E-002  0.4547811E+03  0.7546771E-02  0.1026306E+00
         21   -1    0    0  502  501  0.00000000000E+00  0.00000000000E+00  0.15387992791E+03  0.15387992791E+03  0.00000000000E+00 0.  1.
         21   -1    0    0  501  502 -0.00000000000E+00 -0.00000000000E+00 -0.33601818846E+03  0.33601818846E+03  0.00000000000E+00 0.  1.
      99926    2    1    2    0    0  0.00000000000E+00  0.14210854715E-13 -0.18213826055E+03  0.48989811637E+03  0.45478106652E+03 0.  0.
      99925    2    3    3    0    0 -0.64254256646E+01 -0.73138669127E+02 -0.22195416799E+02  0.27398199288E+03  0.26302650984E+03 0.  0.
         25    1    4    4    0    0 -0.48066872626E+01 -0.15809532754E+02  0.24755138223E+02  0.12858215481E+03  0.12509000000E+03 0.  0.
         25    1    4    4    0    0 -0.16187384020E+01 -0.57329136373E+02 -0.46950555022E+02  0.14539983806E+03  0.12509000000E+03 0.  0.
         25    1    3    3    0    0  0.64254256646E+01  0.73138669127E+02 -0.15994284375E+03  0.21591612349E+03  0.12509000000E+03 0.  0.
<mgrwt>
<rscale>  2 0.45478107E+03</rscale>
<asrwt>0</asrwt>
<pdfrwt beam="1">  1       21 0.22629401E-01 0.45478107E+03</pdfrwt>
<pdfrwt beam="2">  1       21 0.49414439E-01 0.45478107E+03</pdfrwt>
<totfact> 0.66101153E+04</totfact>
</mgrwt>
</event>
<event>
 7    0  0.4766352E-002  0.4539546E+03  0.7546771E-02  0.1026549E+00
         21   -1    0    0  502  501  0.00000000000E+00  0.00000000000E+00  0.10419315638E+04  0.10419315638E+04  0.00000000000E+00 0. -1.
         21   -1    0    0  501  502 -0.00000000000E+00 -0.00000000000E+00 -0.49445383637E+02  0.49445383637E+02  0.00000000000E+00 0. -1.
      99926    2    1    2    0    0  0.14210854715E-13 -0.14210854715E-13  0.99248618013E+03  0.10913769474E+04  0.45395464925E+03 0.  0.
      99925    2    3    3    0    0  0.96235328109E+02 -0.56863041232E+02  0.65029525876E+03  0.71027751340E+03  0.26289841885E+03 0.  0.
         25    1    3    3    0    0 -0.96235328109E+02  0.56863041232E+02  0.34219092137E+03  0.38109943401E+03  0.12509000000E+03 0.  0.
         25    1    4    4    0    0  0.55865079576E+02 -0.68653675221E+02  0.36954925368E+03  0.40006048697E+03  0.12509000000E+03 0.  0.
         25    1    4    4    0    0  0.40370248534E+02  0.11790633989E+02  0.28074600509E+03  0.31021702643E+03  0.12509000000E+03 0.  0.
<mgrwt>
<rscale>  2 0.45395465E+03</rscale>
<asrwt>0</asrwt>
<pdfrwt beam="1">  1       21 0.15322522E+00 0.45395465E+03</pdfrwt>
<pdfrwt beam="2">  1       21 0.72713806E-02 0.45395465E+03</pdfrwt>
<totfact> 0.36088131E+04</totfact>
</mgrwt>
</event>
<event>
 7    0  0.4766352E-002  0.4539229E+03  0.7546771E-02  0.1026559E+00
         21   -1    0    0  502  501  0.00000000000E+00  0.00000000000E+00  0.31651428302E+03  0.31651428302E+03  0.00000000000E+00 0.  1.
         21   -1    0    0  501  502 -0.00000000000E+00 -0.00000000000E+00 -0.16274623452E+03  0.16274623452E+03  0.00000000000E+00 0.  1.
      99926    2    1    2    0    0 -0.71054273576E-14  0.00000000000E+00  0.15376804850E+03  0.47926051754E+03  0.45392293502E+03 0.  0.
      99925    2    3    3    0    0 -0.43091362458E+02  0.76473434659E+02  0.17062738968E+03  0.32551788451E+03  0.26295082297E+03 0.  0.
         25    1    4    4    0    0  0.14232985607E+02  0.21488661660E+02  0.63234411561E+02  0.14251469877E+03  0.12509000000E+03 0.  0.
         25    1    3    3    0    0  0.43091362458E+02 -0.76473434659E+02 -0.16859341183E+02  0.15374263303E+03  0.12509000000E+03 0.  0.
         25    1    4    4    0    0 -0.57324348065E+02  0.54984772999E+02  0.10739297812E+03  0.18300318574E+03  0.12509000000E+03 0.  0.
<mgrwt>
<rscale>  2 0.45392294E+03</rscale>
<asrwt>0</asrwt>
<pdfrwt beam="1">  1       21 0.46546218E-01 0.45392294E+03</pdfrwt>
<pdfrwt beam="2">  1       21 0.23933270E-01 0.45392294E+03</pdfrwt>
<totfact> 0.67327718E+04</totfact>
</mgrwt>
</event>
<event>
 7    0  0.4766352E-002  0.4546672E+03  0.7546771E-02  0.1026339E+00
         21   -1    0    0  502  501  0.00000000000E+00  0.00000000000E+00  0.73275834252E+02  0.73275834252E+02  0.00000000000E+00 0.  1.
         21   -1    0    0  501  502 -0.00000000000E+00 -0.00000000000E+00 -0.70528793705E+03  0.70528793705E+03  0.00000000000E+00 0.  1.
      99926    2    1    2    0    0  0.14210854715E-13  0.00000000000E+00 -0.63201210280E+03  0.77856377131E+03  0.45466718366E+03 0.  0.
      99925    2    3    3    0    0 -0.70685138903E+02  0.52873388832E+02 -0.27746147085E+03  0.39236998209E+03  0.26301587582E+03 0.  0.
         25    1    4    4    0    0 -0.49390640095E+02  0.13939154389E+02 -0.89039031421E+02  0.16189253402E+03  0.12509000000E+03 0.  0.
         25    1    4    4    0    0 -0.21294498808E+02  0.38934234443E+02 -0.18842243943E+03  0.23047744807E+03  0.12509000000E+03 0.  0.
         25    1    3    3    0    0  0.70685138903E+02 -0.52873388832E+02 -0.35455063196E+03  0.38619378922E+03  0.12509000000E+03 0.  0.
<mgrwt>
<rscale>  2 0.45466718E+03</rscale>
<asrwt>0</asrwt>
<pdfrwt beam="1">  1       21 0.10775858E-01 0.45466718E+03</pdfrwt>
<pdfrwt beam="2">  1       21 0.10371882E+00 0.45466718E+03</pdfrwt>
<totfact> 0.48946909E+04</totfact>
</mgrwt>
</event>
<event>
 7    0  0.4766352E-002  0.4510762E+03  0.7546771E-02  0.1027402E+00
         21   -1    0    0  502  501  0.00000000000E+00  0.00000000000E+00  0.24112139343E+03  0.24112139343E+03  0.00000000000E+00 0. -1.
         21   -1    0    0  501  502 -0.00000000000E+00 -0.00000000000E+00 -0.21096191188E+03  0.21096191188E+03  0.00000000000E+00 0. -1.
      99926    2    1    2    0    0  0.00000000000E+00  0.00000000000E+00  0.30159481556E+02  0.45208330531E+03  0.45107618050E+03 0.  0.
      99925    2    3    3    0    0  0.82643851530E+02 -0.55818865386E+02  0.64100173318E+02  0.28854361415E+03  0.26306431365E+03 0.  0.
         25    1    4    4    0    0  0.14133258238E+02 -0.22152395253E+02 -0.18768576404E+01  0.12783390903E+03  0.12509000000E+03 0.  0.
         25    1    3    3    0    0 -0.82643851530E+02  0.55818865386E+02 -0.33940691762E+02  0.16353969116E+03  0.12509000000E+03 0.  0.
         25    1    4    4    0    0  0.68510593292E+02 -0.33666470132E+02  0.65977030958E+02  0.16070970512E+03  0.12509000000E+03 0.  0.
<mgrwt>
<rscale>  2 0.45107618E+03</rscale>
<asrwt>0</asrwt>
<pdfrwt beam="1">  1       21 0.35459029E-01 0.45107618E+03</pdfrwt>
<pdfrwt beam="2">  1       21 0.31023810E-01 0.45107618E+03</pdfrwt>
<totfact> 0.70955576E+04</totfact>
</mgrwt>
</event>
<event>
 7    0  0.4766352E-002  0.4598083E+03  0.7546771E-02  0.1024837E+00
         21   -1    0    0  502  501  0.00000000000E+00  0.00000000000E+00  0.15250476819E+04  0.15250476819E+04  0.00000000000E+00 0.  1.
         21   -1    0    0  501  502 -0.00000000000E+00 -0.00000000000E+00 -0.34658527487E+02  0.34658527487E+02  0.00000000000E+00 0.  1.
      99926    2    1    2    0    0  0.00000000000E+00  0.00000000000E+00  0.14903891544E+04  0.15597062094E+04  0.45980825135E+03 0.  0.
      99925    2    3    3    0    0  0.63232975906E+02  0.35581927693E+02  0.12476567751E+04  0.12771624095E+04  0.26311957131E+03 0.  0.
         25    1    4    4    0    0  0.34386212548E+02 -0.17976896582E+02  0.69781091353E+03  0.70999518277E+03  0.12509000000E+03 0.  0.
         25    1    3    3    0    0 -0.63232975906E+02 -0.35581927693E+02  0.24273237928E+03  0.28254379992E+03  0.12509000000E+03 0.  0.
         25    1    4    4    0    0  0.28846763358E+02  0.53558824276E+02  0.54984586161E+03  0.56716722670E+03  0.12509000000E+03 0.  0.
<mgrwt>
<rscale>  2 0.45980825E+03</rscale>
<asrwt>0</asrwt>
<pdfrwt beam="1">  1       21 0.22427167E+00 0.45980825E+03</pdfrwt>
<pdfrwt beam="2">  1       21 0.50968433E-02 0.45980825E+03</pdfrwt>
<totfact> 0.21537520E+04</totfact>
</mgrwt>
</event>
<event>
 7    0  0.4766352E-002  0.4523728E+03  0.7546771E-02  0.1027017E+00
         21   -1    0    0  502  501  0.00000000000E+00  0.00000000000E+00  0.58796939140E+03  0.58796939140E+03  0.00000000000E+00 0. -1.
         21   -1    0    0  501  502 -0.00000000000E+00 -0.00000000000E+00 -0.87011815519E+02  0.87011815519E+02  0.00000000000E+00 0. -1.
      99926    2    1    2    0    0  0.00000000000E+00  0.00000000000E+00  0.50095757588E+03  0.67498120692E+03  0.45237278528E+03 0.  0.
      99925    2    3    3    0    0 -0.74455831010E+02  0.76421718186E+02  0.35774757927E+03  0.45694322626E+03  0.26349541128E+03 0.  0.
         25    1    4    4    0    0 -0.14042587311E+02  0.69606635942E+02  0.15956319597E+03  0.21482597523E+03  0.12509000000E+03 0.  0.
         25    1    3    3    0    0  0.74455831010E+02 -0.76421718186E+02  0.14320999661E+03  0.21803798066E+03  0.12509000000E+03 0.  0.
         25    1    4    4    0    0 -0.60413243699E+02  0.68150822443E+01  0.19818438330E+03  0.24211725103E+03  0.12509000000E+03 0.  0.
<mgrwt>
<rscale>  2 0.45237279E+03</rscale>
<asrwt>0</asrwt>
<pdfrwt beam="1">  1       21 0.86466085E-01 0.45237279E+03</pdfrwt>
<pdfrwt beam="2">  1       21 0.12795856E-01 0.45237279E+03</pdfrwt>
<totfact> 0.55420959E+04</totfact>
</mgrwt>
</event>
<event>
 7    0  0.4766352E-002  0.4612777E+03  0.7546771E-02  0.1024411E+00
         21   -1    0    0  502  501  0.00000000000E+00  0.00000000000E+00  0.98669901391E+02  0.98669901391E+02  0.00000000000E+00 0.  1.
         21   -1    0    0  501  502 -0.00000000000E+00 -0.00000000000E+00 -0.53911355383E+03  0.53911355383E+03  0.00000000000E+00 0.  1.
      99926    2    1    2    0    0  0.00000000000E+00 -0.17763568394E-14 -0.44044365244E+03  0.63778345522E+03  0.46127770896E+03 0.  0.
      99925    2    3    3    0    0 -0.11459983028E+03  0.83901884849E+01 -0.23306709055E+03  0.36972364308E+03  0.26300529880E+03 0.  0.
         25    1    3    3    0    0  0.11459983028E+03 -0.83901884849E+01 -0.20737656189E+03  0.26805981214E+03  0.12509000000E+03 0.  0.
         25    1    4    4    0    0 -0.74330537814E+02  0.41841761808E+02 -0.12390028731E+03  0.19563882840E+03  0.12509000000E+03 0.  0.
         25    1    4    4    0    0 -0.40269292464E+02 -0.33451573324E+02 -0.10916680324E+03  0.17408481468E+03  0.12509000000E+03 0.  0.
<mgrwt>
<rscale>  2 0.46127771E+03</rscale>
<asrwt>0</asrwt>
<pdfrwt beam="1">  1       21 0.14510280E-01 0.46127771E+03</pdfrwt>
<pdfrwt beam="2">  1       21 0.79281403E-01 0.46127771E+03</pdfrwt>
<totfact> 0.53700284E+04</totfact>
</mgrwt>
</event>
<event>
 7    0  0.4766352E-002  0.4560072E+03  0.7546771E-02  0.1025946E+00
         21   -1    0    0  502  501  0.00000000000E+00  0.00000000000E+00  0.27425220898E+03  0.27425220898E+03  0.00000000000E+00 0. -1.
         21   -1    0    0  501  502 -0.00000000000E+00 -0.00000000000E+00 -0.18955413472E+03  0.18955413472E+03  0.00000000000E+00 0. -1.
      99926    2    1    2    0    0 -0.15543122345E-14  0.00000000000E+00  0.84698074262E+02  0.46380634370E+03  0.45600719366E+03 0.  0.
      99925    2    3    3    0    0  0.12074158492E+01  0.92993061989E+02  0.12058557931E+03  0.30385451173E+03  0.26294013564E+03 0.  0.
         25    1    4    4    0    0 -0.13909383693E+02  0.21557365135E+02  0.88887505905E+02  0.15558498563E+03  0.12509000000E+03 0.  0.
         25    1    4    4    0    0  0.15116799543E+02  0.71435696854E+02  0.31698073410E+02  0.14826952610E+03  0.12509000000E+03 0.  0.
         25    1    3    3    0    0 -0.12074158492E+01 -0.92993061989E+02 -0.35887505053E+02  0.15995183197E+03  0.12509000000E+03 0.  0.
<mgrwt>
<rscale>  2 0.45600719E+03</rscale>
<asrwt>0</asrwt>
<pdfrwt beam="1">  1       21 0.40331207E-01 0.45600719E+03</pdfrwt>
<pdfrwt beam="2">  1       21 0.27875608E-01 0.45600719E+03</pdfrwt>
<totfact> 0.67357932E+04</totfact>
</mgrwt>
</event>
<event>
 7    0  0.4766352E-002  0.4560690E+03  0.7546771E-02  0.1025928E+00
         21   -1    0    0  502  501  0.00000000000E+00  0.00000000000E+00  0.47582034156E+03  0.47582034156E+03  0.00000000000E+00 0.  1.
         21   -1    0    0  501  502 -0.00000000000E+00 -0.00000000000E+00 -0.10928437633E+03  0.10928437633E+03  0.00000000000E+00 0.  1.
      99926    2    1    2    0    0  0.16653345369E-14  0.00000000000E+00  0.36653596523E+03  0.58510471789E+03  0.45606898282E+03 0.  0.
      99925    2    3    3    0    0 -0.61925406881E+00  0.10554431616E+03  0.28627789402E+03  0.40281688987E+03  0.26299511024E+03 0.  0.
         25    1    4    4    0    0 -0.24521407947E+02  0.84903480022E+02  0.17381227944E+03  0.23166380156E+03  0.12509000000E+03 0.  0.
         25    1    3    3    0    0  0.61925406881E+00 -0.10554431616E+03  0.80258071213E+02  0.18228782802E+03  0.12509000000E+03 0.  0.
         25    1    4    4    0    0  0.23902153879E+02  0.20640836141E+02  0.11246561457E+03  0.17115308831E+03  0.12509000000E+03 0.  0.
<mgrwt>
<rscale>  2 0.45606898E+03</rscale>
<asrwt>0</asrwt>
<pdfrwt beam="1">  1       21 0.69973579E-01 0.45606898E+03</pdfrwt>
<pdfrwt beam="2">  1       21 0.16071232E-01 0.45606898E+03</pdfrwt>
<totfact> 0.59103600E+04</totfact>
</mgrwt>
</event>
<event>
 7    0  0.4766352E-002  0.4575818E+03  0.7546771E-02  0.1025485E+00
         21   -1    0    0  502  501  0.00000000000E+00  0.00000000000E+00  0.20242312274E+03  0.20242312274E+03  0.00000000000E+00 0. -1.
         21   -1    0    0  501  502 -0.00000000000E+00 -0.00000000000E+00 -0.25859334901E+03  0.25859334901E+03  0.00000000000E+00 0. -1.
      99926    2    1    2    0    0 -0.14210854715E-13  0.00000000000E+00 -0.56170226263E+02  0.46101647175E+03  0.45758178821E+03 0.  0.
      99925    2    3    3    0    0 -0.90388520425E+02  0.71967472025E+02 -0.35811532398E+02  0.28951899022E+03  0.26303873896E+03 0.  0.
         25    1    4    4    0    0 -0.66374934502E+02  0.54406638777E+02  0.12380440524E+02  0.15220544563E+03  0.12509000000E+03 0.  0.
         25    1    3    3    0    0  0.90388520425E+02 -0.71967472025E+02 -0.20358693865E+02  0.17149748153E+03  0.12509000000E+03 0.  0.
         25    1    4    4    0    0 -0.24013585923E+02  0.17560833248E+02 -0.48191972921E+02  0.13731354459E+03  0.12509000000E+03 0.  0.
<mgrwt>
<rscale>  2 0.45758179E+03</rscale>
<asrwt>0</asrwt>
<pdfrwt beam="1">  1       21 0.29768107E-01 0.45758179E+03</pdfrwt>
<pdfrwt beam="2">  1       21 0.38028433E-01 0.45758179E+03</pdfrwt>
<totfact> 0.66722116E+04</totfact>
</mgrwt>
</event>
<event>
 7    0  0.4766352E-002  0.4566564E+03  0.7546771E-02  0.1025755E+00
         21   -1    0    0  502  501  0.00000000000E+00  0.00000000000E+00  0.51189164975E+03  0.51189164975E+03  0.00000000000E+00 0. -1.
         21   -1    0    0  501  502 -0.00000000000E+00 -0.00000000000E+00 -0.10184530833E+03  0.10184530833E+03  0.00000000000E+00 0. -1.
      99926    2    1    2    0    0 -0.71054273576E-14 -0.14210854715E-13  0.41004634142E+03  0.61373695809E+03  0.45665638243E+03 0.  0.
      99925    2    3    3    0    0 -0.42450956857E+02 -0.10601355187E+03  0.24421336274E+03  0.37669467950E+03  0.26309267969E+03 0.  0.
         25    1    4    4    0    0 -0.33555669512E+02 -0.79574316786E+02  0.91868457887E+02  0.17761018130E+03  0.12509000000E+03 0.  0.
         25    1    3    3    0    0  0.42450956857E+02  0.10601355187E+03  0.16583297868E+03  0.23704227858E+03  0.12509000000E+03 0.  0.
         25    1    4    4    0    0 -0.88952873449E+01 -0.26439235084E+02  0.15234490485E+03  0.19908449820E+03  0.12509000000E+03 0.  0.
<mgrwt>
<rscale>  2 0.45665638E+03</rscale>
<asrwt>0</asrwt>
<pdfrwt beam="1">  1       21 0.75278183E-01 0.45665638E+03</pdfrwt>
<pdfrwt beam="2">  1       21 0.14977251E-01 0.45665638E+03</pdfrwt>
<totfact> 0.57090050E+04</totfact>
</mgrwt>
</event>
<event>
 7    0  0.4766352E-002  0.4548489E+03  0.7546771E-02  0.1026286E+00
         21   -1    0    0  502  501  0.00000000000E+00  0.00000000000E+00  0.48382580018E+02  0.48382580018E+02  0.00000000000E+00 0. -1.
         21   -1    0    0  501  502 -0.00000000000E+00 -0.00000000000E+00 -0.10690186470E+04  0.10690186470E+04  0.00000000000E+00 0. -1.
      99926    2    1    2    0    0  0.00000000000E+00  0.88817841970E-15 -0.10206360670E+04  0.11174012270E+04  0.45484889899E+03 0.  0.
      99925    2    3    3    0    0  0.10242065370E+03  0.34236534115E+01 -0.52613270469E+03  0.59712937968E+03  0.26314665385E+03 0.  0.
         25    1    4    4    0    0  0.60779224983E+02 -0.32708429652E+02 -0.22662158058E+03  0.26789700343E+03  0.12509000000E+03 0.  0.
         25    1    4    4    0    0  0.41641428721E+02  0.36132083063E+02 -0.29951112410E+03  0.32923237625E+03  0.12509000000E+03 0.  0.
         25    1    3    3    0    0 -0.10242065370E+03 -0.34236534115E+01 -0.49450336227E+03  0.52027184731E+03  0.12509000000E+03 0.  0.
<mgrwt>
<rscale>  2 0.45484890E+03</rscale>
<asrwt>0</asrwt>
<pdfrwt beam="1">  1       21 0.71150856E-02 0.45484890E+03</pdfrwt>
<pdfrwt beam="2">  1       21 0.15720862E+00 0.45484890E+03</pdfrwt>
<totfact> 0.34930699E+04</totfact>
</mgrwt>
</event>
<event>
 7    0  0.4766352E-002  0.4513760E+03  0.7546771E-02  0.1027313E+00
         21   -1    0    0  502  501  0.00000000000E+00  0.00000000000E+00  0.76223279745E+03  0.76223279745E+03  0.00000000000E+00 0. -1.
         21   -1    0    0  501  502 -0.00000000000E+00 -0.00000000000E+00 -0.66823503732E+02  0.66823503732E+02  0.00000000000E+00 0. -1.
      99926    2    1    2    0    0 -0.13322676296E-14  0.71054273576E-14  0.69540929372E+03  0.82905630118E+03  0.45137596828E+03 0.  0.
      99925    2    3    3    0    0 -0.24205965249E+01  0.34906255726E+02  0.24810430062E+03  0.36327355040E+03  0.26303540153E+03 0.  0.
         25    1    3    3    0    0  0.24205965249E+01 -0.34906255726E+02  0.44730499310E+03  0.46578275079E+03  0.12509000000E+03 0.  0.
         25    1    4    4    0    0 -0.34458503315E+02  0.41009049803E+02  0.12613222570E+03  0.18554238620E+03  0.12509000000E+03 0.  0.
         25    1    4    4    0    0  0.32037906790E+02 -0.61027940766E+01  0.12197207491E+03  0.17773116419E+03  0.12509000000E+03 0.  0.
<mgrwt>
<rscale>  2 0.45137597E+03</rscale>
<asrwt>0</asrwt>
<pdfrwt beam="1">  1       21 0.11209305E+00 0.45137597E+03</pdfrwt>
<pdfrwt beam="2">  1       21 0.98269863E-02 0.45137597E+03</pdfrwt>
<totfact> 0.47734180E+04</totfact>
</mgrwt>
</event>
<event>
 7    0  0.4766352E-002  0.4504397E+03  0.7546771E-02  0.1027591E+00
         21   -1    0    0  502  501  0.00000000000E+00  0.00000000000E+00  0.86845470663E+03  0.86845470663E+03  0.00000000000E+00 0.  1.
         21   -1    0    0  501  502 -0.00000000000E+00 -0.00000000000E+00 -0.58407164567E+02  0.58407164567E+02  0.00000000000E+00 0.  1.
      99926    2    1    2    0    0 -0.14210854715E-13 -0.66613381478E-15  0.81004754206E+03  0.92686187119E+03  0.45043968284E+03 0.  0.
      99925    2    3    3    0    0  0.66412504036E+02  0.18639608762E+01  0.68923098144E+03  0.74069462256E+03  0.26301156453E+03 0.  0.
         25    1    4    4    0    0  0.20893139405E+02 -0.13864581193E+02  0.43459201458E+03  0.45293098495E+03  0.12509000000E+03 0.  0.
         25    1    4    4    0    0  0.45519364631E+02  0.15728542069E+02  0.25463896686E+03  0.28776363762E+03  0.12509000000E+03 0.  0.
         25    1    3    3    0    0 -0.66412504036E+02 -0.18639608762E+01  0.12081656062E+03  0.18616724863E+03  0.12509000000E+03 0.  0.
<mgrwt>
<rscale>  2 0.45043968E+03</rscale>
<asrwt>0</asrwt>
<pdfrwt beam="1">  1       21 0.12771392E+00 0.45043968E+03</pdfrwt>
<pdfrwt beam="2">  1       21 0.85892894E-02 0.45043968E+03</pdfrwt>
<totfact> 0.43627776E+04</totfact>
</mgrwt>
</event>
<event>
 7    0  0.4766352E-002  0.4858356E+03  0.7546771E-02  0.1017544E+00
         21   -1    0    0  502  501  0.00000000000E+00  0.00000000000E+00  0.17241059858E+03  0.17241059858E+03  0.00000000000E+00 0.  1.
         21   -1    0    0  501  502 -0.00000000000E+00 -0.00000000000E+00 -0.34225882288E+03  0.34225882288E+03  0.00000000000E+00 0.  1.
      99926    2    1    2    0    0  0.00000000000E+00 -0.35527136788E-14 -0.16984822430E+03  0.51466942145E+03  0.48583556280E+03 0.  0.
      99925    2    3    3    0    0 -0.77369317068E+02 -0.14279534104E+02 -0.22701538013E+03  0.35622224375E+03  0.26299883613E+03 0.  0.
         25    1    4    4    0    0 -0.59211324599E+02  0.27820442478E+02 -0.12210098396E+03  0.18664435797E+03  0.12509000000E+03 0.  0.
         25    1    4    4    0    0 -0.18157992469E+02 -0.42099976582E+02 -0.10491439617E+03  0.16957788577E+03  0.12509000000E+03 0.  0.
         25    1    3    3    0    0  0.77369317068E+02  0.14279534104E+02  0.57167155827E+02  0.15844717771E+03  0.12509000000E+03 0.  0.
<mgrwt>
<rscale>  2 0.48583556E+03</rscale>
<asrwt>0</asrwt>
<pdfrwt beam="1">  1       21 0.25354500E-01 0.48583556E+03</pdfrwt>
<pdfrwt beam="2">  1       21 0.50332179E-01 0.48583556E+03</pdfrwt>
<totfact> 0.50667206E+04</totfact>
</mgrwt>
</event>
<event>
 7    0  0.4766352E-002  0.4615798E+03  0.7546771E-02  0.1024324E+00
         21   -1    0    0  502  501  0.00000000000E+00  0.00000000000E+00  0.31272250077E+03  0.31272250077E+03  0.00000000000E+00 0. -1.
         21   -1    0    0  501  502 -0.00000000000E+00 -0.00000000000E+00 -0.17032346374E+03  0.17032346374E+03  0.00000000000E+00 0. -1.
      99926    2    1    2    0    0  0.17763568394E-14  0.14210854715E-13  0.14239903703E+03  0.48304596452E+03  0.46157980685E+03 0.  0.
      99925    2    3    3    0    0  0.12771365070E+02  0.10258861725E+03  0.27011479833E+02  0.28392457287E+03  0.26305134647E+03 0.  0.
         25    1    4    4    0    0 -0.19247863434E+02  0.31388510875E+02 -0.13267827868E+02  0.13106968459E+03  0.12509000000E+03 0.  0.
         25    1    4    4    0    0  0.32019228504E+02  0.71200106379E+02  0.40279307701E+02  0.15285488828E+03  0.12509000000E+03 0.  0.
         25    1    3    3    0    0 -0.12771365070E+02 -0.10258861725E+03  0.11538755720E+03  0.19912139165E+03  0.12509000000E+03 0.  0.
<mgrwt>
<rscale>  2 0.46157981E+03</rscale>
<asrwt>0</asrwt>
<pdfrwt beam="1">  1       21 0.45988603E-01 0.46157981E+03</pdfrwt>
<pdfrwt beam="2">  1       21 0.25047568E-01 0.46157981E+03</pdfrwt>
<totfact> 0.63117721E+04</totfact>
</mgrwt>
</event>
<event>
 7    0  0.4766352E-002  0.4487729E+03  0.7546771E-02  0.1028089E+00
         21   -1    0    0  502  501  0.00000000000E+00  0.00000000000E+00  0.15323478805E+04  0.15323478805E+04  0.00000000000E+00 0. -1.
         21   -1    0    0  501  502 -0.00000000000E+00 -0.00000000000E+00 -0.32857607298E+02  0.32857607298E+02  0.00000000000E+00 0. -1.
      99926    2    1    2    0    0 -0.71054273576E-14 -0.14210854715E-13  0.14994902732E+04  0.15652054878E+04  0.44877292655E+03 0.  0.
      99925    2    3    3    0    0 -0.45352839057E+02 -0.94378822853E+02  0.87364292697E+03  0.91844691530E+03  0.26330311462E+03 0.  0.
         25    1    3    3    0    0  0.45352839057E+02  0.94378822853E+02  0.62584734627E+03  0.64675857254E+03  0.12509000000E+03 0.  0.
         25    1    4    4    0    0 -0.18022141020E+02 -0.13317130884E+02  0.48302812555E+03  0.49946553606E+03  0.12509000000E+03 0.  0.
         25    1    4    4    0    0 -0.27330698037E+02 -0.81061691969E+02  0.39061480142E+03  0.41898137924E+03  0.12509000000E+03 0.  0.
<mgrwt>
<rscale>  2 0.44877293E+03</rscale>
<asrwt>0</asrwt>
<pdfrwt beam="1">  1       21 0.22534523E+00 0.44877293E+03</pdfrwt>
<pdfrwt beam="2">  1       21 0.48320021E-02 0.44877293E+03</pdfrwt>
<totfact> 0.23333557E+04</totfact>
</mgrwt>
</event>
<event>
 7    0  0.4766352E-002  0.4438485E+03  0.7546771E-02  0.1029573E+00
         21   -1    0    0  502  501  0.00000000000E+00  0.00000000000E+00  0.57787962626E+02  0.57787962626E+02  0.00000000000E+00 0.  1.
         21   -1    0    0  501  502 -0.00000000000E+00 -0.00000000000E+00 -0.85225995187E+03  0.85225995187E+03  0.00000000000E+00 0.  1.
      99926    2    1    2    0    0  0.14210854715E-13  0.00000000000E+00 -0.79447198924E+03  0.91004791449E+03  0.44384847075E+03 0.  0.
      99925    2    3    3    0    0 -0.96021577811E+02  0.34923942680E+02 -0.49516074583E+03  0.56993829435E+03  0.26306970556E+03 0.  0.
         25    1    4    4    0    0 -0.45948939385E+02  0.35621756465E+02 -0.17685673453E+03  0.22429005152E+03  0.12509000000E+03 0.  0.
         25    1    4    4    0    0 -0.50072638426E+02 -0.69781378531E+00 -0.31830401130E+03  0.34564824283E+03  0.12509000000E+03 0.  0.
         25    1    3    3    0    0  0.96021577811E+02 -0.34923942680E+02 -0.29931124342E+03  0.34010962014E+03  0.12509000000E+03 0.  0.
<mgrwt>
<rscale>  2 0.44384847E+03</rscale>
<asrwt>0</asrwt>
<pdfrwt beam="1">  1       21 0.84982306E-02 0.44384847E+03</pdfrwt>
<pdfrwt beam="2">  1       21 0.12533233E+00 0.44384847E+03</pdfrwt>
<totfact> 0.46749591E+04</totfact>
</mgrwt>
</event>
<event>
 7    0  0.4766352E-002  0.4502948E+03  0.7546771E-02  0.1027634E+00
         21   -1    0    0  502  501  0.00000000000E+00  0.00000000000E+00  0.24535687568E+02  0.24535687568E+02  0.00000000000E+00 0.  1.
         21   -1    0    0  501  502 -0.00000000000E+00 -0.00000000000E+00 -0.20660249549E+04  0.20660249549E+04  0.00000000000E+00 0.  1.
      99926    2    1    2    0    0 -0.71054273576E-14  0.00000000000E+00 -0.20414892674E+04  0.20905606425E+04  0.45029476036E+03 0.  0.
      99925    2    3    3    0    0 -0.52270492947E+02 -0.78618843699E+02 -0.15403854544E+04  0.15655219140E+04  0.26297982410E+03 0.  0.
         25    1    4    4    0    0  0.12048727435E+01 -0.28071442483E+02 -0.88664367027E+03  0.89586492493E+03  0.12509000000E+03 0.  0.
         25    1    3    3    0    0  0.52270492947E+02  0.78618843699E+02 -0.50110381291E+03  0.52503872850E+03  0.12509000000E+03 0.  0.
         25    1    4    4    0    0 -0.53475365691E+02 -0.50547401216E+02 -0.65374178418E+03  0.66965698905E+03  0.12509000000E+03 0.  0.
<mgrwt>
<rscale>  2 0.45029476E+03</rscale>
<asrwt>0</asrwt>
<pdfrwt beam="1">  1       21 0.36081911E-02 0.45029476E+03</pdfrwt>
<pdfrwt beam="2">  1       21 0.30382705E+00 0.45029476E+03</pdfrwt>
<totfact> 0.12746391E+04</totfact>
</mgrwt>
</event>
<event>
 7    0  0.4766352E-002  0.4543164E+03  0.7546771E-02  0.1026443E+00
         21   -1    0    0  502  501  0.00000000000E+00  0.00000000000E+00  0.29102156025E+03  0.29102156025E+03  0.00000000000E+00 0.  1.
         21   -1    0    0  501  502 -0.00000000000E+00 -0.00000000000E+00 -0.17730934272E+03  0.17730934272E+03  0.00000000000E+00 0.  1.
      99926    2    1    2    0    0  0.00000000000E+00  0.00000000000E+00  0.11371221753E+03  0.46833090297E+03  0.45431637243E+03 0.  0.
      99925    2    3    3    0    0 -0.43207842924E+02 -0.77713566514E+01 -0.35242954676E+02  0.26892562946E+03  0.26296694974E+03 0.  0.
         25    1    3    3    0    0  0.43207842924E+02  0.77713566514E+01  0.14895517220E+03  0.19940527350E+03  0.12509000000E+03 0.  0.
         25    1    4    4    0    0 -0.25273871849E+02  0.35728702003E+02 -0.25225636782E+02  0.13490422379E+03  0.12509000000E+03 0.  0.
         25    1    4    4    0    0 -0.17933971075E+02 -0.43500058655E+02 -0.10017317894E+02  0.13402140568E+03  0.12509000000E+03 0.  0.
<mgrwt>
<rscale>  2 0.45431637E+03</rscale>
<asrwt>0</asrwt>
<pdfrwt beam="1">  1       21 0.42797288E-01 0.45431637E+03</pdfrwt>
<pdfrwt beam="2">  1       21 0.26074903E-01 0.45431637E+03</pdfrwt>
<totfact> 0.67927725E+04</totfact>
</mgrwt>
</event>
<event>
 7    0  0.4766352E-002  0.4527346E+03  0.7546771E-02  0.1026910E+00
         21   -1    0    0  502  501  0.00000000000E+00  0.00000000000E+00  0.28801683752E+02  0.28801683752E+02  0.00000000000E+00 0.  1.
         21   -1    0    0  501  502 -0.00000000000E+00 -0.00000000000E+00 -0.17791373594E+04  0.17791373594E+04  0.00000000000E+00 0.  1.
      99926    2    1    2    0    0 -0.71054273576E-14 -0.14210854715E-13 -0.17503356757E+04  0.18079390432E+04  0.45273458705E+03 0.  0.
      99925    2    3    3    0    0 -0.58914461886E+02 -0.94069755905E+02 -0.11024223336E+04  0.11387908983E+04  0.26303930455E+03 0.  0.
         25    1    4    4    0    0 -0.17732072704E+01 -0.54222813851E+02 -0.42248361554E+03  0.44394050424E+03  0.12509000000E+03 0.  0.
         25    1    3    3    0    0  0.58914461886E+02  0.94069755905E+02 -0.64791334209E+03  0.66914814484E+03  0.12509000000E+03 0.  0.
         25    1    4    4    0    0 -0.57141254615E+02 -0.39846942054E+02 -0.67993871805E+03  0.69485039410E+03  0.12509000000E+03 0.  0.
<mgrwt>
<rscale>  2 0.45273459E+03</rscale>
<asrwt>0</asrwt>
<pdfrwt beam="1">  1       21 0.42355414E-02 0.45273459E+03</pdfrwt>
<pdfrwt beam="2">  1       21 0.26163787E+00 0.45273459E+03</pdfrwt>
<totfact> 0.17411634E+04</totfact>
</mgrwt>
</event>
<event>
 7    0  0.4766352E-002  0.4559674E+03  0.7546771E-02  0.1025957E+00
         21   -1    0    0  502  501  0.00000000000E+00  0.00000000000E+00  0.11183949721E+04  0.11183949721E+04  0.00000000000E+00 0. -1.
         21   -1    0    0  501  502 -0.00000000000E+00 -0.00000000000E+00 -0.46474246876E+02  0.46474246876E+02  0.00000000000E+00 0. -1.
      99926    2    1    2    0    0  0.00000000000E+00  0.00000000000E+00  0.10719207252E+04  0.11648692189E+04  0.45596738496E+03 0.  0.
      99925    2    3    3    0    0 -0.75969579258E+02  0.46990410558E+02  0.49267038423E+03  0.56557134538E+03  0.26299688887E+03 0.  0.
         25    1    4    4    0    0 -0.74815834868E+02  0.16388035076E+02  0.29826787896E+03  0.33238112546E+03  0.12509000000E+03 0.  0.
         25    1    4    4    0    0 -0.11537443902E+01  0.30602375482E+02  0.19440250527E+03  0.23319021992E+03  0.12509000000E+03 0.  0.
         25    1    3    3    0    0  0.75969579258E+02 -0.46990410558E+02  0.57925034096E+03  0.59929787356E+03  0.12509000000E+03 0.  0.
<mgrwt>
<rscale>  2 0.45596738E+03</rscale>
<asrwt>0</asrwt>
<pdfrwt beam="1">  1       21 0.16446983E+00 0.45596738E+03</pdfrwt>
<pdfrwt beam="2">  1       21 0.68344488E-02 0.45596738E+03</pdfrwt>
<totfact> 0.33040008E+04</totfact>
</mgrwt>
</event>
<event>
 7    0  0.4766352E-002  0.4533588E+03  0.7546771E-02  0.1026725E+00
         21   -1    0    0  502  501  0.00000000000E+00  0.00000000000E+00  0.42836830643E+02  0.42836830643E+02  0.00000000000E+00 0. -1.
         21   -1    0    0  501  502 -0.00000000000E+00 -0.00000000000E+00 -0.11995180364E+04  0.11995180364E+04  0.00000000000E+00 0. -1.
      99926    2    1    2    0    0  0.00000000000E+00  0.00000000000E+00 -0.11566812058E+04  0.12423548671E+04  0.45335880263E+03 0.  0.
      99925    2    3    3    0    0 -0.71034686793E+02  0.85683695073E+02 -0.75398265546E+03  0.80623418095E+03  0.26293742120E+03 0.  0.
         25    1    3    3    0    0  0.71034686793E+02 -0.85683695073E+02 -0.40269855033E+03  0.43612068612E+03  0.12509000000E+03 0.  0.
         25    1    4    4    0    0 -0.27011388528E+02  0.22615515727E+02 -0.45408595591E+03  0.47231625011E+03  0.12509000000E+03 0.  0.
         25    1    4    4    0    0 -0.44023298265E+02  0.63068179345E+02 -0.29989669955E+03  0.33391793084E+03  0.12509000000E+03 0.  0.
<mgrwt>
<rscale>  2 0.45335880E+03</rscale>
<asrwt>0</asrwt>
<pdfrwt beam="1">  1       21 0.62995335E-02 0.45335880E+03</pdfrwt>
<pdfrwt beam="2">  1       21 0.17639972E+00 0.45335880E+03</pdfrwt>
<totfact> 0.31232996E+04</totfact>
</mgrwt>
</event>
<event>
 7    0  0.4766352E-002  0.4214490E+03  0.7546771E-02  0.1036596E+00
         21   -1    0    0  502  501  0.00000000000E+00  0.00000000000E+00  0.44090344540E+03  0.44090344540E+03  0.00000000000E+00 0. -1.
         21   -1    0    0  501  502 -0.00000000000E+00 -0.00000000000E+00 -0.10071323305E+03  0.10071323305E+03  0.00000000000E+00 0. -1.
      99926    2    1    2    0    0  0.71054273576E-14  0.00000000000E+00  0.34019021235E+03  0.54161667845E+03  0.42144898362E+03 0.  0.
      99925    2    3    3    0    0  0.36294526825E+02  0.56108921816E+02  0.17116992535E+03  0.32097926253E+03  0.26317872225E+03 0.  0.
         25    1    3    3    0    0 -0.36294526825E+02 -0.56108921816E+02  0.16902028700E+03  0.22063741592E+03  0.12509000000E+03 0.  0.
         25    1    4    4    0    0  0.41736728629E+02  0.25256238795E+02  0.12660267938E+03  0.18454153636E+03  0.12509000000E+03 0.  0.
         25    1    4    4    0    0 -0.54422018039E+01  0.30852683021E+02  0.44567245970E+02  0.13643772617E+03  0.12509000000E+03 0.  0.
<mgrwt>
<rscale>  2 0.42144898E+03</rscale>
<asrwt>0</asrwt>
<pdfrwt beam="1">  1       21 0.64838741E-01 0.42144898E+03</pdfrwt>
<pdfrwt beam="2">  1       21 0.14810770E-01 0.42144898E+03</pdfrwt>
<totfact> 0.82160068E+04</totfact>
</mgrwt>
</event>
<event>
 7    0  0.4766352E-002  0.4604391E+03  0.7546771E-02  0.1024654E+00
         21   -1    0    0  502  501  0.00000000000E+00  0.00000000000E+00  0.48360823270E+02  0.48360823270E+02  0.00000000000E+00 0. -1.
         21   -1    0    0  501  502 -0.00000000000E+00 -0.00000000000E+00 -0.10959501568E+04  0.10959501568E+04  0.00000000000E+00 0. -1.
      99926    2    1    2    0    0  0.00000000000E+00  0.00000000000E+00 -0.10475893335E+04  0.11443109800E+04  0.46043914623E+03 0.  0.
      99925    2    3    3    0    0  0.79615171028E+02 -0.86529673585E+02 -0.68625451341E+03  0.74426558239E+03  0.26298296540E+03 0.  0.
         25    1    4    4    0    0  0.17080459988E+00 -0.54300778465E+02 -0.31762123374E+03  0.34565786544E+03  0.12509000000E+03 0.  0.
         25    1    3    3    0    0 -0.79615171028E+02  0.86529673585E+02 -0.36133482009E+03  0.40004539765E+03  0.12509000000E+03 0.  0.
         25    1    4    4    0    0  0.79444366428E+02 -0.32228895121E+02 -0.36863327967E+03  0.39860771695E+03  0.12509000000E+03 0.  0.
<mgrwt>
<rscale>  2 0.46043915E+03</rscale>
<asrwt>0</asrwt>
<pdfrwt beam="1">  1       21 0.71118865E-02 0.46043915E+03</pdfrwt>
<pdfrwt beam="2">  1       21 0.16116912E+00 0.46043915E+03</pdfrwt>
<totfact> 0.32570062E+04</totfact>
</mgrwt>
</event>
<event>
 7    0  0.4766352E-002  0.4544709E+03  0.7546771E-02  0.1026397E+00
         21   -1    0    0  502  501  0.00000000000E+00  0.00000000000E+00  0.35000749285E+02  0.35000749285E+02  0.00000000000E+00 0.  1.
         21   -1    0    0  501  502 -0.00000000000E+00 -0.00000000000E+00 -0.14752812583E+04  0.14752812583E+04  0.00000000000E+00 0.  1.
      99926    2    1    2    0    0  0.14210854715E-13 -0.71054273576E-14 -0.14402805091E+04  0.15102820076E+04  0.45447089873E+03 0.  0.
      99925    2    3    3    0    0  0.97468544380E+02  0.45118475031E+02 -0.10198921779E+04  0.10587184451E+04  0.26299980516E+03 0.  0.
         25    1    4    4    0    0  0.90143330143E+01  0.64733682323E+01 -0.48306557329E+03  0.49912224845E+03  0.12509000000E+03 0.  0.
         25    1    4    4    0    0  0.88454211366E+02  0.38645106799E+02 -0.53682660463E+03  0.55959619667E+03  0.12509000000E+03 0.  0.
         25    1    3    3    0    0 -0.97468544380E+02 -0.45118475031E+02 -0.42038833113E+03  0.45156356251E+03  0.12509000000E+03 0.  0.
<mgrwt>
<rscale>  2 0.45447090E+03</rscale>
<asrwt>0</asrwt>
<pdfrwt beam="1">  1       21 0.51471688E-02 0.45447090E+03</pdfrwt>
<pdfrwt beam="2">  1       21 0.21695314E+00 0.45447090E+03</pdfrwt>
<totfact> 0.23625180E+04</totfact>
</mgrwt>
</event>
<event>
 7    0  0.4766352E-002  0.4463276E+03  0.7546771E-02  0.1028823E+00
         21   -1    0    0  502  501  0.00000000000E+00  0.00000000000E+00  0.40737188121E+02  0.40737188121E+02  0.00000000000E+00 0. -1.
         21   -1    0    0  501  502 -0.00000000000E+00 -0.00000000000E+00 -0.12225214597E+04  0.12225214597E+04  0.00000000000E+00 0. -1.
      99926    2    1    2    0    0 -0.35527136788E-14  0.35527136788E-14 -0.11817842716E+04  0.12632586478E+04  0.44632762265E+03 0.  0.
      99925    2    3    3    0    0 -0.19252391746E+02  0.22633773341E+02 -0.10339941722E+04  0.10673699962E+04  0.26315740199E+03 0.  0.
         25    1    4    4    0    0 -0.93461755864E+01 -0.15390918327E+02 -0.38329959335E+03  0.40359672660E+03  0.12509000000E+03 0.  0.
         25    1    3    3    0    0  0.19252391746E+02 -0.22633773341E+02 -0.14779009936E+03  0.19588865167E+03  0.12509000000E+03 0.  0.
         25    1    4    4    0    0 -0.99062161595E+01  0.38024691668E+02 -0.65069457888E+03  0.66377326955E+03  0.12509000000E+03 0.  0.
<mgrwt>
<rscale>  2 0.44632762E+03</rscale>
<asrwt>0</asrwt>
<pdfrwt beam="1">  1       21 0.59907630E-02 0.44632762E+03</pdfrwt>
<pdfrwt beam="2">  1       21 0.17978257E+00 0.44632762E+03</pdfrwt>
<totfact> 0.32327671E+04</totfact>
</mgrwt>
</event>
<event>
 7    0  0.4766352E-002  0.4558532E+03  0.7546771E-02  0.1025991E+00
         21   -1    0    0  502  501  0.00000000000E+00  0.00000000000E+00  0.18856991359E+03  0.18856991359E+03  0.00000000000E+00 0. -1.
         21   -1    0    0  501  502 -0.00000000000E+00 -0.00000000000E+00 -0.27549742191E+03  0.27549742191E+03  0.00000000000E+00 0. -1.
      99926    2    1    2    0    0  0.00000000000E+00  0.00000000000E+00 -0.86927508317E+02  0.46406733550E+03  0.45585315638E+03 0.  0.
      99925    2    3    3    0    0  0.74034985383E+02  0.83714193353E+02 -0.31671541364E+02  0.28746049755E+03  0.26294715417E+03 0.  0.
         25    1    4    4    0    0  0.28703458929E+02  0.11902794772E+02  0.13671150441E+02  0.12961471187E+03  0.12509000000E+03 0.  0.
         25    1    3    3    0    0 -0.74034985383E+02 -0.83714193353E+02 -0.55255966953E+02  0.17660683796E+03  0.12509000000E+03 0.  0.
         25    1    4    4    0    0  0.45331526453E+02  0.71811398581E+02 -0.45342691805E+02  0.15784578568E+03  0.12509000000E+03 0.  0.
<mgrwt>
<rscale>  2 0.45585316E+03</rscale>
<asrwt>0</asrwt>
<pdfrwt beam="1">  1       21 0.27730870E-01 0.45585316E+03</pdfrwt>
<pdfrwt beam="2">  1       21 0.40514326E-01 0.45585316E+03</pdfrwt>
<totfact> 0.67421058E+04</totfact>
</mgrwt>
</event>
<event>
 7    0  0.4766352E-002  0.4395172E+03  0.7546771E-02  0.1030895E+00
         21   -1    0    0  502  501  0.00000000000E+00  0.00000000000E+00  0.44923243976E+03  0.44923243976E+03  0.00000000000E+00 0.  1.
         21   -1    0    0  501  502 -0.00000000000E+00 -0.00000000000E+00 -0.10750300690E+03  0.10750300690E+03  0.00000000000E+00 0.  1.
      99926    2    1    2    0    0 -0.17763568394E-14  0.71054273576E-14  0.34172943286E+03  0.55673544667E+03  0.43951718088E+03 0.  0.
      99925    2    3    3    0    0 -0.40608717659E+01 -0.41574469989E+02  0.10596897345E+03  0.28659579842E+03  0.26298821476E+03 0.  0.
         25    1    3    3    0    0  0.40608717659E+01  0.41574469989E+02  0.23576045941E+03  0.27013964825E+03  0.12509000000E+03 0.  0.
         25    1    4    4    0    0 -0.24931542957E+02 -0.52307180864E+02  0.41769010812E+02  0.14404784403E+03  0.12509000000E+03 0.  0.
         25    1    4    4    0    0  0.20870671191E+02  0.10732710875E+02  0.64199962639E+02  0.14254795439E+03  0.12509000000E+03 0.  0.
<mgrwt>
<rscale>  2 0.43951718E+03</rscale>
<asrwt>0</asrwt>
<pdfrwt beam="1">  1       21 0.66063593E-01 0.43951718E+03</pdfrwt>
<pdfrwt beam="2">  1       21 0.15809266E-01 0.43951718E+03</pdfrwt>
<totfact> 0.69559395E+04</totfact>
</mgrwt>
</event>
<event>
 7    0  0.4766352E-002  0.4580188E+03  0.7546771E-02  0.1025357E+00
         21   -1    0    0  502  501  0.00000000000E+00  0.00000000000E+00  0.20072230349E+03  0.20072230349E+03  0.00000000000E+00 0. -1.
         21   -1    0    0  501  502 -0.00000000000E+00 -0.00000000000E+00 -0.26128291435E+03  0.26128291435E+03  0.00000000000E+00 0. -1.
      99926    2    1    2    0    0 -0.71054273576E-14  0.00000000000E+00 -0.60560610862E+02  0.46200521784E+03  0.45801881372E+03 0.  0.
      99925    2    3    3    0    0 -0.58145440375E+02  0.98995360203E+02 -0.21748930771E+02  0.28783625336E+03  0.26305079201E+03 0.  0.
         25    1    4    4    0    0  0.76079594327E+01  0.43519166243E+02  0.88815851116E+01  0.13295935293E+03  0.12509000000E+03 0.  0.
         25    1    4    4    0    0 -0.65753399808E+02  0.55476193960E+02 -0.30630515882E+02  0.15487690043E+03  0.12509000000E+03 0.  0.
         25    1    3    3    0    0  0.58145440375E+02 -0.98995360203E+02 -0.38811680091E+02  0.17416896448E+03  0.12509000000E+03 0.  0.
<mgrwt>
<rscale>  2 0.45801881E+03</rscale>
<asrwt>0</asrwt>
<pdfrwt beam="1">  1       21 0.29517986E-01 0.45801881E+03</pdfrwt>
<pdfrwt beam="2">  1       21 0.38423958E-01 0.45801881E+03</pdfrwt>
<totfact> 0.66421153E+04</totfact>
</mgrwt>
</event>
<event>
 7    0  0.4766352E-002  0.4075387E+03  0.7546771E-02  0.1041200E+00
         21   -1    0    0  502  501  0.00000000000E+00  0.00000000000E+00  0.39014023277E+03  0.39014023277E+03  0.00000000000E+00 0.  1.
         21   -1    0    0  501  502 -0.00000000000E+00 -0.00000000000E+00 -0.10642824295E+03  0.10642824295E+03  0.00000000000E+00 0.  1.
      99926    2    1    2    0    0  0.00000000000E+00  0.35527136788E-14  0.28371198983E+03  0.49656847572E+03  0.40753865817E+03 0.  0.
      99925    2    3    3    0    0  0.44188161965E+02  0.21473860645E+02  0.22643888024E+03  0.35048138686E+03  0.26296181416E+03 0.  0.
         25    1    3    3    0    0 -0.44188161965E+02 -0.21473860645E+02  0.57273109592E+02  0.14608708886E+03  0.12509000000E+03 0.  0.
         25    1    4    4    0    0  0.10089778695E+02 -0.18593567260E+02  0.76039082541E+02  0.14790866963E+03  0.12509000000E+03 0.  0.
         25    1    4    4    0    0  0.34098383269E+02  0.40067427905E+02  0.15039979769E+03  0.20257271723E+03  0.12509000000E+03 0.  0.
<mgrwt>
<rscale>  2 0.40753866E+03</rscale>
<asrwt>0</asrwt>
<pdfrwt beam="1">  1       21 0.57373563E-01 0.40753866E+03</pdfrwt>
<pdfrwt beam="2">  1       21 0.15651212E-01 0.40753866E+03</pdfrwt>
<totfact> 0.97279440E+04</totfact>
</mgrwt>
</event>
<event>
 7    0  0.4766352E-002  0.4529115E+03  0.7546771E-02  0.1026857E+00
         21   -1    0    0  502  501  0.00000000000E+00  0.00000000000E+00  0.61843200899E+03  0.61843200899E+03  0.00000000000E+00 0. -1.
         21   -1    0    0  501  502 -0.00000000000E+00 -0.00000000000E+00 -0.82922949713E+02  0.82922949713E+02  0.00000000000E+00 0. -1.
      99926    2    1    2    0    0  0.14210854715E-13  0.00000000000E+00  0.53550905928E+03  0.70135495870E+03  0.45291149856E+03 0.  0.
      99925    2    3    3    0    0  0.93190941354E+02 -0.13632616874E+02  0.24381647417E+03  0.37029231796E+03  0.26229664098E+03 0.  0.
         25    1    3    3    0    0 -0.93190941354E+02  0.13632616874E+02  0.29169258510E+03  0.33106264074E+03  0.12509000000E+03 0.  0.
         25    1    4    4    0    0  0.16950017744E+02 -0.98595053285E+01  0.76746696252E+02  0.14806105643E+03  0.12509000000E+03 0.  0.
         25    1    4    4    0    0  0.76240923610E+02 -0.37731115454E+01  0.16706977792E+03  0.22223126152E+03  0.12509000000E+03 0.  0.
<mgrwt>
<rscale>  2 0.45291150E+03</rscale>
<asrwt>0</asrwt>
<pdfrwt beam="1">  1       21 0.90945881E-01 0.45291150E+03</pdfrwt>
<pdfrwt beam="2">  1       21 0.12194552E-01 0.45291150E+03</pdfrwt>
<totfact> 0.53706712E+04</totfact>
</mgrwt>
</event>
<event>
 7    0  0.4766352E-002  0.4491034E+03  0.7546771E-02  0.1027990E+00
         21   -1    0    0  502  501  0.00000000000E+00  0.00000000000E+00  0.77325464356E+03  0.77325464356E+03  0.00000000000E+00 0. -1.
         21   -1    0    0  501  502 -0.00000000000E+00 -0.00000000000E+00 -0.65209381173E+02  0.65209381173E+02  0.00000000000E+00 0. -1.
      99926    2    1    2    0    0  0.00000000000E+00  0.35527136788E-14  0.70804526238E+03  0.83846402473E+03  0.44910335913E+03 0.  0.
      99925    2    3    3    0    0  0.44573572851E+02  0.18021674295E+02  0.62763183985E+03  0.68217771450E+03  0.26293178512E+03 0.  0.
         25    1    3    3    0    0 -0.44573572851E+02 -0.18021674295E+02  0.80413422532E+02  0.15628631023E+03  0.12509000000E+03 0.  0.
         25    1    4    4    0    0  0.15985592462E+02 -0.30262128965E+02  0.32608099622E+03  0.35092400860E+03  0.12509000000E+03 0.  0.
         25    1    4    4    0    0  0.28587980389E+02  0.48283803260E+02  0.30155084363E+03  0.33125370590E+03  0.12509000000E+03 0.  0.
<mgrwt>
<rscale>  2 0.44910336E+03</rscale>
<asrwt>0</asrwt>
<pdfrwt beam="1">  1       21 0.11371391E+00 0.44910336E+03</pdfrwt>
<pdfrwt beam="2">  1       21 0.95896153E-02 0.44910336E+03</pdfrwt>
<totfact> 0.48149015E+04</totfact>
</mgrwt>
</event>
<event>
 7    0  0.4766352E-002  0.4541779E+03  0.7546771E-02  0.1026483E+00
         21   -1    0    0  502  501  0.00000000000E+00  0.00000000000E+00  0.68037180323E+02  0.68037180323E+02  0.00000000000E+00 0. -1.
         21   -1    0    0  501  502 -0.00000000000E+00 -0.00000000000E+00 -0.75795893433E+03  0.75795893433E+03  0.00000000000E+00 0. -1.
      99926    2    1    2    0    0 -0.14210854715E-13 -0.17763568394E-14 -0.68992175401E+03  0.82599611465E+03  0.45417788890E+03 0.  0.
      99925    2    3    3    0    0 -0.95565125780E+02  0.98995261233E+01 -0.32838886803E+03  0.43155444644E+03  0.26300056599E+03 0.  0.
         25    1    4    4    0    0 -0.71176992318E+02  0.21602975369E+02 -0.22032508141E+03  0.26405208270E+03  0.12509000000E+03 0.  0.
         25    1    3    3    0    0  0.95565125780E+02 -0.98995261233E+01 -0.36153288598E+03  0.39444166822E+03  0.12509000000E+03 0.  0.
         25    1    4    4    0    0 -0.24388133463E+02 -0.11703449246E+02 -0.10806378662E+03  0.16750236373E+03  0.12509000000E+03 0.  0.
<mgrwt>
<rscale>  2 0.45417789E+03</rscale>
<asrwt>0</asrwt>
<pdfrwt beam="1">  1       21 0.10005468E-01 0.45417789E+03</pdfrwt>
<pdfrwt beam="2">  1       21 0.11146455E+00 0.45417789E+03</pdfrwt>
<totfact> 0.46834356E+04</totfact>
</mgrwt>
</event>
<event>
 7    0  0.4766352E-002  0.4505382E+03  0.7546771E-02  0.1027562E+00
         21   -1    0    0  502  501  0.00000000000E+00  0.00000000000E+00  0.34801856274E+03  0.34801856274E+03  0.00000000000E+00 0.  1.
         21   -1    0    0  501  502 -0.00000000000E+00 -0.00000000000E+00 -0.14581453454E+03  0.14581453454E+03  0.00000000000E+00 0.  1.
      99926    2    1    2    0    0 -0.71054273576E-14 -0.71054273576E-14  0.20220402820E+03  0.49383309728E+03  0.45053818812E+03 0.  0.
      99925    2    3    3    0    0 -0.43800177894E+02 -0.53769305384E+02  0.35709287165E+02  0.27433913227E+03  0.26301561269E+03 0.  0.
         25    1    3    3    0    0  0.43800177894E+02  0.53769305384E+02  0.16649474103E+03  0.21949396501E+03  0.12509000000E+03 0.  0.
         25    1    4    4    0    0 -0.36660450832E+02 -0.65868634633E+02  0.15857044599E+02  0.14690684003E+03  0.12509000000E+03 0.  0.
         25    1    4    4    0    0 -0.71397270620E+01  0.12099329249E+02  0.19852242566E+02  0.12743229224E+03  0.12509000000E+03 0.  0.
<mgrwt>
<rscale>  2 0.45053819E+03</rscale>
<asrwt>0</asrwt>
<pdfrwt beam="1">  1       21 0.51179200E-01 0.45053819E+03</pdfrwt>
<pdfrwt beam="2">  1       21 0.21443314E-01 0.45053819E+03</pdfrwt>
<totfact> 0.68085927E+04</totfact>
</mgrwt>
</event>
<event>
 7    0  0.4766352E-002  0.4341545E+03  0.7546771E-02  0.1032556E+00
         21   -1    0    0  502  501  0.00000000000E+00  0.00000000000E+00  0.60542154817E+02  0.60542154817E+02  0.00000000000E+00 0. -1.
         21   -1    0    0  501  502 -0.00000000000E+00 -0.00000000000E+00 -0.77834255909E+03  0.77834255909E+03  0.00000000000E+00 0. -1.
      99926    2    1    2    0    0  0.00000000000E+00  0.00000000000E+00 -0.71780040427E+03  0.83888471391E+03  0.43415451495E+03 0.  0.
      99925    2    3    3    0    0 -0.12568478277E+02  0.40783290749E+02 -0.30268792708E+03  0.40323907779E+03  0.26298389533E+03 0.  0.
         25    1    4    4    0    0 -0.11958720286E+02 -0.20150218885E+02 -0.14676193235E+03  0.19425657054E+03  0.12509000000E+03 0.  0.
         25    1    4    4    0    0 -0.60975799127E+00  0.60933509634E+02 -0.15592599473E+03  0.20898250724E+03  0.12509000000E+03 0.  0.
         25    1    3    3    0    0  0.12568478277E+02 -0.40783290749E+02 -0.41511247719E+03  0.43564563612E+03  0.12509000000E+03 0.  0.
<mgrwt>
<rscale>  2 0.43415451E+03</rscale>
<asrwt>0</asrwt>
<pdfrwt beam="1">  1       21 0.89032585E-02 0.43415451E+03</pdfrwt>
<pdfrwt beam="2">  1       21 0.11446214E+00 0.43415451E+03</pdfrwt>
<totfact> 0.54289315E+04</totfact>
</mgrwt>
</event>
<event>
 7    0  0.4766352E-002  0.4681785E+03  0.7546771E-02  0.1022436E+00
         21   -1    0    0  502  501  0.00000000000E+00  0.00000000000E+00  0.47922926307E+02  0.47922926307E+02  0.00000000000E+00 0.  1.
         21   -1    0    0  501  502 -0.00000000000E+00 -0.00000000000E+00 -0.11434565174E+04  0.11434565174E+04  0.00000000000E+00 0.  1.
      99926    2    1    2    0    0  0.00000000000E+00  0.00000000000E+00 -0.10955335911E+04  0.11913794438E+04  0.46817852331E+03 0.  0.
      99925    2    3    3    0    0  0.10171012977E+03  0.53471267133E+02 -0.55093180383E+03  0.62090355316E+03  0.26228084747E+03 0.  0.
         25    1    4    4    0    0  0.22372141907E+02  0.35773836040E+02 -0.20072703183E+03  0.24024805824E+03  0.12509000000E+03 0.  0.
         25    1    3    3    0    0 -0.10171012977E+03 -0.53471267133E+02 -0.54460178731E+03  0.57047589059E+03  0.12509000000E+03 0.  0.
         25    1    4    4    0    0  0.79337987864E+02  0.17697431092E+02 -0.35020477200E+03  0.38065549493E+03  0.12509000000E+03 0.  0.
<mgrwt>
<rscale>  2 0.46817852E+03</rscale>
<asrwt>0</asrwt>
<pdfrwt beam="1">  1       21 0.70474892E-02 0.46817852E+03</pdfrwt>
<pdfrwt beam="2">  1       21 0.16815537E+00 0.46817852E+03</pdfrwt>
<totfact> 0.29304119E+04</totfact>
</mgrwt>
</event>
<event>
 7    0  0.4766352E-002  0.4496388E+03  0.7546771E-02  0.1027830E+00
         21   -1    0    0  502  501  0.00000000000E+00  0.00000000000E+00  0.18129587291E+03  0.18129587291E+03  0.00000000000E+00 0. -1.
         21   -1    0    0  501  502 -0.00000000000E+00 -0.00000000000E+00 -0.27879162784E+03  0.27879162784E+03  0.00000000000E+00 0. -1.
      99926    2    1    2    0    0 -0.71054273576E-14  0.00000000000E+00 -0.97495754925E+02  0.46008750075E+03  0.44963883964E+03 0.  0.
      99925    2    3    3    0    0 -0.42845040091E+02 -0.60310458823E+02  0.18898792858E+02  0.27389338764E+03  0.26303493022E+03 0.  0.
         25    1    4    4    0    0 -0.39931865904E+02 -0.12973473060E+02 -0.22505142318E+02  0.13385385481E+03  0.12509000000E+03 0.  0.
         25    1    4    4    0    0 -0.29131741873E+01 -0.47336985763E+02  0.41403935176E+02  0.14003953282E+03  0.12509000000E+03 0.  0.
         25    1    3    3    0    0  0.42845040091E+02  0.60310458823E+02 -0.11639454778E+03  0.18619411311E+03  0.12509000000E+03 0.  0.
<mgrwt>
<rscale>  2 0.44963884E+03</rscale>
<asrwt>0</asrwt>
<pdfrwt beam="1">  1       21 0.26661158E-01 0.44963884E+03</pdfrwt>
<pdfrwt beam="2">  1       21 0.40998768E-01 0.44963884E+03</pdfrwt>
<totfact> 0.71158818E+04</totfact>
</mgrwt>
</event>
<event>
 7    0  0.4766352E-002  0.4558395E+03  0.7546771E-02  0.1025995E+00
         21   -1    0    0  502  501  0.00000000000E+00  0.00000000000E+00  0.10423885444E+03  0.10423885444E+03  0.00000000000E+00 0.  1.
         21   -1    0    0  501  502 -0.00000000000E+00 -0.00000000000E+00 -0.49834975961E+03  0.49834975961E+03  0.00000000000E+00 0.  1.
      99926    2    1    2    0    0  0.00000000000E+00  0.00000000000E+00 -0.39411090517E+03  0.60258861405E+03  0.45583948074E+03 0.  0.
      99925    2    3    3    0    0  0.46299353145E+02 -0.86098683265E+02 -0.17164496304E+03  0.32928435709E+03  0.26345698155E+03 0.  0.
         25    1    4    4    0    0 -0.18180991768E+02 -0.40843850816E+02 -0.89354322476E+02  0.16009519561E+03  0.12509000000E+03 0.  0.
         25    1    4    4    0    0  0.64480344913E+02 -0.45254832449E+02 -0.82290640563E+02  0.16918916149E+03  0.12509000000E+03 0.  0.
         25    1    3    3    0    0 -0.46299353145E+02  0.86098683265E+02 -0.22246594213E+03  0.27330425695E+03  0.12509000000E+03 0.  0.
<mgrwt>
<rscale>  2 0.45583948E+03</rscale>
<asrwt>0</asrwt>
<pdfrwt beam="1">  1       21 0.15329243E-01 0.45583948E+03</pdfrwt>
<pdfrwt beam="2">  1       21 0.73286730E-01 0.45583948E+03</pdfrwt>
<totfact> 0.58132690E+04</totfact>
</mgrwt>
</event>
<event>
 7    0  0.4766352E-002  0.4375644E+03  0.7546771E-02  0.1031497E+00
         21   -1    0    0  502  501  0.00000000000E+00  0.00000000000E+00  0.11544752074E+03  0.11544752074E+03  0.00000000000E+00 0.  1.
         21   -1    0    0  501  502 -0.00000000000E+00 -0.00000000000E+00 -0.41460967097E+03  0.41460967097E+03  0.00000000000E+00 0.  1.
      99926    2    1    2    0    0  0.00000000000E+00  0.00000000000E+00 -0.29916215023E+03  0.53005719171E+03  0.43756443452E+03 0.  0.
      99925    2    3    3    0    0  0.45860181579E+02 -0.59765027356E+02 -0.26335043192E+03  0.37970759238E+03  0.26296271784E+03 0.  0.
         25    1    4    4    0    0  0.52882097979E+02 -0.31462660445E+01 -0.13830445256E+03  0.19386089078E+03  0.12509000000E+03 0.  0.
         25    1    3    3    0    0 -0.45860181579E+02  0.59765027356E+02 -0.35811718309E+02  0.15034959933E+03  0.12509000000E+03 0.  0.
         25    1    4    4    0    0 -0.70219164002E+01 -0.56618761312E+02 -0.12504597936E+03  0.18584670160E+03  0.12509000000E+03 0.  0.
<mgrwt>
<rscale>  2 0.43756443E+03</rscale>
<asrwt>0</asrwt>
<pdfrwt beam="1">  1       21 0.16977577E-01 0.43756443E+03</pdfrwt>
<pdfrwt beam="2">  1       21 0.60972010E-01 0.43756443E+03</pdfrwt>
<totfact> 0.72734574E+04</totfact>
</mgrwt>
</event>
<event>
 7    0  0.4766352E-002  0.4653724E+03  0.7546771E-02  0.1023234E+00
         21   -1    0    0  502  501  0.00000000000E+00  0.00000000000E+00  0.19926726081E+03  0.19926726081E+03  0.00000000000E+00 0.  1.
         21   -1    0    0  501  502 -0.00000000000E+00 -0.00000000000E+00 -0.27170982875E+03  0.27170982875E+03  0.00000000000E+00 0.  1.
      99926    2    1    2    0    0 -0.14210854715E-13  0.00000000000E+00 -0.72442567939E+02  0.47097708955E+03  0.46537242423E+03 0.  0.
      99925    2    3    3    0    0  0.10674090223E+03 -0.42896512191E+02 -0.17795502269E+01  0.28692682159E+03  0.26284996325E+03 0.  0.
         25    1    3    3    0    0 -0.10674090223E+03  0.42896512191E+02 -0.70663017712E+02  0.18405026797E+03  0.12509000000E+03 0.  0.
         25    1    4    4    0    0  0.39612629535E+02  0.15610338709E+02 -0.14090737573E+02  0.13288679422E+03  0.12509000000E+03 0.  0.
         25    1    4    4    0    0  0.67128272692E+02 -0.58506850900E+02  0.12311187346E+02  0.15404002737E+03  0.12509000000E+03 0.  0.
<mgrwt>
<rscale>  2 0.46537242E+03</rscale>
<asrwt>0</asrwt>
<pdfrwt beam="1">  1       21 0.29304009E-01 0.46537242E+03</pdfrwt>
<pdfrwt beam="2">  1       21 0.39957328E-01 0.46537242E+03</pdfrwt>
<totfact> 0.62089100E+04</totfact>
</mgrwt>
</event>
<event>
 7    0  0.4766352E-002  0.4491363E+03  0.7546771E-02  0.1027980E+00
         21   -1    0    0  502  501  0.00000000000E+00  0.00000000000E+00  0.15549697330E+03  0.15549697330E+03  0.00000000000E+00 0.  1.
         21   -1    0    0  501  502 -0.00000000000E+00 -0.00000000000E+00 -0.32432045712E+03  0.32432045712E+03  0.00000000000E+00 0.  1.
      99926    2    1    2    0    0  0.00000000000E+00  0.00000000000E+00 -0.16882348382E+03  0.47981743042E+03  0.44913627981E+03 0.  0.
      99925    2    3    3    0    0 -0.96243104227E+02 -0.47429539754E+02 -0.11400927162E+03  0.30613840948E+03  0.26307853465E+03 0.  0.
         25    1    4    4    0    0 -0.53686817871E+02  0.15468858666E+02 -0.66458849454E+02  0.15226899478E+03  0.12509000000E+03 0.  0.
         25    1    4    4    0    0 -0.42556286355E+02 -0.62898398420E+02 -0.47550422163E+02  0.15386941470E+03  0.12509000000E+03 0.  0.
         25    1    3    3    0    0  0.96243104227E+02  0.47429539754E+02 -0.54814212207E+02  0.17367902093E+03  0.12509000000E+03 0.  0.
<mgrwt>
<rscale>  2 0.44913628E+03</rscale>
<asrwt>0</asrwt>
<pdfrwt beam="1">  1       21 0.22867202E-01 0.44913628E+03</pdfrwt>
<pdfrwt beam="2">  1       21 0.47694185E-01 0.44913628E+03</pdfrwt>
<totfact> 0.69911300E+04</totfact>
</mgrwt>
</event>
<event>
 7    0  0.4766352E-002  0.4473363E+03  0.7546771E-02  0.1028519E+00
         21   -1    0    0  502  501  0.00000000000E+00  0.00000000000E+00  0.50152448754E+02  0.50152448754E+02  0.00000000000E+00 0. -1.
         21   -1    0    0  501  502 -0.00000000000E+00 -0.00000000000E+00 -0.99750726350E+03  0.99750726350E+03  0.00000000000E+00 0. -1.
      99926    2    1    2    0    0 -0.19984014443E-14  0.00000000000E+00 -0.94735481475E+03  0.10476597123E+04  0.44733625793E+03 0.  0.
      99925    2    3    3    0    0 -0.16175362132E+01 -0.92257944420E+02 -0.47506629415E+03  0.55044939506E+03  0.26228306838E+03 0.  0.
         25    1    3    3    0    0  0.16175362132E+01  0.92257944420E+02 -0.47228852061E+03  0.49721031720E+03  0.12509000000E+03 0.  0.
         25    1    4    4    0    0 -0.19887214061E+02 -0.62205644341E+02 -0.30810723858E+03  0.33888437857E+03  0.12509000000E+03 0.  0.
         25    1    4    4    0    0  0.18269677848E+02 -0.30052300079E+02 -0.16695905556E+03  0.21156501649E+03  0.12509000000E+03 0.  0.
<mgrwt>
<rscale>  2 0.44733626E+03</rscale>
<asrwt>0</asrwt>
<pdfrwt beam="1">  1       21 0.73753611E-02 0.44733626E+03</pdfrwt>
<pdfrwt beam="2">  1       21 0.14669223E+00 0.44733626E+03</pdfrwt>
<totfact> 0.39684635E+04</totfact>
</mgrwt>
</event>
<event>
 7    0  0.4766352E-002  0.4522146E+03  0.7546771E-02  0.1027064E+00
         21   -1    0    0  502  501  0.00000000000E+00  0.00000000000E+00  0.49394189412E+02  0.49394189412E+02  0.00000000000E+00 0. -1.
         21   -1    0    0  501  502 -0.00000000000E+00 -0.00000000000E+00 -0.10350308485E+04  0.10350308485E+04  0.00000000000E+00 0. -1.
      99926    2    1    2    0    0  0.71054273576E-14  0.00000000000E+00 -0.98563665910E+03  0.10844250379E+04  0.45221459410E+03 0.  0.
      99925    2    3    3    0    0  0.36060606830E+02 -0.69605643968E+02 -0.43503508020E+03  0.51437686468E+03  0.26302609162E+03 0.  0.
         25    1    4    4    0    0  0.10564760627E+02 -0.58778207811E+02 -0.16505599930E+03  0.21553997978E+03  0.12509000000E+03 0.  0.
         25    1    3    3    0    0 -0.36060606830E+02  0.69605643968E+02 -0.55060157890E+03  0.57004817325E+03  0.12509000000E+03 0.  0.
         25    1    4    4    0    0  0.25495846203E+02 -0.10827436157E+02 -0.26997908090E+03  0.29883688489E+03  0.12509000000E+03 0.  0.
<mgrwt>
<rscale>  2 0.45221459E+03</rscale>
<asrwt>0</asrwt>
<pdfrwt beam="1">  1       21 0.72638520E-02 0.45221459E+03</pdfrwt>
<pdfrwt beam="2">  1       21 0.15221041E+00 0.45221459E+03</pdfrwt>
<totfact> 0.36832998E+04</totfact>
</mgrwt>
</event>
<event>
 7    0  0.4766352E-002  0.4466289E+03  0.7546771E-02  0.1028732E+00
         21   -1    0    0  502  501  0.00000000000E+00  0.00000000000E+00  0.29247634894E+03  0.29247634894E+03  0.00000000000E+00 0.  1.
         21   -1    0    0  501  502 -0.00000000000E+00 -0.00000000000E+00 -0.17050725169E+03  0.17050725169E+03  0.00000000000E+00 0.  1.
      99926    2    1    2    0    0  0.00000000000E+00  0.00000000000E+00  0.12196909725E+03  0.46298360063E+03  0.44662887700E+03 0.  0.
      99925    2    3    3    0    0  0.92790231407E+02 -0.46318872053E+02  0.94781062055E+02  0.29823481517E+03  0.26306860379E+03 0.  0.
         25    1    3    3    0    0 -0.92790231407E+02  0.46318872053E+02  0.27188035191E+02  0.16474878546E+03  0.12509000000E+03 0.  0.
         25    1    4    4    0    0  0.38176690425E+02 -0.50314221296E+02  0.17194119645E+02  0.14118118291E+03  0.12509000000E+03 0.  0.
         25    1    4    4    0    0  0.54613540982E+02  0.39953492433E+01  0.77586942410E+02  0.15705363226E+03  0.12509000000E+03 0.  0.
<mgrwt>
<rscale>  2 0.44662888E+03</rscale>
<asrwt>0</asrwt>
<pdfrwt beam="1">  1       21 0.43011228E-01 0.44662888E+03</pdfrwt>
<pdfrwt beam="2">  1       21 0.25074596E-01 0.44662888E+03</pdfrwt>
<totfact> 0.72668240E+04</totfact>
</mgrwt>
</event>
<event>
 7    0  0.4766352E-002  0.4590687E+03  0.7546771E-02  0.1025052E+00
         21   -1    0    0  502  501  0.00000000000E+00  0.00000000000E+00  0.29785769110E+03  0.29785769110E+03  0.00000000000E+00 0. -1.
         21   -1    0    0  501  502 -0.00000000000E+00 -0.00000000000E+00 -0.17688317221E+03  0.17688317221E+03  0.00000000000E+00 0. -1.
      99926    2    1    2    0    0  0.00000000000E+00  0.17763568394E-14  0.12097451888E+03  0.47474086331E+03  0.45906868013E+03 0.  0.
      99925    2    3    3    0    0  0.24554545075E+02 -0.15186639807E+02  0.19296446410E+03  0.32755519816E+03  0.26310371287E+03 0.  0.
         25    1    3    3    0    0 -0.24554545075E+02  0.15186639807E+02 -0.71989945220E+02  0.14718566515E+03  0.12509000000E+03 0.  0.
         25    1    4    4    0    0  0.28050114602E+02 -0.45061838525E+02  0.93755516102E+02  0.16509083294E+03  0.12509000000E+03 0.  0.
         25    1    4    4    0    0 -0.34955695274E+01  0.29875198718E+02  0.99208948003E+02  0.16246436523E+03  0.12509000000E+03 0.  0.
<mgrwt>
<rscale>  2 0.45906868E+03</rscale>
<asrwt>0</asrwt>
<pdfrwt beam="1">  1       21 0.43802602E-01 0.45906868E+03</pdfrwt>
<pdfrwt beam="2">  1       21 0.26012231E-01 0.45906868E+03</pdfrwt>
<totfact> 0.64962356E+04</totfact>
</mgrwt>
</event>
<event>
 7    0  0.4766352E-002  0.4612732E+03  0.7546771E-02  0.1024413E+00
         21   -1    0    0  502  501  0.00000000000E+00  0.00000000000E+00  0.10647177616E+03  0.10647177616E+03  0.00000000000E+00 0.  1.
         21   -1    0    0  501  502 -0.00000000000E+00 -0.00000000000E+00 -0.49959941899E+03  0.49959941899E+03  0.00000000000E+00 0.  1.
      99926    2    1    2    0    0  0.00000000000E+00  0.00000000000E+00 -0.39312764283E+03  0.60607119516E+03  0.46127318374E+03 0.  0.
      99925    2    3    3    0    0  0.10036331076E+03  0.48212173002E+02 -0.30124190326E+03  0.41505364358E+03  0.26291754411E+03 0.  0.
         25    1    4    4    0    0  0.34334178596E+02  0.42140779553E+02 -0.10054209671E+03  0.16944291792E+03  0.12509000000E+03 0.  0.
         25    1    4    4    0    0  0.66029132165E+02  0.60713934491E+01 -0.20069980655E+03  0.24561072567E+03  0.12509000000E+03 0.  0.
         25    1    3    3    0    0 -0.10036331076E+03 -0.48212173002E+02 -0.91885739570E+02  0.19101755157E+03  0.12509000000E+03 0.  0.
<mgrwt>
<rscale>  2 0.46127318E+03</rscale>
<asrwt>0</asrwt>
<pdfrwt beam="1">  1       21 0.15657614E-01 0.46127318E+03</pdfrwt>
<pdfrwt beam="2">  1       21 0.73470502E-01 0.46127318E+03</pdfrwt>
<totfact> 0.55503840E+04</totfact>
</mgrwt>
</event>
<event>
 7    0  0.4766352E-002  0.4512129E+03  0.7546771E-02  0.1027361E+00
         21   -1    0    0  502  501  0.00000000000E+00  0.00000000000E+00  0.22601278398E+03  0.22601278398E+03  0.00000000000E+00 0. -1.
         21   -1    0    0  501  502 -0.00000000000E+00 -0.00000000000E+00 -0.22520084603E+03  0.22520084603E+03  0.00000000000E+00 0. -1.
      99926    2    1    2    0    0  0.00000000000E+00  0.00000000000E+00  0.81193794367E+00  0.45121363001E+03  0.45121289949E+03 0.  0.
      99925    2    3    3    0    0 -0.78499777577E+02  0.61567909540E+02 -0.44730632048E+02  0.28485721641E+03  0.26303988620E+03 0.  0.
         25    1    4    4    0    0 -0.70978632759E+02  0.12345574177E+02 -0.48346860500E+01  0.14443428194E+03  0.12509000000E+03 0.  0.
         25    1    4    4    0    0 -0.75211448178E+01  0.49222335363E+02 -0.39895945998E+02  0.14042293447E+03  0.12509000000E+03 0.  0.
         25    1    3    3    0    0  0.78499777577E+02 -0.61567909540E+02  0.45542569991E+02  0.16635641360E+03  0.12509000000E+03 0.  0.
<mgrwt>
<rscale>  2 0.45121290E+03</rscale>
<asrwt>0</asrwt>
<pdfrwt beam="1">  1       21 0.33237174E-01 0.45121290E+03</pdfrwt>
<pdfrwt beam="2">  1       21 0.33117771E-01 0.45121290E+03</pdfrwt>
<totfact> 0.70943671E+04</totfact>
</mgrwt>
</event>
<event>
 7    0  0.4766352E-002  0.4499963E+03  0.7546771E-02  0.1027723E+00
         21   -1    0    0  502  501  0.00000000000E+00  0.00000000000E+00  0.25026331811E+03  0.25026331811E+03  0.00000000000E+00 0.  1.
         21   -1    0    0  501  502 -0.00000000000E+00 -0.00000000000E+00 -0.20228360646E+03  0.20228360646E+03  0.00000000000E+00 0.  1.
      99926    2    1    2    0    0 -0.17763568394E-14  0.00000000000E+00  0.47979711650E+02  0.45254692457E+03  0.44999629577E+03 0.  0.
      99925    2    3    3    0    0 -0.51849559436E+01  0.10816924372E+03  0.35611162535E+02  0.28663140944E+03  0.26298657936E+03 0.  0.
         25    1    3    3    0    0  0.51849559436E+01 -0.10816924372E+03  0.12368549115E+02  0.16591551513E+03  0.12509000000E+03 0.  0.
         25    1    4    4    0    0 -0.17786187944E+02  0.94660262453E+02  0.16206623571E+02  0.15870436830E+03  0.12509000000E+03 0.  0.
         25    1    4    4    0    0  0.12601232000E+02  0.13508981263E+02  0.19404538965E+02  0.12792704114E+03  0.12509000000E+03 0.  0.
<mgrwt>
<rscale>  2 0.44999630E+03</rscale>
<asrwt>0</asrwt>
<pdfrwt beam="1">  1       21 0.36803429E-01 0.44999630E+03</pdfrwt>
<pdfrwt beam="2">  1       21 0.29747589E-01 0.44999630E+03</pdfrwt>
<totfact> 0.71539469E+04</totfact>
</mgrwt>
</event>
<event>
 7    0  0.4766352E-002  0.4572221E+03  0.7546771E-02  0.1025590E+00
         21   -1    0    0  502  501  0.00000000000E+00  0.00000000000E+00  0.54591079491E+02  0.54591079491E+02  0.00000000000E+00 0.  1.
         21   -1    0    0  501  502 -0.00000000000E+00 -0.00000000000E+00 -0.95735427467E+03  0.95735427467E+03  0.00000000000E+00 0.  1.
      99926    2    1    2    0    0  0.00000000000E+00  0.00000000000E+00 -0.90276319518E+03  0.10119453542E+04  0.45722206119E+03 0.  0.
      99925    2    3    3    0    0 -0.50619177613E+02  0.96255949684E+02 -0.48245728580E+03  0.56013557721E+03  0.26298160247E+03 0.  0.
         25    1    3    3    0    0  0.50619177613E+02 -0.96255949684E+02 -0.42030590938E+03  0.45180977695E+03  0.12509000000E+03 0.  0.
         25    1    4    4    0    0 -0.11283830374E+02  0.85223461178E+02 -0.23256400019E+03  0.27771187487E+03  0.12509000000E+03 0.  0.
         25    1    4    4    0    0 -0.39335347239E+02  0.11032488507E+02 -0.24989328562E+03  0.28242370234E+03  0.12509000000E+03 0.  0.
<mgrwt>
<rscale>  2 0.45722206E+03</rscale>
<asrwt>0</asrwt>
<pdfrwt beam="1">  1       21 0.80281001E-02 0.45722206E+03</pdfrwt>
<pdfrwt beam="2">  1       21 0.14078739E+00 0.45722206E+03</pdfrwt>
<totfact> 0.38040995E+04</totfact>
</mgrwt>
</event>
<event>
 7    0  0.4766352E-002  0.4812095E+03  0.7546771E-02  0.1018803E+00
         21   -1    0    0  502  501  0.00000000000E+00  0.00000000000E+00  0.23501031185E+03  0.23501031185E+03  0.00000000000E+00 0.  1.
         21   -1    0    0  501  502 -0.00000000000E+00 -0.00000000000E+00 -0.24633232992E+03  0.24633232992E+03  0.00000000000E+00 0.  1.
      99926    2    1    2    0    0 -0.17763568394E-14 -0.71054273576E-14 -0.11322018064E+02  0.48134264177E+03  0.48120946654E+03 0.  0.
      99925    2    3    3    0    0  0.10393432130E+02  0.63889060235E+02 -0.12694741099E+03  0.29911592848E+03  0.26299212548E+03 0.  0.
         25    1    3    3    0    0 -0.10393432130E+02 -0.63889060235E+02  0.11562539292E+03  0.18222671329E+03  0.12509000000E+03 0.  0.
         25    1    4    4    0    0  0.11118144943E+02  0.61782999229E+02 -0.36211622055E+02  0.14456673827E+03  0.12509000000E+03 0.  0.
         25    1    4    4    0    0 -0.72471281265E+00  0.21060610055E+01 -0.90735788931E+02  0.15454919021E+03  0.12509000000E+03 0.  0.
<mgrwt>
<rscale>  2 0.48120947E+03</rscale>
<asrwt>0</asrwt>
<pdfrwt beam="1">  1       21 0.34560340E-01 0.48120947E+03</pdfrwt>
<pdfrwt beam="2">  1       21 0.36225342E-01 0.48120947E+03</pdfrwt>
<totfact> 0.54367075E+04</totfact>
</mgrwt>
</event>
<event>
 7    0  0.4766352E-002  0.4542473E+03  0.7546771E-02  0.1026463E+00
         21   -1    0    0  502  501  0.00000000000E+00  0.00000000000E+00  0.17764436955E+03  0.17764436955E+03  0.00000000000E+00 0.  1.
         21   -1    0    0  501  502 -0.00000000000E+00 -0.00000000000E+00 -0.29038443680E+03  0.29038443680E+03  0.00000000000E+00 0.  1.
      99926    2    1    2    0    0  0.00000000000E+00  0.00000000000E+00 -0.11274006726E+03  0.46802880635E+03  0.45424733440E+03 0.  0.
      99925    2    3    3    0    0  0.83174516214E+02  0.39512971259E+02 -0.13752798133E+03  0.31073537410E+03  0.26298907206E+03 0.  0.
         25    1    4    4    0    0  0.67546268041E+02  0.23934076118E+02 -0.37238016886E+02  0.14889431261E+03  0.12509000000E+03 0.  0.
         25    1    3    3    0    0 -0.83174516214E+02 -0.39512971259E+02  0.24787914076E+02  0.15729343225E+03  0.12509000000E+03 0.  0.
         25    1    4    4    0    0  0.15628248173E+02  0.15578895141E+02 -0.10028996445E+03  0.16184106149E+03  0.12509000000E+03 0.  0.
<mgrwt>
<rscale>  2 0.45424733E+03</rscale>
<asrwt>0</asrwt>
<pdfrwt beam="1">  1       21 0.26124172E-01 0.45424733E+03</pdfrwt>
<pdfrwt beam="2">  1       21 0.42703593E-01 0.45424733E+03</pdfrwt>
<totfact> 0.67987686E+04</totfact>
</mgrwt>
</event>
<event>
 7    0  0.4766352E-002  0.4502282E+03  0.7546771E-02  0.1027654E+00
         21   -1    0    0  502  501  0.00000000000E+00  0.00000000000E+00  0.54516084205E+02  0.54516084205E+02  0.00000000000E+00 0. -1.
         21   -1    0    0  501  502 -0.00000000000E+00 -0.00000000000E+00 -0.92956689689E+03  0.92956689689E+03  0.00000000000E+00 0. -1.
      99926    2    1    2    0    0  0.14210854715E-13  0.00000000000E+00 -0.87505081268E+03  0.98408298109E+03  0.45022815205E+03 0.  0.
      99925    2    3    3    0    0  0.84728380824E+02  0.41720094537E+02 -0.43615035410E+03  0.51803514508E+03  0.26308518650E+03 0.  0.
         25    1    3    3    0    0 -0.84728380824E+02 -0.41720094537E+02 -0.43890045858E+03  0.46604783601E+03  0.12509000000E+03 0.  0.
         25    1    4    4    0    0  0.25568009710E+02  0.22328199903E+02 -0.14124329373E+03  0.19170145476E+03  0.12509000000E+03 0.  0.
         25    1    4    4    0    0  0.59160371114E+02  0.19391894634E+02 -0.29490706036E+03  0.32633369032E+03  0.12509000000E+03 0.  0.
<mgrwt>
<rscale>  2 0.45022815E+03</rscale>
<asrwt>0</asrwt>
<pdfrwt beam="1">  1       21 0.80170717E-02 0.45022815E+03</pdfrwt>
<pdfrwt beam="2">  1       21 0.13670101E+00 0.45022815E+03</pdfrwt>
<totfact> 0.41309794E+04</totfact>
</mgrwt>
</event>
<event>
 7    0  0.4766352E-002  0.4616123E+03  0.7546771E-02  0.1024315E+00
         21   -1    0    0  502  501  0.00000000000E+00  0.00000000000E+00  0.81773924088E+02  0.81773924088E+02  0.00000000000E+00 0.  1.
         21   -1    0    0  501  502 -0.00000000000E+00 -0.00000000000E+00 -0.65144832712E+03  0.65144832712E+03  0.00000000000E+00 0.  1.
      99926    2    1    2    0    0 -0.35527136788E-14 -0.14210854715E-13 -0.56967440303E+03  0.73322225120E+03  0.46161233107E+03 0.  0.
      99925    2    3    3    0    0  0.30358703499E+02  0.10558240372E+03 -0.28232530365E+03  0.40112842731E+03  0.26292041241E+03 0.  0.
         25    1    4    4    0    0  0.26823326289E+02  0.18160086498E+02 -0.15899578944E+03  0.20488154806E+03  0.12509000000E+03 0.  0.
         25    1    3    3    0    0 -0.30358703499E+02 -0.10558240372E+03 -0.28734909938E+03  0.33209382389E+03  0.12509000000E+03 0.  0.
         25    1    4    4    0    0  0.35353772109E+01  0.87422317226E+02 -0.12332951421E+03  0.19624687925E+03  0.12509000000E+03 0.  0.
<mgrwt>
<rscale>  2 0.46161233E+03</rscale>
<asrwt>0</asrwt>
<pdfrwt beam="1">  1       21 0.12025577E-01 0.46161233E+03</pdfrwt>
<pdfrwt beam="2">  1       21 0.95801229E-01 0.46161233E+03</pdfrwt>
<totfact> 0.48561546E+04</totfact>
</mgrwt>
</event>
<event>
 7    0  0.4766352E-002  0.4431154E+03  0.7546771E-02  0.1029795E+00
         21   -1    0    0  502  501  0.00000000000E+00  0.00000000000E+00  0.88485362037E+02  0.88485362037E+02  0.00000000000E+00 0.  1.
         21   -1    0    0  501  502 -0.00000000000E+00 -0.00000000000E+00 -0.55475620634E+03  0.55475620634E+03  0.00000000000E+00 0.  1.
      99926    2    1    2    0    0 -0.17763568394E-14 -0.14210854715E-13 -0.46627084430E+03  0.64324156837E+03  0.44311535184E+03 0.  0.
      99925    2    3    3    0    0 -0.95043036587E+01 -0.81112485766E+02 -0.38440727290E+03  0.47289275107E+03  0.26303808739E+03 0.  0.
         25    1    4    4    0    0  0.15287022930E+02 -0.39403258825E+02 -0.25141767837E+03  0.28398004678E+03  0.12509000000E+03 0.  0.
         25    1    4    4    0    0 -0.24791326589E+02 -0.41709226941E+02 -0.13298959453E+03  0.18891270428E+03  0.12509000000E+03 0.  0.
         25    1    3    3    0    0  0.95043036587E+01  0.81112485766E+02 -0.81863571402E+02  0.17034881731E+03  0.12509000000E+03 0.  0.
<mgrwt>
<rscale>  2 0.44311535E+03</rscale>
<asrwt>0</asrwt>
<pdfrwt beam="1">  1       21 0.13012553E-01 0.44311535E+03</pdfrwt>
<pdfrwt beam="2">  1       21 0.81581797E-01 0.44311535E+03</pdfrwt>
<totfact> 0.61675500E+04</totfact>
</mgrwt>
</event>
<event>
 7    0  0.4766352E-002  0.4568022E+03  0.7546771E-02  0.1025713E+00
         21   -1    0    0  502  501  0.00000000000E+00  0.00000000000E+00  0.22745873386E+03  0.22745873386E+03  0.00000000000E+00 0.  1.
         21   -1    0    0  501  502 -0.00000000000E+00 -0.00000000000E+00 -0.22934734047E+03  0.22934734047E+03  0.00000000000E+00 0.  1.
      99926    2    1    2    0    0  0.71054273576E-14  0.00000000000E+00 -0.18886066056E+01  0.45680607433E+03  0.45680217021E+03 0.  0.
      99925    2    3    3    0    0 -0.43047294766E+02 -0.39453669849E+02 -0.10015002473E+03  0.28735851299E+03  0.26293578282E+03 0.  0.
         25    1    4    4    0    0 -0.61131866039E+02 -0.10861099420E+02 -0.47925040620E+02  0.14764615181E+03  0.12509000000E+03 0.  0.
         25    1    3    3    0    0  0.43047294766E+02  0.39453669849E+02  0.98261418122E+02  0.16944756134E+03  0.12509000000E+03 0.  0.
         25    1    4    4    0    0  0.18084571274E+02 -0.28592570429E+02 -0.52224984108E+02  0.13971236118E+03  0.12509000000E+03 0.  0.
<mgrwt>
<rscale>  2 0.45680217E+03</rscale>
<asrwt>0</asrwt>
<pdfrwt beam="1">  1       21 0.33449814E-01 0.45680217E+03</pdfrwt>
<pdfrwt beam="2">  1       21 0.33727550E-01 0.45680217E+03</pdfrwt>
<totfact> 0.67438719E+04</totfact>
</mgrwt>
</event>
<event>
 7    0  0.4766352E-002  0.4571236E+03  0.7546771E-02  0.1025619E+00
         21   -1    0    0  502  501  0.00000000000E+00  0.00000000000E+00  0.25523520395E+03  0.25523520395E+03  0.00000000000E+00 0.  1.
         21   -1    0    0  501  502 -0.00000000000E+00 -0.00000000000E+00 -0.20467590306E+03  0.20467590306E+03  0.00000000000E+00 0.  1.
      99926    2    1    2    0    0  0.00000000000E+00 -0.14210854715E-13  0.50559300895E+02  0.45991110701E+03  0.45712359756E+03 0.  0.
      99925    2    3    3    0    0  0.53347595097E+02  0.95830654196E+02 -0.33340324951E+01  0.28503549501E+03  0.26306774310E+03 0.  0.
         25    1    4    4    0    0  0.40363011748E+02  0.11705375694E+02 -0.17287705027E+02  0.13308854715E+03  0.12509000000E+03 0.  0.
         25    1    4    4    0    0  0.12984583349E+02  0.84125278502E+02  0.13953672532E+02  0.15194694786E+03  0.12509000000E+03 0.  0.
         25    1    3    3    0    0 -0.53347595097E+02 -0.95830654196E+02  0.53893333390E+02  0.17487561199E+03  0.12509000000E+03 0.  0.
<mgrwt>
<rscale>  2 0.45712360E+03</rscale>
<asrwt>0</asrwt>
<pdfrwt beam="1">  1       21 0.37534589E-01 0.45712360E+03</pdfrwt>
<pdfrwt beam="2">  1       21 0.30099397E-01 0.45712360E+03</pdfrwt>
<totfact> 0.67044281E+04</totfact>
</mgrwt>
</event>
<event>
 7    0  0.4766352E-002  0.4359512E+03  0.7546771E-02  0.1031996E+00
         21   -1    0    0  502  501  0.00000000000E+00  0.00000000000E+00  0.48094170795E+02  0.48094170795E+02  0.00000000000E+00 0.  1.
         21   -1    0    0  501  502 -0.00000000000E+00 -0.00000000000E+00 -0.98792355006E+03  0.98792355006E+03  0.00000000000E+00 0.  1.
      99926    2    1    2    0    0  0.00000000000E+00  0.00000000000E+00 -0.93982937926E+03  0.10360177209E+04  0.43595120804E+03 0.  0.
      99925    2    3    3    0    0 -0.37797871233E+02  0.68658893142E+02 -0.72668810097E+03  0.77675060900E+03  0.26291289396E+03 0.  0.
         25    1    4    4    0    0 -0.50306198266E+02  0.38142198240E+02 -0.30458374868E+03  0.33526751845E+03  0.12509000000E+03 0.  0.
         25    1    3    3    0    0  0.37797871233E+02 -0.68658893142E+02 -0.21314127829E+03  0.25926711185E+03  0.12509000000E+03 0.  0.
         25    1    4    4    0    0  0.12508327033E+02  0.30516694902E+02 -0.42210435230E+03  0.44148309055E+03  0.12509000000E+03 0.  0.
<mgrwt>
<rscale>  2 0.43595121E+03</rscale>
<asrwt>0</asrwt>
<pdfrwt beam="1">  1       21 0.70726717E-02 0.43595121E+03</pdfrwt>
<pdfrwt beam="2">  1       21 0.14528289E+00 0.43595121E+03</pdfrwt>
<totfact> 0.43979469E+04</totfact>
</mgrwt>
</event>
<event>
 7    0  0.4766352E-002  0.4508535E+03  0.7546771E-02  0.1027468E+00
         21   -1    0    0  502  501  0.00000000000E+00  0.00000000000E+00  0.99492514375E+03  0.99492514375E+03  0.00000000000E+00 0. -1.
         21   -1    0    0  501  502 -0.00000000000E+00 -0.00000000000E+00 -0.51076420581E+02  0.51076420581E+02  0.00000000000E+00 0. -1.
      99926    2    1    2    0    0  0.00000000000E+00  0.00000000000E+00  0.94384872317E+03  0.10460015643E+04  0.45085347992E+03 0.  0.
      99925    2    3    3    0    0  0.28877801654E+02  0.10303797477E+03  0.64755721158E+03  0.70705183412E+03  0.26294714713E+03 0.  0.
         25    1    4    4    0    0  0.44871208626E-01  0.62797673649E+02  0.41993198946E+03  0.44264425185E+03  0.12509000000E+03 0.  0.
         25    1    3    3    0    0 -0.28877801654E+02 -0.10303797477E+03  0.29629151159E+03  0.33894973021E+03  0.12509000000E+03 0.  0.
         25    1    4    4    0    0  0.28832930446E+02  0.40240301118E+02  0.22762522213E+03  0.26440758227E+03  0.12509000000E+03 0.  0.
<mgrwt>
<rscale>  2 0.45085348E+03</rscale>
<asrwt>0</asrwt>
<pdfrwt beam="1">  1       21 0.14631251E+00 0.45085348E+03</pdfrwt>
<pdfrwt beam="2">  1       21 0.75112390E-02 0.45085348E+03</pdfrwt>
<totfact> 0.38660655E+04</totfact>
</mgrwt>
</event>
<event>
 7    0  0.4766352E-002  0.4585086E+03  0.7546771E-02  0.1025215E+00
         21   -1    0    0  502  501  0.00000000000E+00  0.00000000000E+00  0.37602225928E+03  0.37602225928E+03  0.00000000000E+00 0. -1.
         21   -1    0    0  501  502 -0.00000000000E+00 -0.00000000000E+00 -0.13977242460E+03  0.13977242460E+03  0.00000000000E+00 0. -1.
      99926    2    1    2    0    0 -0.13322676296E-14  0.14210854715E-13  0.23624983467E+03  0.51579468388E+03  0.45850863845E+03 0.  0.
      99925    2    3    3    0    0  0.26460952822E+01 -0.11569015543E+03  0.16238546033E+03  0.33006728208E+03  0.26302881798E+03 0.  0.
         25    1    3    3    0    0 -0.26460952822E+01  0.11569015543E+03  0.73864374340E+02  0.18572740180E+03  0.12509000000E+03 0.  0.
         25    1    4    4    0    0  0.36442641833E+02 -0.36414029071E+02  0.70776936389E+02  0.15267917501E+03  0.12509000000E+03 0.  0.
         25    1    4    4    0    0 -0.33796546551E+02 -0.79276126363E+02  0.91608523943E+02  0.17738810707E+03  0.12509000000E+03 0.  0.
<mgrwt>
<rscale>  2 0.45850864E+03</rscale>
<asrwt>0</asrwt>
<pdfrwt beam="1">  1       21 0.55297391E-01 0.45850864E+03</pdfrwt>
<pdfrwt beam="2">  1       21 0.20554768E-01 0.45850864E+03</pdfrwt>
<totfact> 0.62418612E+04</totfact>
</mgrwt>
</event>
<event>
 7    0  0.4766352E-002  0.4508178E+03  0.7546771E-02  0.1027478E+00
         21   -1    0    0  502  501  0.00000000000E+00  0.00000000000E+00  0.14276351804E+03  0.14276351804E+03  0.00000000000E+00 0. -1.
         21   -1    0    0  501  502 -0.00000000000E+00 -0.00000000000E+00 -0.35589745561E+03  0.35589745561E+03  0.00000000000E+00 0. -1.
      99926    2    1    2    0    0  0.00000000000E+00  0.00000000000E+00 -0.21313393757E+03  0.49866097365E+03  0.45081780277E+03 0.  0.
      99925    2    3    3    0    0  0.74289802512E+02  0.76495340396E+02 -0.10828854201E+03  0.30369795938E+03  0.26293636177E+03 0.  0.
         25    1    4    4    0    0  0.61836167702E+02  0.41053016667E+02 -0.21871827069E+02  0.14708822772E+03  0.12509000000E+03 0.  0.
         25    1    4    4    0    0  0.12453634810E+02  0.35442323729E+02 -0.86416714945E+02  0.15660973167E+03  0.12509000000E+03 0.  0.
         25    1    3    3    0    0 -0.74289802512E+02 -0.76495340396E+02 -0.10484539556E+03  0.19496301426E+03  0.12509000000E+03 0.  0.
<mgrwt>
<rscale>  2 0.45081780E+03</rscale>
<asrwt>0</asrwt>
<pdfrwt beam="1">  1       21 0.20994635E-01 0.45081780E+03</pdfrwt>
<pdfrwt beam="2">  1       21 0.52337861E-01 0.45081780E+03</pdfrwt>
<totfact> 0.67580657E+04</totfact>
</mgrwt>
</event>
<event>
 7    0  0.4766352E-002  0.4606626E+03  0.7546771E-02  0.1024589E+00
         21   -1    0    0  502  501  0.00000000000E+00  0.00000000000E+00  0.16969529208E+03  0.16969529208E+03  0.00000000000E+00 0.  1.
         21   -1    0    0  501  502 -0.00000000000E+00 -0.00000000000E+00 -0.31263398636E+03  0.31263398636E+03  0.00000000000E+00 0.  1.
      99926    2    1    2    0    0  0.00000000000E+00  0.00000000000E+00 -0.14293869428E+03  0.48232927845E+03  0.46066263417E+03 0.  0.
      99925    2    3    3    0    0 -0.43609398227E+02  0.33009094201E+01 -0.20469814281E+03  0.33612937011E+03  0.26299990145E+03 0.  0.
         25    1    4    4    0    0  0.14568082630E+02 -0.63992844368E+01 -0.11930519336E+03  0.17359267593E+03  0.12509000000E+03 0.  0.
         25    1    4    4    0    0 -0.58177480857E+02  0.97001938570E+01 -0.85392949447E+02  0.16253669418E+03  0.12509000000E+03 0.  0.
         25    1    3    3    0    0  0.43609398227E+02 -0.33009094201E+01  0.61759448522E+02  0.14619990834E+03  0.12509000000E+03 0.  0.
<mgrwt>
<rscale>  2 0.46066263E+03</rscale>
<asrwt>0</asrwt>
<pdfrwt beam="1">  1       21 0.24955190E-01 0.46066263E+03</pdfrwt>
<pdfrwt beam="2">  1       21 0.45975585E-01 0.46066263E+03</pdfrwt>
<totfact> 0.63622934E+04</totfact>
</mgrwt>
</event>
<event>
 7    0  0.4766352E-002  0.4576944E+03  0.7546771E-02  0.1025452E+00
         21   -1    0    0  502  501  0.00000000000E+00  0.00000000000E+00  0.25283959994E+03  0.25283959994E+03  0.00000000000E+00 0. -1.
         21   -1    0    0  501  502 -0.00000000000E+00 -0.00000000000E+00 -0.20713149764E+03  0.20713149764E+03  0.00000000000E+00 0. -1.
      99926    2    1    2    0    0  0.00000000000E+00 -0.28421709430E-13  0.45708102297E+02  0.45997109758E+03  0.45769441770E+03 0.  0.
      99925    2    3    3    0    0  0.68607172430E+02  0.89777880189E+02  0.38493021859E+01  0.28628552211E+03  0.26301629448E+03 0.  0.
         25    1    4    4    0    0  0.48592890331E+02  0.67643953270E+02 -0.30130169267E+02  0.15327200855E+03  0.12509000000E+03 0.  0.
         25    1    4    4    0    0  0.20014282099E+02  0.22133926919E+02  0.33979471452E+02  0.13301351356E+03  0.12509000000E+03 0.  0.
         25    1    3    3    0    0 -0.68607172430E+02 -0.89777880189E+02  0.41858800111E+02  0.17368557547E+03  0.12509000000E+03 0.  0.
<mgrwt>
<rscale>  2 0.45769442E+03</rscale>
<asrwt>0</asrwt>
<pdfrwt beam="1">  1       21 0.37182294E-01 0.45769442E+03</pdfrwt>
<pdfrwt beam="2">  1       21 0.30460514E-01 0.45769442E+03</pdfrwt>
<totfact> 0.66736867E+04</totfact>
</mgrwt>
</event>
<event>
 7    0  0.4766352E-002  0.4535049E+03  0.7546771E-02  0.1026682E+00
         21   -1    0    0  502  501  0.00000000000E+00  0.00000000000E+00  0.14563799590E+03  0.14563799590E+03  0.00000000000E+00 0.  1.
         21   -1    0    0  501  502 -0.00000000000E+00 -0.00000000000E+00 -0.35304434286E+03  0.35304434286E+03  0.00000000000E+00 0.  1.
      99926    2    1    2    0    0  0.00000000000E+00  0.00000000000E+00 -0.20740634696E+03  0.49868233875E+03  0.45350488666E+03 0.  0.
      99925    2    3    3    0    0 -0.42273444062E+02 -0.87736109246E+02 -0.19071776454E+03  0.33927504337E+03  0.26315322610E+03 0.  0.
         25    1    4    4    0    0  0.11715179724E+02 -0.67523113773E+02 -0.90174196342E+02  0.16874688179E+03  0.12509000000E+03 0.  0.
         25    1    4    4    0    0 -0.53988623786E+02 -0.20212995472E+02 -0.10054356820E+03  0.17052816158E+03  0.12509000000E+03 0.  0.
         25    1    3    3    0    0  0.42273444062E+02  0.87736109246E+02 -0.16688582414E+02  0.15940729538E+03  0.12509000000E+03 0.  0.
<mgrwt>
<rscale>  2 0.45350489E+03</rscale>
<asrwt>0</asrwt>
<pdfrwt beam="1">  1       21 0.21417352E-01 0.45350489E+03</pdfrwt>
<pdfrwt beam="2">  1       21 0.51918286E-01 0.45350489E+03</pdfrwt>
<totfact> 0.66144882E+04</totfact>
</mgrwt>
</event>
<event>
 7    0  0.4766352E-002  0.4561754E+03  0.7546771E-02  0.1025896E+00
         21   -1    0    0  502  501  0.00000000000E+00  0.00000000000E+00  0.31063858580E+03  0.31063858580E+03  0.00000000000E+00 0.  1.
         21   -1    0    0  501  502 -0.00000000000E+00 -0.00000000000E+00 -0.16747438685E+03  0.16747438685E+03  0.00000000000E+00 0.  1.
      99926    2    1    2    0    0  0.00000000000E+00 -0.35527136788E-14  0.14316419895E+03  0.47811297266E+03  0.45617543420E+03 0.  0.
      99925    2    3    3    0    0  0.55989046739E+02  0.27646941509E+02  0.19020885269E+03  0.33060082308E+03  0.26309384228E+03 0.  0.
         25    1    4    4    0    0 -0.14436717261E+01 -0.15254677701E+02  0.95098968230E+02  0.15788005333E+03  0.12509000000E+03 0.  0.
         25    1    3    3    0    0 -0.55989046739E+02 -0.27646941509E+02 -0.47044653738E+02  0.14751214958E+03  0.12509000000E+03 0.  0.
         25    1    4    4    0    0  0.57432718465E+02  0.42901619210E+02  0.95109884457E+02  0.17272076975E+03  0.12509000000E+03 0.  0.
<mgrwt>
<rscale>  2 0.45617543E+03</rscale>
<asrwt>0</asrwt>
<pdfrwt beam="1">  1       21 0.45682145E-01 0.45617543E+03</pdfrwt>
<pdfrwt beam="2">  1       21 0.24628586E-01 0.45617543E+03</pdfrwt>
<totfact> 0.66217804E+04</totfact>
</mgrwt>
</event>
<event>
 7    0  0.4766352E-002  0.4675484E+03  0.7546771E-02  0.1022614E+00
         21   -1    0    0  502  501  0.00000000000E+00  0.00000000000E+00  0.60524990727E+03  0.60524990727E+03  0.00000000000E+00 0. -1.
         21   -1    0    0  501  502 -0.00000000000E+00 -0.00000000000E+00 -0.90293885893E+02  0.90293885893E+02  0.00000000000E+00 0. -1.
      99926    2    1    2    0    0  0.00000000000E+00  0.00000000000E+00  0.51495602138E+03  0.69554379316E+03  0.46754835499E+03 0.  0.
      99925    2    3    3    0    0 -0.28128413291E+02  0.10219681457E+03  0.22314305491E+03  0.36082344416E+03  0.26299303861E+03 0.  0.
         25    1    4    4    0    0 -0.38969515428E+02  0.19801318281E+02  0.90603555290E+02  0.16052173582E+03  0.12509000000E+03 0.  0.
         25    1    3    3    0    0  0.28128413291E+02 -0.10219681457E+03  0.29181296647E+03  0.33472034901E+03  0.12509000000E+03 0.  0.
         25    1    4    4    0    0  0.10841102137E+02  0.82395496285E+02  0.13253949962E+03  0.20030170834E+03  0.12509000000E+03 0.  0.
<mgrwt>
<rscale>  2 0.46754835E+03</rscale>
<asrwt>0</asrwt>
<pdfrwt beam="1">  1       21 0.89007337E-01 0.46754835E+03</pdfrwt>
<pdfrwt beam="2">  1       21 0.13278513E-01 0.46754835E+03</pdfrwt>
<totfact> 0.48203288E+04</totfact>
</mgrwt>
</event>
<event>
 7    0  0.4766352E-002  0.4503944E+03  0.7546771E-02  0.1027604E+00
         21   -1    0    0  502  501  0.00000000000E+00  0.00000000000E+00  0.13896630661E+03  0.13896630661E+03  0.00000000000E+00 0.  1.
         21   -1    0    0  501  502 -0.00000000000E+00 -0.00000000000E+00 -0.36493575977E+03  0.36493575977E+03  0.00000000000E+00 0.  1.
      99926    2    1    2    0    0  0.00000000000E+00  0.00000000000E+00 -0.22596945317E+03  0.50390206638E+03  0.45039438133E+03 0.  0.
      99925    2    3    3    0    0 -0.32247411849E+02 -0.16678510560E+02 -0.25723119317E+03  0.36995105753E+03  0.26339671589E+03 0.  0.
         25    1    3    3    0    0  0.32247411849E+02  0.16678510560E+02  0.31261739996E+02  0.13395100885E+03  0.12509000000E+03 0.  0.
         25    1    4    4    0    0 -0.17707093476E+02  0.13470129895E+02 -0.78875386006E+02  0.14954537832E+03  0.12509000000E+03 0.  0.
         25    1    4    4    0    0 -0.14540318373E+02 -0.30148640456E+02 -0.17835580716E+03  0.22040567921E+03  0.12509000000E+03 0.  0.
<mgrwt>
<rscale>  2 0.45039438E+03</rscale>
<asrwt>0</asrwt>
<pdfrwt beam="1">  1       21 0.20436222E-01 0.45039438E+03</pdfrwt>
<pdfrwt beam="2">  1       21 0.53667023E-01 0.45039438E+03</pdfrwt>
<totfact> 0.67428726E+04</totfact>
</mgrwt>
</event>
<event>
 7    0  0.4766352E-002  0.4529020E+03  0.7546771E-02  0.1026860E+00
         21   -1    0    0  502  501  0.00000000000E+00  0.00000000000E+00  0.10278507670E+04  0.10278507670E+04  0.00000000000E+00 0.  1.
         21   -1    0    0  501  502 -0.00000000000E+00 -0.00000000000E+00 -0.49890570222E+02  0.49890570222E+02  0.00000000000E+00 0.  1.
      99926    2    1    2    0    0  0.71054273576E-14  0.00000000000E+00  0.97796019676E+03  0.10777413372E+04  0.45290202414E+03 0.  0.
      99925    2    3    3    0    0 -0.58576029830E+02 -0.93880862310E+02  0.64235491345E+03  0.70287711930E+03  0.26300502357E+03 0.  0.
         25    1    3    3    0    0  0.58576029830E+02  0.93880862310E+02  0.33560528331E+03  0.37486421790E+03  0.12509000000E+03 0.  0.
         25    1    4    4    0    0  0.11386872497E+02 -0.52127735423E+02  0.31326795798E+03  0.34151322560E+03  0.12509000000E+03 0.  0.
         25    1    4    4    0    0 -0.69962902327E+02 -0.41753126887E+02  0.32908695547E+03  0.36136389369E+03  0.12509000000E+03 0.  0.
<mgrwt>
<rscale>  2 0.45290202E+03</rscale>
<asrwt>0</asrwt>
<pdfrwt beam="1">  1       21 0.15115451E+00 0.45290202E+03</pdfrwt>
<pdfrwt beam="2">  1       21 0.73368492E-02 0.45290202E+03</pdfrwt>
<totfact> 0.36875634E+04</totfact>
</mgrwt>
</event>
<event>
 7    0  0.4766352E-002  0.4511956E+03  0.7546771E-02  0.1027366E+00
         21   -1    0    0  502  501  0.00000000000E+00  0.00000000000E+00  0.65157989846E+03  0.65157989846E+03  0.00000000000E+00 0. -1.
         21   -1    0    0  501  502 -0.00000000000E+00 -0.00000000000E+00 -0.78109190544E+02  0.78109190544E+02  0.00000000000E+00 0. -1.
      99926    2    1    2    0    0 -0.17763568394E-14  0.00000000000E+00  0.57347070792E+03  0.72968908901E+03  0.45119564911E+03 0.  0.
      99925    2    3    3    0    0  0.65283682112E+01  0.80259871242E+02  0.48234601160E+03  0.55523140100E+03  0.26294479884E+03 0.  0.
         25    1    3    3    0    0 -0.65283682112E+01 -0.80259871242E+02  0.91124696324E+02  0.17445768800E+03  0.12509000000E+03 0.  0.
         25    1    4    4    0    0 -0.24512747195E+02  0.65284293658E+02  0.21923930490E+03  0.26187075951E+03  0.12509000000E+03 0.  0.
         25    1    4    4    0    0  0.31041115406E+02  0.14975577584E+02  0.26310670670E+03  0.29336064150E+03  0.12509000000E+03 0.  0.
<mgrwt>
<rscale>  2 0.45119565E+03</rscale>
<asrwt>0</asrwt>
<pdfrwt beam="1">  1       21 0.95820571E-01 0.45119565E+03</pdfrwt>
<pdfrwt beam="2">  1       21 0.11486646E-01 0.45119565E+03</pdfrwt>
<totfact> 0.52884955E+04</totfact>
</mgrwt>
</event>
<event>
 7    0  0.4766352E-002  0.4455006E+03  0.7546771E-02  0.1029072E+00
         21   -1    0    0  502  501  0.00000000000E+00  0.00000000000E+00  0.15505113957E+03  0.15505113957E+03  0.00000000000E+00 0.  1.
         21   -1    0    0  501  502 -0.00000000000E+00 -0.00000000000E+00 -0.32000856227E+03  0.32000856227E+03  0.00000000000E+00 0.  1.
      99926    2    1    2    0    0 -0.35527136788E-14  0.00000000000E+00 -0.16495742269E+03  0.47505970184E+03  0.44550058251E+03 0.  0.
      99925    2    3    3    0    0 -0.25060270863E+02  0.43567711655E+02 -0.20177264438E+03  0.33531339126E+03  0.26305267089E+03 0.  0.
         25    1    3    3    0    0  0.25060270863E+02 -0.43567711655E+02  0.36815221687E+02  0.13974631059E+03  0.12509000000E+03 0.  0.
         25    1    4    4    0    0 -0.45401498259E+02  0.31506926479E+02 -0.13234450342E+03  0.19030648477E+03  0.12509000000E+03 0.  0.
         25    1    4    4    0    0  0.20341227396E+02  0.12060785177E+02 -0.69428140955E+02  0.14500690648E+03  0.12509000000E+03 0.  0.
<mgrwt>
<rscale>  2 0.44550058E+03</rscale>
<asrwt>0</asrwt>
<pdfrwt beam="1">  1       21 0.22801639E-01 0.44550058E+03</pdfrwt>
<pdfrwt beam="2">  1       21 0.47060082E-01 0.44550058E+03</pdfrwt>
<totfact> 0.72366023E+04</totfact>
</mgrwt>
</event>
<event>
 7    0  0.4766352E-002  0.4518816E+03  0.7546771E-02  0.1027162E+00
         21   -1    0    0  502  501  0.00000000000E+00  0.00000000000E+00  0.39203385511E+03  0.39203385511E+03  0.00000000000E+00 0. -1.
         21   -1    0    0  501  502 -0.00000000000E+00 -0.00000000000E+00 -0.13021643732E+03  0.13021643732E+03  0.00000000000E+00 0. -1.
      99926    2    1    2    0    0  0.00000000000E+00  0.71054273576E-14  0.26181741779E+03  0.52225029243E+03  0.45188163017E+03 0.  0.
      99925    2    3    3    0    0 -0.10267620817E+03 -0.37732841637E+02  0.14990268683E+03  0.32190412659E+03  0.26303094900E+03 0.  0.
         25    1    4    4    0    0 -0.63116368021E+02 -0.36135675313E+02  0.38365009826E+02  0.14969584170E+03  0.12509000000E+03 0.  0.
         25    1    3    3    0    0  0.10267620817E+03  0.37732841637E+02  0.11191473096E+03  0.20034616584E+03  0.12509000000E+03 0.  0.
         25    1    4    4    0    0 -0.39559840151E+02 -0.15971663244E+01  0.11153767701E+03  0.17220828489E+03  0.12509000000E+03 0.  0.
<mgrwt>
<rscale>  2 0.45188163E+03</rscale>
<asrwt>0</asrwt>
<pdfrwt beam="1">  1       21 0.57652037E-01 0.45188163E+03</pdfrwt>
<pdfrwt beam="2">  1       21 0.19149476E-01 0.45188163E+03</pdfrwt>
<totfact> 0.65334399E+04</totfact>
</mgrwt>
</event>
<event>
 7    0  0.4766352E-002  0.4554056E+03  0.7546771E-02  0.1026122E+00
         21   -1    0    0  502  501  0.00000000000E+00  0.00000000000E+00  0.10528828536E+04  0.10528828536E+04  0.00000000000E+00 0.  1.
         21   -1    0    0  501  502 -0.00000000000E+00 -0.00000000000E+00 -0.49244371521E+02  0.49244371521E+02  0.00000000000E+00 0.  1.
      99926    2    1    2    0    0  0.00000000000E+00  0.00000000000E+00  0.10036384820E+04  0.11021272251E+04  0.45540555292E+03 0.  0.
      99925    2    3    3    0    0 -0.83994215863E+01 -0.89293413216E+02  0.46213616298E+03  0.53917417768E+03  0.26285946211E+03 0.  0.
         25    1    4    4    0    0 -0.12536143901E+02 -0.79497222438E+02  0.20788977119E+03  0.25562204198E+03  0.12509000000E+03 0.  0.
         25    1    4    4    0    0  0.41367223147E+01 -0.97961907777E+01  0.25424639179E+03  0.28355213570E+03  0.12509000000E+03 0.  0.
         25    1    3    3    0    0  0.83994215863E+01  0.89293413216E+02  0.54150231905E+03  0.56295304739E+03  0.12509000000E+03 0.  0.
<mgrwt>
<rscale>  2 0.45540555E+03</rscale>
<asrwt>0</asrwt>
<pdfrwt beam="1">  1       21 0.15483570E+00 0.45540555E+03</pdfrwt>
<pdfrwt beam="2">  1       21 0.72418200E-02 0.45540555E+03</pdfrwt>
<totfact> 0.35308700E+04</totfact>
</mgrwt>
</event>
<event>
 7    0  0.4766352E-002  0.4559996E+03  0.7546771E-02  0.1025948E+00
         21   -1    0    0  502  501  0.00000000000E+00  0.00000000000E+00  0.73220791701E+02  0.73220791701E+02  0.00000000000E+00 0.  1.
         21   -1    0    0  501  502 -0.00000000000E+00 -0.00000000000E+00 -0.70996117233E+03  0.70996117233E+03  0.00000000000E+00 0.  1.
      99926    2    1    2    0    0  0.00000000000E+00 -0.71054273576E-14 -0.63674038063E+03  0.78318196404E+03  0.45599964524E+03 0.  0.
      99925    2    3    3    0    0  0.72087489454E+02 -0.39144952988E+02 -0.53667430253E+03  0.60321068419E+03  0.26289710735E+03 0.  0.
         25    1    4    4    0    0  0.44609984816E+01 -0.18530484606E+02 -0.31003253706E+03  0.33485961462E+03  0.12509000000E+03 0.  0.
         25    1    4    4    0    0  0.67626490972E+02 -0.20614468382E+02 -0.22664176546E+03  0.26835106957E+03  0.12509000000E+03 0.  0.
         25    1    3    3    0    0 -0.72087489454E+02  0.39144952988E+02 -0.10006607811E+03  0.17997127984E+03  0.12509000000E+03 0.  0.
<mgrwt>
<rscale>  2 0.45599965E+03</rscale>
<asrwt>0</asrwt>
<pdfrwt beam="1">  1       21 0.10767765E-01 0.45599965E+03</pdfrwt>
<pdfrwt beam="2">  1       21 0.10440604E+00 0.45599965E+03</pdfrwt>
<totfact> 0.48209703E+04</totfact>
</mgrwt>
</event>
<event>
 7    0  0.4766352E-002  0.4542661E+03  0.7546771E-02  0.1026457E+00
         21   -1    0    0  502  501  0.00000000000E+00  0.00000000000E+00  0.16858046631E+04  0.16858046631E+04  0.00000000000E+00 0.  1.
         21   -1    0    0  501  502 -0.00000000000E+00 -0.00000000000E+00 -0.30602257837E+02  0.30602257837E+02  0.00000000000E+00 0.  1.
      99926    2    1    2    0    0  0.00000000000E+00 -0.71054273576E-14  0.16552024053E+04  0.17164069210E+04  0.45426612888E+03 0.  0.
      99925    2    3    3    0    0 -0.22949969150E+02 -0.57764394927E+02  0.68815674961E+03  0.73932543272E+03  0.26301892902E+03 0.  0.
         25    1    4    4    0    0 -0.25419349575E+02 -0.67213441799E+02  0.34483461878E+03  0.37379434520E+03  0.12509000000E+03 0.  0.
         25    1    4    4    0    0  0.24693804245E+01  0.94490468727E+01  0.34332213083E+03  0.36553108752E+03  0.12509000000E+03 0.  0.
         25    1    3    3    0    0  0.22949969150E+02  0.57764394927E+02  0.96704565566E+03  0.97708148823E+03  0.12509000000E+03 0.  0.
<mgrwt>
<rscale>  2 0.45426613E+03</rscale>
<asrwt>0</asrwt>
<pdfrwt beam="1">  1       21 0.24791239E+00 0.45426613E+03</pdfrwt>
<pdfrwt beam="2">  1       21 0.45003332E-02 0.45426613E+03</pdfrwt>
<totfact> 0.19030547E+04</totfact>
</mgrwt>
</event>
<event>
 7    0  0.4766352E-002  0.4578992E+03  0.7546771E-02  0.1025392E+00
         21   -1    0    0  502  501  0.00000000000E+00  0.00000000000E+00  0.80654142136E+02  0.80654142136E+02  0.00000000000E+00 0. -1.
         21   -1    0    0  501  502 -0.00000000000E+00 -0.00000000000E+00 -0.64990983243E+03  0.64990983243E+03  0.00000000000E+00 0. -1.
      99926    2    1    2    0    0  0.00000000000E+00  0.00000000000E+00 -0.56925569029E+03  0.73056397456E+03  0.45789920288E+03 0.  0.
      99925    2    3    3    0    0  0.13061883886E+02  0.46671442628E+02 -0.52514683784E+03  0.58934805714E+03  0.26306481103E+03 0.  0.
         25    1    4    4    0    0  0.38956858934E+02 -0.13386016300E+01 -0.25864276933E+03  0.28993623254E+03  0.12509000000E+03 0.  0.
         25    1    4    4    0    0 -0.25894975048E+02  0.48010044258E+02 -0.26650406851E+03  0.29941182461E+03  0.12509000000E+03 0.  0.
         25    1    3    3    0    0 -0.13061883886E+02 -0.46671442628E+02 -0.44108852455E+02  0.14121591742E+03  0.12509000000E+03 0.  0.
<mgrwt>
<rscale>  2 0.45789920E+03</rscale>
<asrwt>0</asrwt>
<pdfrwt beam="1">  1       21 0.11860903E-01 0.45789920E+03</pdfrwt>
<pdfrwt beam="2">  1       21 0.95574976E-01 0.45789920E+03</pdfrwt>
<totfact> 0.50122297E+04</totfact>
</mgrwt>
</event>
<event>
 7    0  0.4766352E-002  0.4393243E+03  0.7546771E-02  0.1030954E+00
         21   -1    0    0  502  501  0.00000000000E+00  0.00000000000E+00  0.42677965524E+02  0.42677965524E+02  0.00000000000E+00 0.  1.
         21   -1    0    0  501  502 -0.00000000000E+00 -0.00000000000E+00 -0.11305941157E+04  0.11305941157E+04  0.00000000000E+00 0.  1.
      99926    2    1    2    0    0 -0.14210854715E-13  0.35527136788E-14 -0.10879161501E+04  0.11732720812E+04  0.43932428429E+03 0.  0.
      99925    2    3    3    0    0 -0.78675935090E+02  0.45578376446E+01 -0.84945732998E+03  0.89269982016E+03  0.26291545564E+03 0.  0.
         25    1    4    4    0    0 -0.48193313138E+02 -0.36859194276E+02 -0.41367826508E+03  0.43641541074E+03  0.12509000000E+03 0.  0.
         25    1    3    3    0    0  0.78675935090E+02 -0.45578376446E+01 -0.23845882017E+03  0.28057226103E+03  0.12509000000E+03 0.  0.
         25    1    4    4    0    0 -0.30482621953E+02  0.41417031920E+02 -0.43577906490E+03  0.45628440942E+03  0.12509000000E+03 0.  0.
<mgrwt>
<rscale>  2 0.43932428E+03</rscale>
<asrwt>0</asrwt>
<pdfrwt beam="1">  1       21 0.62761703E-02 0.43932428E+03</pdfrwt>
<pdfrwt beam="2">  1       21 0.16626387E+00 0.43932428E+03</pdfrwt>
<totfact> 0.37375489E+04</totfact>
</mgrwt>
</event>
<event>
 7    0  0.4766352E-002  0.4547652E+03  0.7546771E-02  0.1026310E+00
         21   -1    0    0  502  501  0.00000000000E+00  0.00000000000E+00  0.40209272467E+02  0.40209272467E+02  0.00000000000E+00 0.  1.
         21   -1    0    0  501  502 -0.00000000000E+00 -0.00000000000E+00 -0.12858437723E+04  0.12858437723E+04  0.00000000000E+00 0.  1.
      99926    2    1    2    0    0  0.00000000000E+00  0.00000000000E+00 -0.12456344999E+04  0.13260530448E+04  0.45476518157E+03 0.  0.
      99925    2    3    3    0    0  0.37686235330E+02 -0.82096780842E+02 -0.58637698540E+03  0.64897984917E+03  0.26301471797E+03 0.  0.
         25    1    4    4    0    0  0.17975802476E+02 -0.57573186862E+02 -0.39040464955E+03  0.41436831420E+03  0.12509000000E+03 0.  0.
         25    1    4    4    0    0  0.19710432854E+02 -0.24523593980E+02 -0.19597233585E+03  0.23461153498E+03  0.12509000000E+03 0.  0.
         25    1    3    3    0    0 -0.37686235330E+02  0.82096780842E+02 -0.65925751447E+03  0.67707319563E+03  0.12509000000E+03 0.  0.
<mgrwt>
<rscale>  2 0.45476518E+03</rscale>
<asrwt>0</asrwt>
<pdfrwt beam="1">  1       21 0.59131283E-02 0.45476518E+03</pdfrwt>
<pdfrwt beam="2">  1       21 0.18909467E+00 0.45476518E+03</pdfrwt>
<totfact> 0.28419236E+04</totfact>
</mgrwt>
</event>
<event>
 7    0  0.4766352E-002  0.4533842E+03  0.7546771E-02  0.1026718E+00
         21   -1    0    0  502  501  0.00000000000E+00  0.00000000000E+00  0.15338059711E+02  0.15338059711E+02  0.00000000000E+00 0. -1.
         21   -1    0    0  501  502 -0.00000000000E+00 -0.00000000000E+00 -0.33504440335E+04  0.33504440335E+04  0.00000000000E+00 0. -1.
      99926    2    1    2    0    0  0.35527136788E-14  0.00000000000E+00 -0.33351059738E+04  0.33657820932E+04  0.45338421078E+03 0.  0.
      99925    2    3    3    0    0  0.13439058084E+02  0.70688171805E+02 -0.14683917619E+04  0.14934982251E+04  0.26303071298E+03 0.  0.
         25    1    4    4    0    0  0.38160453970E+02  0.60037353694E+02 -0.71860738557E+03  0.73287433219E+03  0.12509000000E+03 0.  0.
         25    1    4    4    0    0 -0.24721395885E+02  0.10650818111E+02 -0.74978437633E+03  0.76062389289E+03  0.12509000000E+03 0.  0.
         25    1    3    3    0    0 -0.13439058084E+02 -0.70688171805E+02 -0.18667142119E+04  0.18722838681E+04  0.12509000000E+03 0.  0.
<mgrwt>
<rscale>  2 0.45338421E+03</rscale>
<asrwt>0</asrwt>
<pdfrwt beam="1">  1       21 0.22555981E-02 0.45338421E+03</pdfrwt>
<pdfrwt beam="2">  1       21 0.49271212E+00 0.45338421E+03</pdfrwt>
<totfact> 0.16937934E+03</totfact>
</mgrwt>
</event>
<event>
 7    0  0.4766352E-002  0.4542349E+03  0.7546771E-02  0.1026467E+00
         21   -1    0    0  502  501  0.00000000000E+00  0.00000000000E+00  0.30285577974E+03  0.30285577974E+03  0.00000000000E+00 0. -1.
         21   -1    0    0  501  502 -0.00000000000E+00 -0.00000000000E+00 -0.17031978622E+03  0.17031978622E+03  0.00000000000E+00 0. -1.
      99926    2    1    2    0    0  0.00000000000E+00  0.00000000000E+00  0.13253599352E+03  0.47317556596E+03  0.45423488048E+03 0.  0.
      99925    2    3    3    0    0 -0.10385325877E+03  0.18891421287E+02  0.12381247023E+03  0.30926707590E+03  0.26300990723E+03 0.  0.
         25    1    4    4    0    0 -0.41770139791E+02  0.48472401700E+02  0.56408452081E+02  0.15140587793E+03  0.12509000000E+03 0.  0.
         25    1    3    3    0    0  0.10385325877E+03 -0.18891421287E+02  0.87235232925E+01  0.16390849006E+03  0.12509000000E+03 0.  0.
         25    1    4    4    0    0 -0.62083118979E+02 -0.29580980413E+02  0.67404018146E+02  0.15786119798E+03  0.12509000000E+03 0.  0.
<mgrwt>
<rscale>  2 0.45423488E+03</rscale>
<asrwt>0</asrwt>
<pdfrwt beam="1">  1       21 0.44537615E-01 0.45423488E+03</pdfrwt>
<pdfrwt beam="2">  1       21 0.25047027E-01 0.45423488E+03</pdfrwt>
<totfact> 0.67609906E+04</totfact>
</mgrwt>
</event>
<event>
 7    0  0.4766352E-002  0.4527977E+03  0.7546771E-02  0.1026891E+00
         21   -1    0    0  502  501  0.00000000000E+00  0.00000000000E+00  0.21573249655E+02  0.21573249655E+02  0.00000000000E+00 0.  1.
         21   -1    0    0  501  502 -0.00000000000E+00 -0.00000000000E+00 -0.23759261796E+04  0.23759261796E+04  0.00000000000E+00 0.  1.
      99926    2    1    2    0    0  0.88817841970E-15 -0.14210854715E-13 -0.23543529300E+04  0.23974994293E+04  0.45279774131E+03 0.  0.
      99925    2    3    3    0    0  0.26717885176E+01  0.11077574063E+03 -0.15283291405E+04  0.15547413311E+04  0.26296813834E+03 0.  0.
         25    1    4    4    0    0 -0.61773307315E+01  0.12523054709E+02 -0.70241967617E+03  0.71360766244E+03  0.12509000000E+03 0.  0.
         25    1    4    4    0    0  0.88491192491E+01  0.98252685925E+02 -0.82590946432E+03  0.84113366866E+03  0.12509000000E+03 0.  0.
         25    1    3    3    0    0 -0.26717885176E+01 -0.11077574063E+03 -0.82602378949E+03  0.84275809819E+03  0.12509000000E+03 0.  0.
<mgrwt>
<rscale>  2 0.45279774E+03</rscale>
<asrwt>0</asrwt>
<pdfrwt beam="1">  1       21 0.31725366E-02 0.45279774E+03</pdfrwt>
<pdfrwt beam="2">  1       21 0.34940092E+00 0.45279774E+03</pdfrwt>
<totfact> 0.83806414E+03</totfact>
</mgrwt>
</event>
<event>
 7    0  0.4766352E-002  0.4303045E+03  0.7546771E-02  0.1033764E+00
         21   -1    0    0  502  501  0.00000000000E+00  0.00000000000E+00  0.55116967853E+03  0.55116967853E+03  0.00000000000E+00 0. -1.
         21   -1    0    0  501  502 -0.00000000000E+00 -0.00000000000E+00 -0.83985930293E+02  0.83985930293E+02  0.00000000000E+00 0. -1.
      99926    2    1    2    0    0 -0.17763568394E-14  0.00000000000E+00  0.46718374824E+03  0.63515560882E+03  0.43030453496E+03 0.  0.
      99925    2    3    3    0    0  0.63688625180E+01  0.65035986499E+02  0.38852137942E+03  0.47358358675E+03  0.26279708793E+03 0.  0.
         25    1    3    3    0    0 -0.63688625180E+01 -0.65035986499E+02  0.78662368819E+02  0.16157202208E+03  0.12509000000E+03 0.  0.
         25    1    4    4    0    0  0.30657110023E+02  0.62946397517E+02  0.20421150838E+03  0.24950341804E+03  0.12509000000E+03 0.  0.
         25    1    4    4    0    0 -0.24288247505E+02  0.20895889819E+01  0.18430987104E+03  0.22408016871E+03  0.12509000000E+03 0.  0.
<mgrwt>
<rscale>  2 0.43030453E+03</rscale>
<asrwt>0</asrwt>
<pdfrwt beam="1">  1       21 0.81054363E-01 0.43030453E+03</pdfrwt>
<pdfrwt beam="2">  1       21 0.12350872E-01 0.43030453E+03</pdfrwt>
<totfact> 0.69069729E+04</totfact>
</mgrwt>
</event>
<event>
 7    0  0.4766352E-002  0.4668611E+03  0.7546771E-02  0.1022810E+00
         21   -1    0    0  502  501  0.00000000000E+00  0.00000000000E+00  0.96910615459E+02  0.96910615459E+02  0.00000000000E+00 0. -1.
         21   -1    0    0  501  502 -0.00000000000E+00 -0.00000000000E+00 -0.56226894877E+03  0.56226894877E+03  0.00000000000E+00 0. -1.
      99926    2    1    2    0    0  0.00000000000E+00  0.00000000000E+00 -0.46535833332E+03  0.65917956423E+03  0.46686113515E+03 0.  0.
      99925    2    3    3    0    0 -0.39787778373E+02 -0.99676947478E+02 -0.37715280433E+03  0.47224031044E+03  0.26315035972E+03 0.  0.
         25    1    4    4    0    0 -0.45268322780E+02 -0.32848582032E+02 -0.23051785541E+03  0.26816830564E+03  0.12509000000E+03 0.  0.
         25    1    4    4    0    0  0.54805444075E+01 -0.66828365446E+02 -0.14663494892E+03  0.20407200479E+03  0.12509000000E+03 0.  0.
         25    1    3    3    0    0  0.39787778373E+02  0.99676947478E+02 -0.88205528982E+02  0.18693925379E+03  0.12509000000E+03 0.  0.
<mgrwt>
<rscale>  2 0.46686114E+03</rscale>
<asrwt>0</asrwt>
<pdfrwt beam="1">  1       21 0.14251561E-01 0.46686114E+03</pdfrwt>
<pdfrwt beam="2">  1       21 0.82686610E-01 0.46686114E+03</pdfrwt>
<totfact> 0.50302020E+04</totfact>
</mgrwt>
</event>
<event>
 7    0  0.4766352E-002  0.4545146E+03  0.7546771E-02  0.1026384E+00
         21   -1    0    0  502  501  0.00000000000E+00  0.00000000000E+00  0.78873510456E+03  0.78873510456E+03  0.00000000000E+00 0. -1.
         21   -1    0    0  501  502 -0.00000000000E+00 -0.00000000000E+00 -0.65479370405E+02  0.65479370405E+02  0.00000000000E+00 0. -1.
      99926    2    1    2    0    0  0.00000000000E+00  0.00000000000E+00  0.72325573415E+03  0.85421447496E+03  0.45451458970E+03 0.  0.
      99925    2    3    3    0    0 -0.84071789252E+02 -0.32458612677E+02  0.58243947821E+03  0.64541228790E+03  0.26305826029E+03 0.  0.
         25    1    3    3    0    0  0.84071789252E+02  0.32458612677E+02  0.14081625594E+03  0.20880218706E+03  0.12509000000E+03 0.  0.
         25    1    4    4    0    0 -0.19172145275E+01 -0.17356712116E+01  0.27360760566E+03  0.30085763783E+03  0.12509000000E+03 0.  0.
         25    1    4    4    0    0 -0.82154574724E+02 -0.30722941466E+02  0.30883187255E+03  0.34455465007E+03  0.12509000000E+03 0.  0.
<mgrwt>
<rscale>  2 0.45451459E+03</rscale>
<asrwt>0</asrwt>
<pdfrwt beam="1">  1       21 0.11599045E+00 0.45451459E+03</pdfrwt>
<pdfrwt beam="2">  1       21 0.96293196E-02 0.45451459E+03</pdfrwt>
<totfact> 0.45424141E+04</totfact>
</mgrwt>
</event>
<event>
 7    0  0.4766352E-002  0.4550058E+03  0.7546771E-02  0.1026240E+00
         21   -1    0    0  502  501  0.00000000000E+00  0.00000000000E+00  0.46277433204E+03  0.46277433204E+03  0.00000000000E+00 0.  1.
         21   -1    0    0  501  502 -0.00000000000E+00 -0.00000000000E+00 -0.11184191833E+03  0.11184191833E+03  0.00000000000E+00 0.  1.
      99926    2    1    2    0    0 -0.71054273576E-14  0.00000000000E+00  0.35093241371E+03  0.57461625037E+03  0.45500579798E+03 0.  0.
      99925    2    3    3    0    0  0.53863626064E+02  0.99443688840E+02  0.22883365924E+03  0.36641934500E+03  0.26288391986E+03 0.  0.
         25    1    4    4    0    0  0.28542326527E+02  0.26498020330E+02  0.15158598728E+03  0.20035625551E+03  0.12509000000E+03 0.  0.
         25    1    4    4    0    0  0.25321299537E+02  0.72945668510E+02  0.77247671967E+02  0.16606308948E+03  0.12509000000E+03 0.  0.
         25    1    3    3    0    0 -0.53863626064E+02 -0.99443688840E+02  0.12209875447E+03  0.20819690537E+03  0.12509000000E+03 0.  0.
<mgrwt>
<rscale>  2 0.45500580E+03</rscale>
<asrwt>0</asrwt>
<pdfrwt beam="1">  1       21 0.68055048E-01 0.45500580E+03</pdfrwt>
<pdfrwt beam="2">  1       21 0.16447341E-01 0.45500580E+03</pdfrwt>
<totfact> 0.60265793E+04</totfact>
</mgrwt>
</event>
<event>
 7    0  0.4766352E-002  0.4298430E+03  0.7546771E-02  0.1033910E+00
         21   -1    0    0  502  501  0.00000000000E+00  0.00000000000E+00  0.89494256958E+03  0.89494256958E+03  0.00000000000E+00 0.  1.
         21   -1    0    0  501  502 -0.00000000000E+00 -0.00000000000E+00 -0.51613658213E+02  0.51613658213E+02  0.00000000000E+00 0.  1.
      99926    2    1    2    0    0  0.00000000000E+00  0.00000000000E+00  0.84332891137E+03  0.94655622780E+03  0.42984304069E+03 0.  0.
      99925    2    3    3    0    0 -0.45329884168E+02 -0.69038172178E+02  0.60763484910E+03  0.66723514605E+03  0.26298586021E+03 0.  0.
         25    1    4    4    0    0  0.61871738574E+01 -0.93692050921E+01  0.32139087266E+03  0.34505892867E+03  0.12509000000E+03 0.  0.
         25    1    3    3    0    0  0.45329884168E+02  0.69038172178E+02  0.23569406228E+03  0.27932108175E+03  0.12509000000E+03 0.  0.
         25    1    4    4    0    0 -0.51517058026E+02 -0.59668967086E+02  0.28624397644E+03  0.32217621739E+03  0.12509000000E+03 0.  0.
<mgrwt>
<rscale>  2 0.42984304E+03</rscale>
<asrwt>0</asrwt>
<pdfrwt beam="1">  1       21 0.13160919E+00 0.42984304E+03</pdfrwt>
<pdfrwt beam="2">  1       21 0.75902444E-02 0.42984304E+03</pdfrwt>
<totfact> 0.50508726E+04</totfact>
</mgrwt>
</event>
<event>
 7    0  0.4766352E-002  0.4559882E+03  0.7546771E-02  0.1025951E+00
         21   -1    0    0  502  501  0.00000000000E+00  0.00000000000E+00  0.33430576129E+03  0.33430576129E+03  0.00000000000E+00 0.  1.
         21   -1    0    0  501  502 -0.00000000000E+00 -0.00000000000E+00 -0.15549035071E+03  0.15549035071E+03  0.00000000000E+00 0.  1.
      99926    2    1    2    0    0  0.00000000000E+00  0.00000000000E+00  0.17881541059E+03  0.48979611200E+03  0.45598824575E+03 0.  0.
      99925    2    3    3    0    0 -0.33722817026E+02  0.97778736843E+02  0.16404725546E+03  0.32681293412E+03  0.26305376278E+03 0.  0.
         25    1    3    3    0    0  0.33722817026E+02 -0.97778736843E+02  0.14768155126E+02  0.16298317788E+03  0.12509000000E+03 0.  0.
         25    1    4    4    0    0  0.86987712787E+01  0.72890415941E+02  0.10960038533E+03  0.18179228235E+03  0.12509000000E+03 0.  0.
         25    1    4    4    0    0 -0.42421588305E+02  0.24888320902E+02  0.54446870131E+02  0.14502065177E+03  0.12509000000E+03 0.  0.
<mgrwt>
<rscale>  2 0.45598825E+03</rscale>
<asrwt>0</asrwt>
<pdfrwt beam="1">  1       21 0.49162612E-01 0.45598825E+03</pdfrwt>
<pdfrwt beam="2">  1       21 0.22866228E-01 0.45598825E+03</pdfrwt>
<totfact> 0.65478421E+04</totfact>
</mgrwt>
</event>
<event>
 7    0  0.4766352E-002  0.4546645E+03  0.7546771E-02  0.1026340E+00
         21   -1    0    0  502  501  0.00000000000E+00  0.00000000000E+00  0.18469627906E+03  0.18469627906E+03  0.00000000000E+00 0. -1.
         21   -1    0    0  501  502 -0.00000000000E+00 -0.00000000000E+00 -0.27981046903E+03  0.27981046903E+03  0.00000000000E+00 0. -1.
      99926    2    1    2    0    0  0.71054273576E-14  0.00000000000E+00 -0.95114189973E+02  0.46450674808E+03  0.45466450255E+03 0.  0.
      99925    2    3    3    0    0 -0.57272104527E+02 -0.95086347479E+02 -0.71196378674E+02  0.29556570147E+03  0.26451588254E+03 0.  0.
         25    1    3    3    0    0  0.57272104527E+02  0.95086347479E+02 -0.23917811299E+02  0.16894104661E+03  0.12509000000E+03 0.  0.
         25    1    4    4    0    0 -0.18890759817E+02 -0.86236757559E+02 -0.18456334437E+02  0.15421343502E+03  0.12509000000E+03 0.  0.
         25    1    4    4    0    0 -0.38381344710E+02 -0.88495899206E+01 -0.52740044237E+02  0.14135226645E+03  0.12509000000E+03 0.  0.
<mgrwt>
<rscale>  2 0.45466450E+03</rscale>
<asrwt>0</asrwt>
<pdfrwt beam="1">  1       21 0.27161218E-01 0.45466450E+03</pdfrwt>
<pdfrwt beam="2">  1       21 0.41148598E-01 0.45466450E+03</pdfrwt>
<totfact> 0.68028067E+04</totfact>
</mgrwt>
</event>
<event>
 7    0  0.4766352E-002  0.4557050E+03  0.7546771E-02  0.1026034E+00
         21   -1    0    0  502  501  0.00000000000E+00  0.00000000000E+00  0.51373411406E+03  0.51373411406E+03  0.00000000000E+00 0.  1.
         21   -1    0    0  501  502 -0.00000000000E+00 -0.00000000000E+00 -0.10105766046E+03  0.10105766046E+03  0.00000000000E+00 0.  1.
      99926    2    1    2    0    0 -0.88817841970E-15 -0.14210854715E-13  0.41267645360E+03  0.61479177453E+03  0.45570502594E+03 0.  0.
      99925    2    3    3    0    0  0.55782612096E+01  0.83810651035E+02  0.36322264807E+03  0.45620889649E+03  0.26294585553E+03 0.  0.
         25    1    4    4    0    0  0.22091584450E+02  0.53044348037E+02  0.24274749368E+03  0.27906199087E+03  0.12509000000E+03 0.  0.
         25    1    4    4    0    0 -0.16513323240E+02  0.30766302999E+02  0.12047515439E+03  0.17714690562E+03  0.12509000000E+03 0.  0.
         25    1    3    3    0    0 -0.55782612096E+01 -0.83810651035E+02  0.49453805530E+02  0.15858287804E+03  0.12509000000E+03 0.  0.
<mgrwt>
<rscale>  2 0.45570503E+03</rscale>
<asrwt>0</asrwt>
<pdfrwt beam="1">  1       21 0.75549133E-01 0.45570503E+03</pdfrwt>
<pdfrwt beam="2">  1       21 0.14861421E-01 0.45570503E+03</pdfrwt>
<totfact> 0.57456317E+04</totfact>
</mgrwt>
</event>
<event>
 7    0  0.4766352E-002  0.4612652E+03  0.7546771E-02  0.1024415E+00
         21   -1    0    0  502  501  0.00000000000E+00  0.00000000000E+00  0.87288508623E+02  0.87288508623E+02  0.00000000000E+00 0.  1.
         21   -1    0    0  501  502 -0.00000000000E+00 -0.00000000000E+00 -0.60937449074E+03  0.60937449074E+03  0.00000000000E+00 0.  1.
      99926    2    1    2    0    0  0.00000000000E+00  0.14210854715E-13 -0.52208598211E+03  0.69666299936E+03  0.46126517531E+03 0.  0.
      99925    2    3    3    0    0 -0.63855479559E+02 -0.94555751216E+02 -0.27591787360E+03  0.39789125018E+03  0.26299897650E+03 0.  0.
         25    1    4    4    0    0 -0.51698766132E+02 -0.76024737283E+02 -0.11676029993E+03  0.19424983614E+03  0.12509000000E+03 0.  0.
         25    1    4    4    0    0 -0.12156713427E+02 -0.18531013934E+02 -0.15915757366E+03  0.20364141404E+03  0.12509000000E+03 0.  0.
         25    1    3    3    0    0  0.63855479559E+02  0.94555751216E+02 -0.24616810851E+03  0.29877174918E+03  0.12509000000E+03 0.  0.
<mgrwt>
<rscale>  2 0.46126518E+03</rscale>
<asrwt>0</asrwt>
<pdfrwt beam="1">  1       21 0.12836545E-01 0.46126518E+03</pdfrwt>
<pdfrwt beam="2">  1       21 0.89613896E-01 0.46126518E+03</pdfrwt>
<totfact> 0.50545561E+04</totfact>
</mgrwt>
</event>
<event>
 7    0  0.4766352E-002  0.4546469E+03  0.7546771E-02  0.1026345E+00
         21   -1    0    0  502  501  0.00000000000E+00  0.00000000000E+00  0.16701600118E+03  0.16701600118E+03  0.00000000000E+00 0. -1.
         21   -1    0    0  501  502 -0.00000000000E+00 -0.00000000000E+00 -0.30940716208E+03  0.30940716208E+03  0.00000000000E+00 0. -1.
      99926    2    1    2    0    0  0.00000000000E+00  0.00000000000E+00 -0.14239116090E+03  0.47642316326E+03  0.45464688252E+03 0.  0.
      99925    2    3    3    0    0 -0.49786585569E+02 -0.49374266446E+02 -0.18185909074E+03  0.32768934775E+03  0.26342182418E+03 0.  0.
         25    1    4    4    0    0 -0.34976527201E+01 -0.48284020957E+02 -0.59693149066E+02  0.14681403339E+03  0.12509000000E+03 0.  0.
         25    1    4    4    0    0 -0.46288932849E+02 -0.10902454888E+01 -0.12216594168E+03  0.18087531436E+03  0.12509000000E+03 0.  0.
         25    1    3    3    0    0  0.49786585569E+02  0.49374266446E+02  0.39467929842E+02  0.14873381551E+03  0.12509000000E+03 0.  0.
<mgrwt>
<rscale>  2 0.45464688E+03</rscale>
<asrwt>0</asrwt>
<pdfrwt beam="1">  1       21 0.24561177E-01 0.45464688E+03</pdfrwt>
<pdfrwt beam="2">  1       21 0.45501053E-01 0.45464688E+03</pdfrwt>
<totfact> 0.67149388E+04</totfact>
</mgrwt>
</event>
<event>
 7    0  0.4766352E-002  0.4682249E+03  0.7546771E-02  0.1022422E+00
         21   -1    0    0  502  501  0.00000000000E+00  0.00000000000E+00  0.83043204156E+02  0.83043204156E+02  0.00000000000E+00 0. -1.
         21   -1    0    0  501  502 -0.00000000000E+00 -0.00000000000E+00 -0.66000140795E+03  0.66000140795E+03  0.00000000000E+00 0. -1.
      99926    2    1    2    0    0  0.71054273576E-14 -0.35527136788E-14 -0.57695820380E+03  0.74304461211E+03  0.46822486762E+03 0.  0.
      99925    2    3    3    0    0 -0.60945572058E+02  0.26565675880E+02 -0.19053449108E+03  0.33147336465E+03  0.26296596983E+03 0.  0.
         25    1    4    4    0    0 -0.66271995906E+02  0.28643046241E+02 -0.84100669225E+02  0.16713118262E+03  0.12509000000E+03 0.  0.
         25    1    4    4    0    0  0.53264238479E+01 -0.20773703607E+01 -0.10643382186E+03  0.16434218203E+03  0.12509000000E+03 0.  0.
         25    1    3    3    0    0  0.60945572058E+02 -0.26565675880E+02 -0.38642371271E+03  0.41157124746E+03  0.12509000000E+03 0.  0.
<mgrwt>
<rscale>  2 0.46822487E+03</rscale>
<asrwt>0</asrwt>
<pdfrwt beam="1">  1       21 0.12212236E-01 0.46822487E+03</pdfrwt>
<pdfrwt beam="2">  1       21 0.97059030E-01 0.46822487E+03</pdfrwt>
<totfact> 0.45688979E+04</totfact>
</mgrwt>
</event>
<event>
 7    0  0.4766352E-002  0.4542067E+03  0.7546771E-02  0.1026475E+00
         21   -1    0    0  502  501  0.00000000000E+00  0.00000000000E+00  0.50152490958E+02  0.50152490958E+02  0.00000000000E+00 0. -1.
         21   -1    0    0  501  502 -0.00000000000E+00 -0.00000000000E+00 -0.10283821098E+04  0.10283821098E+04  0.00000000000E+00 0. -1.
      99926    2    1    2    0    0  0.14210854715E-13  0.14210854715E-13 -0.97822961882E+03  0.10785346007E+04  0.45420666865E+03 0.  0.
      99925    2    3    3    0    0  0.62657505273E+02  0.87827949661E+02 -0.53800512389E+03  0.60833801871E+03  0.26265170849E+03 0.  0.
         25    1    4    4    0    0 -0.13445280139E+01  0.54702101107E+02 -0.30609310022E+03  0.33516357458E+03  0.12509000000E+03 0.  0.
         25    1    3    3    0    0 -0.62657505273E+02 -0.87827949661E+02 -0.44022449493E+03  0.47019658202E+03  0.12509000000E+03 0.  0.
         25    1    4    4    0    0  0.64002033287E+02  0.33125848554E+02 -0.23191202367E+03  0.27317444414E+03  0.12509000000E+03 0.  0.
<mgrwt>
<rscale>  2 0.45420667E+03</rscale>
<asrwt>0</asrwt>
<pdfrwt beam="1">  1       21 0.73753667E-02 0.45420667E+03</pdfrwt>
<pdfrwt beam="2">  1       21 0.15123266E+00 0.45420667E+03</pdfrwt>
<totfact> 0.36472727E+04</totfact>
</mgrwt>
</event>
<event>
 7    0  0.4766352E-002  0.4579344E+03  0.7546771E-02  0.1025382E+00
         21   -1    0    0  502  501  0.00000000000E+00  0.00000000000E+00  0.61162830361E+03  0.61162830361E+03  0.00000000000E+00 0. -1.
         21   -1    0    0  501  502 -0.00000000000E+00 -0.00000000000E+00 -0.85715424596E+02  0.85715424596E+02  0.00000000000E+00 0. -1.
      99926    2    1    2    0    0 -0.17763568394E-14  0.00000000000E+00  0.52591287901E+03  0.69734372821E+03  0.45793440464E+03 0.  0.
      99925    2    3    3    0    0  0.11416275830E+02  0.99396061348E+02  0.24072897550E+03  0.37025463440E+03  0.26292231986E+03 0.  0.
         25    1    4    4    0    0 -0.13807070533E+02  0.82545082819E+02  0.15209686168E+03  0.21397497360E+03  0.12509000000E+03 0.  0.
         25    1    3    3    0    0 -0.11416275830E+02 -0.99396061348E+02  0.28518390351E+03  0.32708909381E+03  0.12509000000E+03 0.  0.
         25    1    4    4    0    0  0.25223346363E+02  0.16850978530E+02  0.88632113822E+02  0.15627966080E+03  0.12509000000E+03 0.  0.
<mgrwt>
<rscale>  2 0.45793440E+03</rscale>
<asrwt>0</asrwt>
<pdfrwt beam="1">  1       21 0.89945337E-01 0.45793440E+03</pdfrwt>
<pdfrwt beam="2">  1       21 0.12605210E-01 0.45793440E+03</pdfrwt>
<totfact> 0.51839768E+04</totfact>
</mgrwt>
</event>
<event>
 7    0  0.4766352E-002  0.4537934E+03  0.7546771E-02  0.1026597E+00
         21   -1    0    0  502  501  0.00000000000E+00  0.00000000000E+00  0.91282671454E+02  0.91282671454E+02  0.00000000000E+00 0. -1.
         21   -1    0    0  501  502 -0.00000000000E+00 -0.00000000000E+00 -0.56398562158E+03  0.56398562158E+03  0.00000000000E+00 0. -1.
      99926    2    1    2    0    0  0.00000000000E+00  0.00000000000E+00 -0.47270295013E+03  0.65526829304E+03  0.45379340762E+03 0.  0.
      99925    2    3    3    0    0 -0.54999535042E+02  0.71393600506E+02 -0.20213201269E+03  0.34385516658E+03  0.26316730416E+03 0.  0.
         25    1    3    3    0    0  0.54999535042E+02 -0.71393600506E+02 -0.27057093743E+03  0.31141312646E+03  0.12509000000E+03 0.  0.
         25    1    4    4    0    0 -0.62172332310E+02  0.52429956285E+02 -0.13089336048E+03  0.19848143273E+03  0.12509000000E+03 0.  0.
         25    1    4    4    0    0  0.71727972677E+01  0.18963644221E+02 -0.71238652212E+02  0.14537373384E+03  0.12509000000E+03 0.  0.
<mgrwt>
<rscale>  2 0.45379341E+03</rscale>
<asrwt>0</asrwt>
<pdfrwt beam="1">  1       21 0.13423922E-01 0.45379341E+03</pdfrwt>
<pdfrwt beam="2">  1       21 0.82939063E-01 0.45379341E+03</pdfrwt>
<totfact> 0.55929387E+04</totfact>
</mgrwt>
</event>
<event>
 7    0  0.4766352E-002  0.4580699E+03  0.7546771E-02  0.1025343E+00
         21   -1    0    0  502  501  0.00000000000E+00  0.00000000000E+00  0.12561204226E+03  0.12561204226E+03  0.00000000000E+00 0. -1.
         21   -1    0    0  501  502 -0.00000000000E+00 -0.00000000000E+00 -0.41761122159E+03  0.41761122159E+03  0.00000000000E+00 0. -1.
      99926    2    1    2    0    0  0.00000000000E+00  0.00000000000E+00 -0.29199917932E+03  0.54322326385E+03  0.45806985675E+03 0.  0.
      99925    2    3    3    0    0  0.94748198634E+02  0.32088288539E+02 -0.25310396318E+03  0.37839843155E+03  0.26290088896E+03 0.  0.
         25    1    3    3    0    0 -0.94748198634E+02 -0.32088288539E+02 -0.38895216148E+02  0.16482483231E+03  0.12509000000E+03 0.  0.
         25    1    4    4    0    0  0.39652841416E+02  0.49440086628E+02 -0.15643721364E+03  0.21008755296E+03  0.12509000000E+03 0.  0.
         25    1    4    4    0    0  0.55095357218E+02 -0.17351798089E+02 -0.96666749538E+02  0.16831087859E+03  0.12509000000E+03 0.  0.
<mgrwt>
<rscale>  2 0.45806986E+03</rscale>
<asrwt>0</asrwt>
<pdfrwt beam="1">  1       21 0.18472360E-01 0.45806986E+03</pdfrwt>
<pdfrwt beam="2">  1       21 0.61413414E-01 0.45806986E+03</pdfrwt>
<totfact> 0.60825417E+04</totfact>
</mgrwt>
</event>
<event>
 7    0  0.4766352E-002  0.4537111E+03  0.7546771E-02  0.1026621E+00
         21   -1    0    0  502  501  0.00000000000E+00  0.00000000000E+00  0.13073186088E+04  0.13073186088E+04  0.00000000000E+00 0. -1.
         21   -1    0    0  501  502 -0.00000000000E+00 -0.00000000000E+00 -0.39365646774E+02  0.39365646774E+02  0.00000000000E+00 0. -1.
      99926    2    1    2    0    0  0.00000000000E+00  0.00000000000E+00  0.12679529621E+04  0.13466842556E+04  0.45371110886E+03 0.  0.
      99925    2    3    3    0    0  0.38316928190E+02  0.72277157686E+02  0.57193129491E+03  0.63479532905E+03  0.26299720375E+03 0.  0.
         25    1    4    4    0    0 -0.18251123201E+02  0.47272548141E+02  0.25534017182E+03  0.28881466159E+03  0.12509000000E+03 0.  0.
         25    1    4    4    0    0  0.56568051391E+02  0.25004609545E+02  0.31659112309E+03  0.34598066746E+03  0.12509000000E+03 0.  0.
         25    1    3    3    0    0 -0.38316928190E+02 -0.72277157686E+02  0.69602166717E+03  0.71188892657E+03  0.12509000000E+03 0.  0.
<mgrwt>
<rscale>  2 0.45371111E+03</rscale>
<asrwt>0</asrwt>
<pdfrwt beam="1">  1       21 0.19225271E+00 0.45371111E+03</pdfrwt>
<pdfrwt beam="2">  1       21 0.57890666E-02 0.45371111E+03</pdfrwt>
<totfact> 0.28068194E+04</totfact>
</mgrwt>
</event>
<event>
 7    0  0.4766352E-002  0.4485483E+03  0.7546771E-02  0.1028156E+00
         21   -1    0    0  502  501  0.00000000000E+00  0.00000000000E+00  0.13106595541E+04  0.13106595541E+04  0.00000000000E+00 0.  1.
         21   -1    0    0  501  502 -0.00000000000E+00 -0.00000000000E+00 -0.38376775957E+02  0.38376775957E+02  0.00000000000E+00 0.  1.
      99926    2    1    2    0    0  0.00000000000E+00 -0.17763568394E-14  0.12722827782E+04  0.13490363301E+04  0.44854827194E+03 0.  0.
      99925    2    3    3    0    0  0.68220640600E+02 -0.12308562265E+02  0.10494090940E+04  0.10842236723E+04  0.26358294438E+03 0.  0.
         25    1    4    4    0    0  0.63615605455E+02 -0.14259185004E+02  0.67021202859E+03  0.68489556940E+03  0.12509000000E+03 0.  0.
         25    1    3    3    0    0 -0.68220640600E+02  0.12308562265E+02  0.22287368415E+03  0.26481265773E+03  0.12509000000E+03 0.  0.
         25    1    4    4    0    0  0.46050351445E+01  0.19506227400E+01  0.37919706541E+03  0.39932810293E+03  0.12509000000E+03 0.  0.
<mgrwt>
<rscale>  2 0.44854827E+03</rscale>
<asrwt>0</asrwt>
<pdfrwt beam="1">  1       21 0.19274402E+00 0.44854827E+03</pdfrwt>
<pdfrwt beam="2">  1       21 0.56436444E-02 0.44854827E+03</pdfrwt>
<totfact> 0.29157401E+04</totfact>
</mgrwt>
</event>
<event>
 7    0  0.4766352E-002  0.4490700E+03  0.7546771E-02  0.1028000E+00
         21   -1    0    0  502  501  0.00000000000E+00  0.00000000000E+00  0.38216194519E+02  0.38216194519E+02  0.00000000000E+00 0.  1.
         21   -1    0    0  501  502 -0.00000000000E+00 -0.00000000000E+00 -0.13192303738E+04  0.13192303738E+04  0.00000000000E+00 0.  1.
      99926    2    1    2    0    0  0.35527136788E-14  0.00000000000E+00 -0.12810141793E+04  0.13574465683E+04  0.44906999268E+03 0.  0.
      99925    2    3    3    0    0  0.20793787390E+02  0.17976897525E+02 -0.49684747785E+03  0.56288978987E+03  0.26311964743E+03 0.  0.
         25    1    3    3    0    0 -0.20793787390E+02 -0.17976897525E+02 -0.78416670146E+03  0.79455677847E+03  0.12509000000E+03 0.  0.
         25    1    4    4    0    0  0.49306318949E+02  0.37882538765E+01 -0.27746398161E+03  0.30834920650E+03  0.12509000000E+03 0.  0.
         25    1    4    4    0    0 -0.28512531559E+02  0.14188643648E+02 -0.21938349623E+03  0.25454058337E+03  0.12509000000E+03 0.  0.
<mgrwt>
<rscale>  2 0.44906999E+03</rscale>
<asrwt>0</asrwt>
<pdfrwt beam="1">  1       21 0.56200288E-02 0.44906999E+03</pdfrwt>
<pdfrwt beam="2">  1       21 0.19400446E+00 0.44906999E+03</pdfrwt>
<totfact> 0.28792858E+04</totfact>
</mgrwt>
</event>
<event>
 7    0  0.4766352E-002  0.4551785E+03  0.7546771E-02  0.1026189E+00
         21   -1    0    0  502  501  0.00000000000E+00  0.00000000000E+00  0.11484171621E+04  0.11484171621E+04  0.00000000000E+00 0.  1.
         21   -1    0    0  501  502 -0.00000000000E+00 -0.00000000000E+00 -0.45102834048E+02  0.45102834048E+02  0.00000000000E+00 0.  1.
      99926    2    1    2    0    0 -0.14210854715E-13  0.00000000000E+00  0.11033143280E+04  0.11935199961E+04  0.45517850863E+03 0.  0.
      99925    2    3    3    0    0 -0.66773741916E+02 -0.69393639576E+02  0.85041545030E+03  0.89539324409E+03  0.26315093317E+03 0.  0.
         25    1    4    4    0    0 -0.73355138318E+02 -0.37339546834E+02  0.49698707264E+03  0.51905575476E+03  0.12509000000E+03 0.  0.
         25    1    3    3    0    0  0.66773741916E+02  0.69393639576E+02  0.25289887772E+03  0.29812675203E+03  0.12509000000E+03 0.  0.
         25    1    4    4    0    0  0.65813964015E+01 -0.32054092742E+02  0.35342837766E+03  0.37633748933E+03  0.12509000000E+03 0.  0.
<mgrwt>
<rscale>  2 0.45517851E+03</rscale>
<asrwt>0</asrwt>
<pdfrwt beam="1">  1       21 0.16888486E+00 0.45517851E+03</pdfrwt>
<pdfrwt beam="2">  1       21 0.66327705E-02 0.45517851E+03</pdfrwt>
<totfact> 0.32317036E+04</totfact>
</mgrwt>
</event>
<event>
 7    0  0.4766352E-002  0.4581906E+03  0.7546771E-02  0.1025307E+00
         21   -1    0    0  502  501  0.00000000000E+00  0.00000000000E+00  0.28184824162E+04  0.28184824162E+04  0.00000000000E+00 0. -1.
         21   -1    0    0  501  502 -0.00000000000E+00 -0.00000000000E+00 -0.18621599544E+02  0.18621599544E+02  0.00000000000E+00 0. -1.
      99926    2    1    2    0    0  0.71054273576E-14  0.00000000000E+00  0.27998608167E+04  0.28371040157E+04  0.45819057553E+03 0.  0.
      99925    2    3    3    0    0 -0.57333196675E+02  0.73600974227E+02  0.21851521294E+04  0.22028970487E+04  0.26298551175E+03 0.  0.
         25    1    3    3    0    0  0.57333196675E+02 -0.73600974227E+02  0.61470868722E+03  0.63420696708E+03  0.12509000000E+03 0.  0.
         25    1    4    4    0    0 -0.21034475284E+02  0.77624556705E+02  0.11773883496E+04  0.11867429607E+04  0.12509000000E+03 0.  0.
         25    1    4    4    0    0 -0.36298721391E+02 -0.40235824784E+01  0.10077637798E+04  0.10161540879E+04  0.12509000000E+03 0.  0.
<mgrwt>
<rscale>  2 0.45819058E+03</rscale>
<asrwt>0</asrwt>
<pdfrwt beam="1">  1       21 0.41448241E+00 0.45819058E+03</pdfrwt>
<pdfrwt beam="2">  1       21 0.27384725E-02 0.45819058E+03</pdfrwt>
<totfact> 0.41571229E+03</totfact>
</mgrwt>
</event>
<event>
 7    0  0.4766352E-002  0.4602363E+03  0.7546771E-02  0.1024713E+00
         21   -1    0    0  502  501  0.00000000000E+00  0.00000000000E+00  0.98684525573E+02  0.98684525573E+02  0.00000000000E+00 0.  1.
         21   -1    0    0  501  502 -0.00000000000E+00 -0.00000000000E+00 -0.53660256015E+03  0.53660256015E+03  0.00000000000E+00 0.  1.
      99926    2    1    2    0    0  0.14210854715E-13 -0.71054273576E-14 -0.43791803457E+03  0.63528708572E+03  0.46023632655E+03 0.  0.
      99925    2    3    3    0    0  0.10547099815E+03 -0.52480631710E+02 -0.26400814532E+03  0.39080701325E+03  0.26296667594E+03 0.  0.
         25    1    4    4    0    0  0.30263647088E+02  0.91103800929E+01 -0.10495664974E+03  0.16631985385E+03  0.12509000000E+03 0.  0.
         25    1    3    3    0    0 -0.10547099815E+03  0.52480631710E+02 -0.17390988925E+03  0.24448007247E+03  0.12509000000E+03 0.  0.
         25    1    4    4    0    0  0.75207351061E+02 -0.61591011803E+02 -0.15905149559E+03  0.22448715940E+03  0.12509000000E+03 0.  0.
<mgrwt>
<rscale>  2 0.46023633E+03</rscale>
<asrwt>0</asrwt>
<pdfrwt beam="1">  1       21 0.14512430E-01 0.46023633E+03</pdfrwt>
<pdfrwt beam="2">  1       21 0.78912143E-01 0.46023633E+03</pdfrwt>
<totfact> 0.54278760E+04</totfact>
</mgrwt>
</event>
<event>
 7    0  0.4766352E-002  0.4536591E+03  0.7546771E-02  0.1026636E+00
         21   -1    0    0  502  501  0.00000000000E+00  0.00000000000E+00  0.29972865508E+03  0.29972865508E+03  0.00000000000E+00 0. -1.
         21   -1    0    0  501  502 -0.00000000000E+00 -0.00000000000E+00 -0.17166074313E+03  0.17166074313E+03  0.00000000000E+00 0. -1.
      99926    2    1    2    0    0  0.00000000000E+00  0.17763568394E-14  0.12806791196E+03  0.47138939821E+03  0.45365909521E+03 0.  0.
      99925    2    3    3    0    0 -0.13404102112E+02  0.15974445426E+02  0.19504422409E+03  0.32797326471E+03  0.26284854985E+03 0.  0.
         25    1    4    4    0    0 -0.24691879492E+02 -0.55554826602E+01  0.56005142073E+02  0.13937229402E+03  0.12509000000E+03 0.  0.
         25    1    4    4    0    0  0.11287777380E+02  0.21529928087E+02  0.13903908201E+03  0.18860097070E+03  0.12509000000E+03 0.  0.
         25    1    3    3    0    0  0.13404102112E+02 -0.15974445426E+02 -0.66976312129E+02  0.14341613349E+03  0.12509000000E+03 0.  0.
<mgrwt>
<rscale>  2 0.45365910E+03</rscale>
<asrwt>0</asrwt>
<pdfrwt beam="1">  1       21 0.44077744E-01 0.45365910E+03</pdfrwt>
<pdfrwt beam="2">  1       21 0.25244227E-01 0.45365910E+03</pdfrwt>
<totfact> 0.68053674E+04</totfact>
</mgrwt>
</event>
<event>
 7    0  0.4766352E-002  0.4555723E+03  0.7546771E-02  0.1026073E+00
         21   -1    0    0  502  501  0.00000000000E+00  0.00000000000E+00  0.24608355668E+03  0.24608355668E+03  0.00000000000E+00 0.  1.
         21   -1    0    0  501  502 -0.00000000000E+00 -0.00000000000E+00 -0.21084919675E+03  0.21084919675E+03  0.00000000000E+00 0.  1.
      99926    2    1    2    0    0 -0.71054273576E-14  0.14210854715E-13  0.35234359924E+02  0.45693275343E+03  0.45557225666E+03 0.  0.
      99925    2    3    3    0    0 -0.63074247519E+02  0.94182758812E+02  0.14080873129E+02  0.28680418187E+03  0.26307720348E+03 0.  0.
         25    1    4    4    0    0 -0.16277023092E+01  0.30702901454E+02 -0.18780047226E+02  0.13017494324E+03  0.12509000000E+03 0.  0.
         25    1    4    4    0    0 -0.61446545210E+02  0.63479857358E+02  0.32860920356E+02  0.15662923863E+03  0.12509000000E+03 0.  0.
         25    1    3    3    0    0  0.63074247519E+02 -0.94182758812E+02  0.21153486795E+02  0.17012857156E+03  0.12509000000E+03 0.  0.
<mgrwt>
<rscale>  2 0.45557226E+03</rscale>
<asrwt>0</asrwt>
<pdfrwt beam="1">  1       21 0.36188758E-01 0.45557226E+03</pdfrwt>
<pdfrwt beam="2">  1       21 0.31007235E-01 0.45557226E+03</pdfrwt>
<totfact> 0.68093030E+04</totfact>
</mgrwt>
</event>
<event>
 7    0  0.4766352E-002  0.4555564E+03  0.7546771E-02  0.1026078E+00
         21   -1    0    0  502  501  0.00000000000E+00  0.00000000000E+00  0.91052177216E+03  0.91052177216E+03  0.00000000000E+00 0.  1.
         21   -1    0    0  501  502 -0.00000000000E+00 -0.00000000000E+00 -0.56981523349E+02  0.56981523349E+02  0.00000000000E+00 0.  1.
      99926    2    1    2    0    0  0.88817841970E-15  0.00000000000E+00  0.85354024881E+03  0.96750329551E+03  0.45555644050E+03 0.  0.
      99925    2    3    3    0    0  0.72750052300E+01  0.69324117304E+02  0.34607484610E+03  0.44022025767E+03  0.26299680078E+03 0.  0.
         25    1    3    3    0    0 -0.72750052300E+01 -0.69324117304E+02  0.50746540272E+03  0.52728303784E+03  0.12509000000E+03 0.  0.
         25    1    4    4    0    0  0.51270652921E+01  0.43307843441E+02  0.24004900445E+03  0.27417674726E+03  0.12509000000E+03 0.  0.
         25    1    4    4    0    0  0.21479399379E+01  0.26016273862E+02  0.10602584165E+03  0.16604351041E+03  0.12509000000E+03 0.  0.
<mgrwt>
<rscale>  2 0.45555644E+03</rscale>
<asrwt>0</asrwt>
<pdfrwt beam="1">  1       21 0.13390025E+00 0.45555644E+03</pdfrwt>
<pdfrwt beam="2">  1       21 0.83796364E-02 0.45555644E+03</pdfrwt>
<totfact> 0.40264633E+04</totfact>
</mgrwt>
</event>
<event>
 7    0  0.4766352E-002  0.4533972E+03  0.7546771E-02  0.1026714E+00
         21   -1    0    0  502  501  0.00000000000E+00  0.00000000000E+00  0.17584063105E+03  0.17584063105E+03  0.00000000000E+00 0.  1.
         21   -1    0    0  501  502 -0.00000000000E+00 -0.00000000000E+00 -0.29226605574E+03  0.29226605574E+03  0.00000000000E+00 0.  1.
      99926    2    1    2    0    0  0.00000000000E+00  0.00000000000E+00 -0.11642542469E+03  0.46810668679E+03  0.45339716663E+03 0.  0.
      99925    2    3    3    0    0 -0.94024243532E+01  0.87176094478E+02 -0.14484822202E+03  0.31272509026E+03  0.26292184699E+03 0.  0.
         25    1    4    4    0    0 -0.13789573166E+02  0.17828571986E+02 -0.10311119355E+03  0.16366867948E+03  0.12509000000E+03 0.  0.
         25    1    3    3    0    0  0.94024243532E+01 -0.87176094478E+02  0.28422797325E+02  0.15538159653E+03  0.12509000000E+03 0.  0.
         25    1    4    4    0    0  0.43871488128E+01  0.69347522493E+02 -0.41737028471E+02  0.14905641079E+03  0.12509000000E+03 0.  0.
<mgrwt>
<rscale>  2 0.45339717E+03</rscale>
<asrwt>0</asrwt>
<pdfrwt beam="1">  1       21 0.25858917E-01 0.45339717E+03</pdfrwt>
<pdfrwt beam="2">  1       21 0.42980302E-01 0.45339717E+03</pdfrwt>
<totfact> 0.68442925E+04</totfact>
</mgrwt>
</event>
<event>
 7    0  0.4766352E-002  0.4545338E+03  0.7546771E-02  0.1026379E+00
         21   -1    0    0  502  501  0.00000000000E+00  0.00000000000E+00  0.45626687237E+03  0.45626687237E+03  0.00000000000E+00 0.  1.
         21   -1    0    0  501  502 -0.00000000000E+00 -0.00000000000E+00 -0.11320184521E+03  0.11320184521E+03  0.00000000000E+00 0.  1.
      99926    2    1    2    0    0  0.00000000000E+00  0.00000000000E+00  0.34306502715E+03  0.56946871758E+03  0.45453383531E+03 0.  0.
      99925    2    3    3    0    0  0.94391935805E+02  0.17791848023E+02  0.28986882724E+03  0.40302433892E+03  0.26301766739E+03 0.  0.
         25    1    4    4    0    0  0.31266025303E+02  0.36058081005E+02  0.17838465779E+03  0.22303888400E+03  0.12509000000E+03 0.  0.
         25    1    4    4    0    0  0.63125910502E+02 -0.18266232982E+02  0.11148416945E+03  0.17998545492E+03  0.12509000000E+03 0.  0.
         25    1    3    3    0    0 -0.94391935805E+02 -0.17791848023E+02  0.53196199915E+02  0.16644437866E+03  0.12509000000E+03 0.  0.
<mgrwt>
<rscale>  2 0.45453384E+03</rscale>
<asrwt>0</asrwt>
<pdfrwt beam="1">  1       21 0.67098069E-01 0.45453384E+03</pdfrwt>
<pdfrwt beam="2">  1       21 0.16647330E-01 0.45453384E+03</pdfrwt>
<totfact> 0.60821944E+04</totfact>
</mgrwt>
</event>
<event>
 7    0  0.4766352E-002  0.4561754E+03  0.7546771E-02  0.1025896E+00
         21   -1    0    0  502  501  0.00000000000E+00  0.00000000000E+00  0.40660798144E+02  0.40660798144E+02  0.00000000000E+00 0.  1.
         21   -1    0    0  501  502 -0.00000000000E+00 -0.00000000000E+00 -0.12794631253E+04  0.12794631253E+04  0.00000000000E+00 0.  1.
      99926    2    1    2    0    0  0.00000000000E+00  0.00000000000E+00 -0.12388023272E+04  0.13201239235E+04  0.45617536922E+03 0.  0.
      99925    2    3    3    0    0  0.93358437734E+02  0.20049176660E+02 -0.96026477029E+03  0.10002044866E+04  0.26302626978E+03 0.  0.
         25    1    3    3    0    0 -0.93358437734E+02 -0.20049176660E+02 -0.27853755690E+03  0.31991943687E+03  0.12509000000E+03 0.  0.
         25    1    4    4    0    0  0.84874153248E+02 -0.73843185113E+01 -0.53492635706E+03  0.55592433444E+03  0.12509000000E+03 0.  0.
         25    1    4    4    0    0  0.84842844860E+01  0.27433495172E+02 -0.42533841323E+03  0.44428015217E+03  0.12509000000E+03 0.  0.
<mgrwt>
<rscale>  2 0.45617537E+03</rscale>
<asrwt>0</asrwt>
<pdfrwt beam="1">  1       21 0.59795300E-02 0.45617537E+03</pdfrwt>
<pdfrwt beam="2">  1       21 0.18815631E+00 0.45617537E+03</pdfrwt>
<totfact> 0.28276505E+04</totfact>
</mgrwt>
</event>
<event>
 7    0  0.4766352E-002  0.4550606E+03  0.7546771E-02  0.1026224E+00
         21   -1    0    0  502  501  0.00000000000E+00  0.00000000000E+00  0.83656260316E+03  0.83656260316E+03  0.00000000000E+00 0. -1.
         21   -1    0    0  501  502 -0.00000000000E+00 -0.00000000000E+00 -0.61884224706E+02  0.61884224706E+02  0.00000000000E+00 0. -1.
      99926    2    1    2    0    0  0.00000000000E+00  0.00000000000E+00  0.77467837846E+03  0.89844682787E+03  0.45506055911E+03 0.  0.
      99925    2    3    3    0    0  0.10014929124E+03 -0.10434021408E+02  0.38569181406E+03  0.47761811602E+03  0.26310100717E+03 0.  0.
         25    1    4    4    0    0  0.26607735507E+02 -0.39105054890E+02  0.17801028024E+03  0.22264847827E+03  0.12509000000E+03 0.  0.
         25    1    3    3    0    0 -0.10014929124E+03  0.10434021408E+02  0.38898656440E+03  0.42082871185E+03  0.12509000000E+03 0.  0.
         25    1    4    4    0    0  0.73541555732E+02  0.28671033481E+02  0.20768153382E+03  0.25496963774E+03  0.12509000000E+03 0.  0.
<mgrwt>
<rscale>  2 0.45506056E+03</rscale>
<asrwt>0</asrwt>
<pdfrwt beam="1">  1       21 0.12302391E+00 0.45506056E+03</pdfrwt>
<pdfrwt beam="2">  1       21 0.91006218E-02 0.45506056E+03</pdfrwt>
<totfact> 0.43280382E+04</totfact>
</mgrwt>
</event>
<event>
 7    0  0.4766352E-002  0.4510788E+03  0.7546771E-02  0.1027401E+00
         21   -1    0    0  502  501  0.00000000000E+00  0.00000000000E+00  0.61515512883E+03  0.61515512883E+03  0.00000000000E+00 0. -1.
         21   -1    0    0  501  502 -0.00000000000E+00 -0.00000000000E+00 -0.82691378657E+02  0.82691378657E+02  0.00000000000E+00 0. -1.
      99926    2    1    2    0    0 -0.71054273576E-14 -0.66613381478E-15  0.53246375017E+03  0.69784650748E+03  0.45107882101E+03 0.  0.
      99925    2    3    3    0    0  0.49846056930E+02 -0.49583101031E+00  0.48703330574E+03  0.55573279027E+03  0.26296885374E+03 0.  0.
         25    1    4    4    0    0  0.10523839840E+02 -0.54064153079E+01  0.31672651771E+03  0.34073916072E+03  0.12509000000E+03 0.  0.
         25    1    4    4    0    0  0.39322217090E+02  0.49105842976E+01  0.17030678803E+03  0.21499362955E+03  0.12509000000E+03 0.  0.
         25    1    3    3    0    0 -0.49846056930E+02  0.49583101031E+00  0.45430444431E+02  0.14211371722E+03  0.12509000000E+03 0.  0.
<mgrwt>
<rscale>  2 0.45107882E+03</rscale>
<asrwt>0</asrwt>
<pdfrwt beam="1">  1       21 0.90463987E-01 0.45107882E+03</pdfrwt>
<pdfrwt beam="2">  1       21 0.12160497E-01 0.45107882E+03</pdfrwt>
<totfact> 0.54688304E+04</totfact>
</mgrwt>
</event>
<event>
 7    0  0.4766352E-002  0.4098487E+03  0.7546771E-02  0.1040422E+00
         21   -1    0    0  502  501  0.00000000000E+00  0.00000000000E+00  0.17082229182E+04  0.17082229182E+04  0.00000000000E+00 0. -1.
         21   -1    0    0  501  502 -0.00000000000E+00 -0.00000000000E+00 -0.24583440394E+02  0.24583440394E+02  0.00000000000E+00 0. -1.
      99926    2    1    2    0    0  0.35527136788E-14  0.00000000000E+00  0.16836394778E+04  0.17328063586E+04  0.40984873448E+03 0.  0.
      99925    2    3    3    0    0 -0.10317682703E+02 -0.44036697387E+02  0.12894494576E+04  0.13167787569E+04  0.26302225279E+03 0.  0.
         25    1    3    3    0    0  0.10317682703E+02  0.44036697387E+02  0.39419002021E+03  0.41602760176E+03  0.12509000000E+03 0.  0.
         25    1    4    4    0    0 -0.43009767790E+02 -0.36916233443E+02  0.64936581526E+03  0.66372894960E+03  0.12509000000E+03 0.  0.
         25    1    4    4    0    0  0.32692085087E+02 -0.71204639441E+01  0.64008364237E+03  0.65304980726E+03  0.12509000000E+03 0.  0.
<mgrwt>
<rscale>  2 0.40984873E+03</rscale>
<asrwt>0</asrwt>
<pdfrwt beam="1">  1       21 0.25120917E+00 0.40984873E+03</pdfrwt>
<pdfrwt beam="2">  1       21 0.36152130E-02 0.40984873E+03</pdfrwt>
<totfact> 0.26828551E+04</totfact>
</mgrwt>
</event>
<event>
 7    0  0.4766352E-002  0.4127680E+03  0.7546771E-02  0.1039446E+00
         21   -1    0    0  502  501  0.00000000000E+00  0.00000000000E+00  0.13989951480E+04  0.13989951480E+04  0.00000000000E+00 0. -1.
         21   -1    0    0  501  502 -0.00000000000E+00 -0.00000000000E+00 -0.30446390229E+02  0.30446390229E+02  0.00000000000E+00 0. -1.
      99926    2    1    2    0    0  0.00000000000E+00  0.00000000000E+00  0.13685487577E+04  0.14294415382E+04  0.41276798424E+03 0.  0.
      99925    2    3    3    0    0  0.39405094540E+02 -0.54034928559E+02  0.90796420682E+03  0.94750982973E+03  0.26249446011E+03 0.  0.
         25    1    4    4    0    0  0.34107003972E+02 -0.65212346751E+02  0.49536682969E+03  0.51618963758E+03  0.12509000000E+03 0.  0.
         25    1    3    3    0    0 -0.39405094540E+02  0.54034928559E+02  0.46058455091E+03  0.48193170846E+03  0.12509000000E+03 0.  0.
         25    1    4    4    0    0  0.52980905686E+01  0.11177418192E+02  0.41259737713E+03  0.43132019215E+03  0.12509000000E+03 0.  0.
<mgrwt>
<rscale>  2 0.41276798E+03</rscale>
<asrwt>0</asrwt>
<pdfrwt beam="1">  1       21 0.20573454E+00 0.41276798E+03</pdfrwt>
<pdfrwt beam="2">  1       21 0.44774113E-02 0.41276798E+03</pdfrwt>
<totfact> 0.36001461E+04</totfact>
</mgrwt>
</event>
<event>
 7    0  0.4766352E-002  0.4545331E+03  0.7546771E-02  0.1026379E+00
         21   -1    0    0  502  501  0.00000000000E+00  0.00000000000E+00  0.76152209666E+02  0.76152209666E+02  0.00000000000E+00 0.  1.
         21   -1    0    0  501  502 -0.00000000000E+00 -0.00000000000E+00 -0.67824787995E+03  0.67824787995E+03  0.00000000000E+00 0.  1.
      99926    2    1    2    0    0  0.00000000000E+00  0.00000000000E+00 -0.60209567028E+03  0.75440008961E+03  0.45453305604E+03 0.  0.
      99925    2    3    3    0    0 -0.74414512343E+02 -0.78588630920E+02 -0.33607353261E+03  0.44114463733E+03  0.26447963847E+03 0.  0.
         25    1    4    4    0    0 -0.50941264973E+02 -0.65868152695E+02 -0.13049357027E+03  0.19902187316E+03  0.12509000000E+03 0.  0.
         25    1    4    4    0    0 -0.23473247369E+02 -0.12720478225E+02 -0.20557996234E+03  0.24212276416E+03  0.12509000000E+03 0.  0.
         25    1    3    3    0    0  0.74414512343E+02  0.78588630920E+02 -0.26602213767E+03  0.31325545228E+03  0.12509000000E+03 0.  0.
<mgrwt>
<rscale>  2 0.45453306E+03</rscale>
<asrwt>0</asrwt>
<pdfrwt beam="1">  1       21 0.11198855E-01 0.45453306E+03</pdfrwt>
<pdfrwt beam="2">  1       21 0.99742332E-01 0.45453306E+03</pdfrwt>
<totfact> 0.50231016E+04</totfact>
</mgrwt>
</event>
<event>
 7    0  0.4766352E-002  0.4548025E+03  0.7546771E-02  0.1026299E+00
         21   -1    0    0  502  501  0.00000000000E+00  0.00000000000E+00  0.73310623435E+03  0.73310623435E+03  0.00000000000E+00 0.  1.
         21   -1    0    0  501  502 -0.00000000000E+00 -0.00000000000E+00 -0.70537301024E+02  0.70537301024E+02  0.00000000000E+00 0.  1.
      99926    2    1    2    0    0  0.00000000000E+00 -0.14210854715E-13  0.66256893333E+03  0.80364353538E+03  0.45480252917E+03 0.  0.
      99925    2    3    3    0    0 -0.51310705618E+02  0.67971995830E+02  0.54826131620E+03  0.61399459612E+03  0.26295610374E+03 0.  0.
         25    1    3    3    0    0  0.51310705618E+02 -0.67971995830E+02  0.11430761713E+03  0.18964893926E+03  0.12509000000E+03 0.  0.
         25    1    4    4    0    0 -0.19953488916E+02  0.12495395765E+01  0.20085123384E+03  0.23746247978E+03  0.12509000000E+03 0.  0.
         25    1    4    4    0    0 -0.31357216701E+02  0.66722456253E+02  0.34741008236E+03  0.37653211633E+03  0.12509000000E+03 0.  0.
<mgrwt>
<rscale>  2 0.45480253E+03</rscale>
<asrwt>0</asrwt>
<pdfrwt beam="1">  1       21 0.10780974E+00 0.45480253E+03</pdfrwt>
<pdfrwt beam="2">  1       21 0.10373133E-01 0.45480253E+03</pdfrwt>
<totfact> 0.47662897E+04</totfact>
</mgrwt>
</event>
<event>
 7    0  0.4766352E-002  0.4586865E+03  0.7546771E-02  0.1025163E+00
         21   -1    0    0  502  501  0.00000000000E+00  0.00000000000E+00  0.11188739185E+04  0.11188739185E+04  0.00000000000E+00 0.  1.
         21   -1    0    0  501  502 -0.00000000000E+00 -0.00000000000E+00 -0.47010056862E+02  0.47010056862E+02  0.00000000000E+00 0.  1.
      99926    2    1    2    0    0  0.00000000000E+00  0.00000000000E+00  0.10718638617E+04  0.11658839754E+04  0.45868650092E+03 0.  0.
      99925    2    3    3    0    0 -0.15342167820E+02  0.75079054941E+02  0.89565896663E+03  0.93660702552E+03  0.26297431272E+03 0.  0.
         25    1    3    3    0    0  0.15342167820E+02 -0.75079054941E+02  0.17620489502E+03  0.22927694985E+03  0.12509000000E+03 0.  0.
         25    1    4    4    0    0 -0.24373503228E+02  0.42874159782E+01  0.35957641051E+03  0.38151691010E+03  0.12509000000E+03 0.  0.
         25    1    4    4    0    0  0.90313354088E+01  0.70791638963E+02  0.53608255612E+03  0.55509011542E+03  0.12509000000E+03 0.  0.
<mgrwt>
<rscale>  2 0.45868650E+03</rscale>
<asrwt>0</asrwt>
<pdfrwt beam="1">  1       21 0.16454026E+00 0.45868650E+03</pdfrwt>
<pdfrwt beam="2">  1       21 0.69132444E-02 0.45868650E+03</pdfrwt>
<totfact> 0.32318015E+04</totfact>
</mgrwt>
</event>
<event>
 7    0  0.4766352E-002  0.4534119E+03  0.7546771E-02  0.1026709E+00
         21   -1    0    0  502  501  0.00000000000E+00  0.00000000000E+00  0.10875477133E+03  0.10875477133E+03  0.00000000000E+00 0. -1.
         21   -1    0    0  501  502 -0.00000000000E+00 -0.00000000000E+00 -0.47258233126E+03  0.47258233126E+03  0.00000000000E+00 0. -1.
      99926    2    1    2    0    0 -0.71054273576E-14  0.00000000000E+00 -0.36382755993E+03  0.58133710259E+03  0.45341188061E+03 0.  0.
      99925    2    3    3    0    0  0.49438226797E+02 -0.89653976860E+02 -0.17240294650E+03  0.33079196781E+03  0.26309423439E+03 0.  0.
         25    1    4    4    0    0  0.53954452490E+02 -0.46435125995E+02 -0.55851439181E+02  0.15438327380E+03  0.12509000000E+03 0.  0.
         25    1    3    3    0    0 -0.49438226797E+02  0.89653976860E+02 -0.19142461342E+03  0.25054513478E+03  0.12509000000E+03 0.  0.
         25    1    4    4    0    0 -0.45162256927E+01 -0.43218850865E+02 -0.11655150732E+03  0.17640869401E+03  0.12509000000E+03 0.  0.
<mgrwt>
<rscale>  2 0.45341188E+03</rscale>
<asrwt>0</asrwt>
<pdfrwt beam="1">  1       21 0.15993349E-01 0.45341188E+03</pdfrwt>
<pdfrwt beam="2">  1       21 0.69497400E-01 0.45341188E+03</pdfrwt>
<totfact> 0.60599205E+04</totfact>
</mgrwt>
</event>
<event>
 7    0  0.4766352E-002  0.4599759E+03  0.7546771E-02  0.1024788E+00
         21   -1    0    0  502  501  0.00000000000E+00  0.00000000000E+00  0.14823975052E+04  0.14823975052E+04  0.00000000000E+00 0. -1.
         21   -1    0    0  501  502 -0.00000000000E+00 -0.00000000000E+00 -0.35681691746E+02  0.35681691746E+02  0.00000000000E+00 0. -1.
      99926    2    1    2    0    0  0.00000000000E+00  0.00000000000E+00  0.14467158135E+04  0.15180791970E+04  0.45997587253E+03 0.  0.
      99925    2    3    3    0    0 -0.43735638766E+02 -0.29189834733E+02  0.12540245792E+04  0.12824051160E+04  0.26309766989E+03 0.  0.
         25    1    3    3    0    0  0.43735638766E+02  0.29189834733E+02  0.19269123432E+03  0.23567408096E+03  0.12509000000E+03 0.  0.
         25    1    4    4    0    0  0.75665999102E+01 -0.68273112747E+01  0.73263939674E+03  0.74331141479E+03  0.12509000000E+03 0.  0.
         25    1    4    4    0    0 -0.51302238676E+02 -0.22362523458E+02  0.52138518243E+03  0.53909370123E+03  0.12509000000E+03 0.  0.
<mgrwt>
<rscale>  2 0.45997587E+03</rscale>
<asrwt>0</asrwt>
<pdfrwt beam="1">  1       21 0.21799959E+00 0.45997587E+03</pdfrwt>
<pdfrwt beam="2">  1       21 0.52473086E-02 0.45997587E+03</pdfrwt>
<totfact> 0.22458902E+04</totfact>
</mgrwt>
</event>
<event>
 7    0  0.4766352E-002  0.4660738E+03  0.7546771E-02  0.1023034E+00
         21   -1    0    0  502  501  0.00000000000E+00  0.00000000000E+00  0.14444199849E+03  0.14444199849E+03  0.00000000000E+00 0. -1.
         21   -1    0    0  501  502 -0.00000000000E+00 -0.00000000000E+00 -0.37597231084E+03  0.37597231084E+03  0.00000000000E+00 0. -1.
      99926    2    1    2    0    0 -0.71054273576E-14  0.00000000000E+00 -0.23153031236E+03  0.52041430933E+03  0.46607377936E+03 0.  0.
      99925    2    3    3    0    0 -0.54443466518E+02 -0.10182482346E+03 -0.96637699905E+02  0.30321414654E+03  0.26318736273E+03 0.  0.
         25    1    3    3    0    0  0.54443466518E+02  0.10182482346E+03 -0.13489261245E+03  0.21720016278E+03  0.12509000000E+03 0.  0.
         25    1    4    4    0    0 -0.33334224519E+01 -0.14887242371E+02 -0.53046525097E+02  0.13672667485E+03  0.12509000000E+03 0.  0.
         25    1    4    4    0    0 -0.51110044066E+02 -0.86937581088E+02 -0.43591174808E+02  0.16648747169E+03  0.12509000000E+03 0.  0.
<mgrwt>
<rscale>  2 0.46607378E+03</rscale>
<asrwt>0</asrwt>
<pdfrwt beam="1">  1       21 0.21241470E-01 0.46607378E+03</pdfrwt>
<pdfrwt beam="2">  1       21 0.55290047E-01 0.46607378E+03</pdfrwt>
<totfact> 0.58543006E+04</totfact>
</mgrwt>
</event>
<event>
 7    0  0.4766352E-002  0.4519904E+03  0.7546771E-02  0.1027130E+00
         21   -1    0    0  502  501  0.00000000000E+00  0.00000000000E+00  0.44429118181E+03  0.44429118181E+03  0.00000000000E+00 0.  1.
         21   -1    0    0  501  502 -0.00000000000E+00 -0.00000000000E+00 -0.11495573689E+03  0.11495573689E+03  0.00000000000E+00 0.  1.
      99926    2    1    2    0    0  0.00000000000E+00  0.00000000000E+00  0.32933544492E+03  0.55924691870E+03  0.45199035476E+03 0.  0.
      99925    2    3    3    0    0 -0.86472952039E+02 -0.65022331057E+02  0.23458111018E+03  0.36863903055E+03  0.26298471937E+03 0.  0.
         25    1    4    4    0    0 -0.78989116129E+01 -0.38998731800E+02  0.82529329949E+02  0.15505448168E+03  0.12509000000E+03 0.  0.
         25    1    4    4    0    0 -0.78574040426E+02 -0.26023599257E+02  0.15205178023E+03  0.21358454887E+03  0.12509000000E+03 0.  0.
         25    1    3    3    0    0  0.86472952039E+02  0.65022331057E+02  0.94754334740E+02  0.19060788814E+03  0.12509000000E+03 0.  0.
<mgrwt>
<rscale>  2 0.45199035E+03</rscale>
<asrwt>0</asrwt>
<pdfrwt beam="1">  1       21 0.65336938E-01 0.45199035E+03</pdfrwt>
<pdfrwt beam="2">  1       21 0.16905256E-01 0.45199035E+03</pdfrwt>
<totfact> 0.62739887E+04</totfact>
</mgrwt>
</event>
<event>
 7    0  0.4766352E-002  0.4489314E+03  0.7546771E-02  0.1028041E+00
         21   -1    0    0  502  501  0.00000000000E+00  0.00000000000E+00  0.34279696589E+03  0.34279696589E+03  0.00000000000E+00 0. -1.
         21   -1    0    0  501  502 -0.00000000000E+00 -0.00000000000E+00 -0.14698162757E+03  0.14698162757E+03  0.00000000000E+00 0. -1.
      99926    2    1    2    0    0  0.14210854715E-13  0.00000000000E+00  0.19581533832E+03  0.48977859346E+03  0.44893142449E+03 0.  0.
      99925    2    3    3    0    0  0.10497533205E+03  0.20948978287E+02  0.13406200272E+03  0.31393871576E+03  0.26291865026E+03 0.  0.
         25    1    3    3    0    0 -0.10497533205E+03 -0.20948978287E+02  0.61753335600E+02  0.17583987770E+03  0.12509000000E+03 0.  0.
         25    1    4    4    0    0  0.93205068440E+02  0.25590173768E+02  0.71312985456E+02  0.17342171655E+03  0.12509000000E+03 0.  0.
         25    1    4    4    0    0  0.11770263612E+02 -0.46411954810E+01  0.62749017260E+02  0.14051699921E+03  0.12509000000E+03 0.  0.
<mgrwt>
<rscale>  2 0.44893142E+03</rscale>
<asrwt>0</asrwt>
<pdfrwt beam="1">  1       21 0.50411318E-01 0.44893142E+03</pdfrwt>
<pdfrwt beam="2">  1       21 0.21614945E-01 0.44893142E+03</pdfrwt>
<totfact> 0.69272492E+04</totfact>
</mgrwt>
</event>
<event>
 7    0  0.4766352E-002  0.4522052E+03  0.7546771E-02  0.1027066E+00
         21   -1    0    0  502  501  0.00000000000E+00  0.00000000000E+00  0.27217849892E+03  0.27217849892E+03  0.00000000000E+00 0. -1.
         21   -1    0    0  501  502 -0.00000000000E+00 -0.00000000000E+00 -0.18782670687E+03  0.18782670687E+03  0.00000000000E+00 0. -1.
      99926    2    1    2    0    0  0.14210854715E-13  0.00000000000E+00  0.84351792058E+02  0.46000520579E+03  0.45220522391E+03 0.  0.
      99925    2    3    3    0    0 -0.10011236877E+03 -0.41255770248E+02  0.75854484209E+02  0.29434218246E+03  0.26298078379E+03 0.  0.
         25    1    4    4    0    0 -0.83346477407E+02 -0.77880589090E+01  0.62903716441E+02  0.16313085177E+03  0.12509000000E+03 0.  0.
         25    1    3    3    0    0  0.10011236877E+03  0.41255770248E+02  0.84973078494E+01  0.16566302333E+03  0.12509000000E+03 0.  0.
         25    1    4    4    0    0 -0.16765891358E+02 -0.33467711339E+02  0.12950767768E+02  0.13121133069E+03  0.12509000000E+03 0.  0.
<mgrwt>
<rscale>  2 0.45220522E+03</rscale>
<asrwt>0</asrwt>
<pdfrwt beam="1">  1       21 0.40026250E-01 0.45220522E+03</pdfrwt>
<pdfrwt beam="2">  1       21 0.27621574E-01 0.45220522E+03</pdfrwt>
<totfact> 0.69718619E+04</totfact>
</mgrwt>
</event>
<event>
 7    0  0.4766352E-002  0.4262481E+03  0.7546771E-02  0.1035052E+00
         21   -1    0    0  502  501  0.00000000000E+00  0.00000000000E+00  0.17290781085E+03  0.17290781085E+03  0.00000000000E+00 0. -1.
         21   -1    0    0  501  502 -0.00000000000E+00 -0.00000000000E+00 -0.26269413668E+03  0.26269413668E+03  0.00000000000E+00 0. -1.
      99926    2    1    2    0    0 -0.71054273576E-14  0.35527136788E-14 -0.89786325825E+02  0.43560194753E+03  0.42624813476E+03 0.  0.
      99925    2    3    3    0    0  0.42649862768E+02 -0.18481206729E+02  0.12143183104E+02  0.26768024349E+03  0.26333379970E+03 0.  0.
         25    1    4    4    0    0 -0.16602487497E+02 -0.55948163561E+01 -0.10862660152E+02  0.12677716690E+03  0.12509000000E+03 0.  0.
         25    1    3    3    0    0 -0.42649862768E+02  0.18481206729E+02 -0.10192950893E+03  0.16792170404E+03  0.12509000000E+03 0.  0.
         25    1    4    4    0    0  0.59252350266E+02 -0.12886390373E+02  0.23005843256E+02  0.14090307659E+03  0.12509000000E+03 0.  0.
<mgrwt>
<rscale>  2 0.42624813E+03</rscale>
<asrwt>0</asrwt>
<pdfrwt beam="1">  1       21 0.25427620E-01 0.42624813E+03</pdfrwt>
<pdfrwt beam="2">  1       21 0.38631490E-01 0.42624813E+03</pdfrwt>
<totfact> 0.88630360E+04</totfact>
</mgrwt>
</event>
<event>
 7    0  0.4766352E-002  0.4618426E+03  0.7546771E-02  0.1024248E+00
         21   -1    0    0  502  501  0.00000000000E+00  0.00000000000E+00  0.87875377369E+02  0.87875377369E+02  0.00000000000E+00 0.  1.
         21   -1    0    0  501  502 -0.00000000000E+00 -0.00000000000E+00 -0.60682121722E+03  0.60682121722E+03  0.00000000000E+00 0.  1.
      99926    2    1    2    0    0 -0.35527136788E-14  0.00000000000E+00 -0.51894583985E+03  0.69469659458E+03  0.46184258556E+03 0.  0.
      99925    2    3    3    0    0  0.29882499888E+02 -0.66218484702E+02 -0.46672521746E+03  0.54090337946E+03  0.26356438640E+03 0.  0.
         25    1    4    4    0    0 -0.76409702142E+01 -0.38780753707E+02 -0.29940261117E+03  0.32688187921E+03  0.12509000000E+03 0.  0.
         25    1    4    4    0    0  0.37523470102E+02 -0.27437730995E+02 -0.16732260630E+03  0.21402150025E+03  0.12509000000E+03 0.  0.
         25    1    3    3    0    0 -0.29882499888E+02  0.66218484702E+02 -0.52220622383E+02  0.15379321512E+03  0.12509000000E+03 0.  0.
<mgrwt>
<rscale>  2 0.46184259E+03</rscale>
<asrwt>0</asrwt>
<pdfrwt beam="1">  1       21 0.12922850E-01 0.46184259E+03</pdfrwt>
<pdfrwt beam="2">  1       21 0.89238413E-01 0.46184259E+03</pdfrwt>
<totfact> 0.50420849E+04</totfact>
</mgrwt>
</event>
<event>
 7    0  0.4766352E-002  0.4349297E+03  0.7546771E-02  0.1032314E+00
         21   -1    0    0  502  501  0.00000000000E+00  0.00000000000E+00  0.29291993429E+02  0.29291993429E+02  0.00000000000E+00 0. -1.
         21   -1    0    0  501  502 -0.00000000000E+00 -0.00000000000E+00 -0.16144668992E+04  0.16144668992E+04  0.00000000000E+00 0. -1.
      99926    2    1    2    0    0  0.17763568394E-14  0.00000000000E+00 -0.15851749058E+04  0.16437588927E+04  0.43492966698E+03 0.  0.
      99925    2    3    3    0    0  0.10141591939E+02 -0.91887656993E+02 -0.97225636158E+03  0.10114118018E+04  0.26291672969E+03 0.  0.
         25    1    3    3    0    0 -0.10141591939E+02  0.91887656993E+02 -0.61291854423E+03  0.63234709089E+03  0.12509000000E+03 0.  0.
         25    1    4    4    0    0 -0.22620612719E+02 -0.16939723591E+02 -0.40670079226E+03  0.42644072141E+03  0.12509000000E+03 0.  0.
         25    1    4    4    0    0  0.32762204658E+02 -0.74947933402E+02 -0.56555556932E+03  0.58497108036E+03  0.12509000000E+03 0.  0.
<mgrwt>
<rscale>  2 0.43492967E+03</rscale>
<asrwt>0</asrwt>
<pdfrwt beam="1">  1       21 0.43076468E-02 0.43492967E+03</pdfrwt>
<pdfrwt beam="2">  1       21 0.23742157E+00 0.43492967E+03</pdfrwt>
<totfact> 0.23984422E+04</totfact>
</mgrwt>
</event>
<event>
 7    0  0.4766352E-002  0.4671326E+03  0.7546771E-02  0.1022733E+00
         21   -1    0    0  502  501  0.00000000000E+00  0.00000000000E+00  0.11936191028E+03  0.11936191028E+03  0.00000000000E+00 0. -1.
         21   -1    0    0  501  502 -0.00000000000E+00 -0.00000000000E+00 -0.45704034028E+03  0.45704034028E+03  0.00000000000E+00 0. -1.
      99926    2    1    2    0    0  0.35527136788E-14  0.00000000000E+00 -0.33767843001E+03  0.57640225056E+03  0.46713256401E+03 0.  0.
      99925    2    3    3    0    0 -0.31116513170E+02  0.23019068778E+02 -0.65218590959E+02  0.27411102192E+03  0.26341084414E+03 0.  0.
         25    1    4    4    0    0  0.21420059452E+02  0.25485677504E+02 -0.44277333518E+02  0.13680763527E+03  0.12509000000E+03 0.  0.
         25    1    4    4    0    0 -0.52536572622E+02 -0.24666087262E+01 -0.20941257441E+02  0.13730338665E+03  0.12509000000E+03 0.  0.
         25    1    3    3    0    0  0.31116513170E+02 -0.23019068778E+02 -0.27245983905E+03  0.30229122864E+03  0.12509000000E+03 0.  0.
<mgrwt>
<rscale>  2 0.46713256E+03</rscale>
<asrwt>0</asrwt>
<pdfrwt beam="1">  1       21 0.17553222E-01 0.46713256E+03</pdfrwt>
<pdfrwt beam="2">  1       21 0.67211813E-01 0.46713256E+03</pdfrwt>
<totfact> 0.54714121E+04</totfact>
</mgrwt>
</event>
<event>
 7    0  0.4766352E-002  0.4541587E+03  0.7546771E-02  0.1026489E+00
         21   -1    0    0  502  501  0.00000000000E+00  0.00000000000E+00  0.50838570254E+03  0.50838570254E+03  0.00000000000E+00 0.  1.
         21   -1    0    0  501  502 -0.00000000000E+00 -0.00000000000E+00 -0.10142895642E+03  0.10142895642E+03  0.00000000000E+00 0.  1.
      99926    2    1    2    0    0  0.00000000000E+00  0.00000000000E+00  0.40695674612E+03  0.60981465897E+03  0.45415870032E+03 0.  0.
      99925    2    3    3    0    0 -0.79246048494E+02  0.79689725057E+02  0.25724054899E+03  0.38466396218E+03  0.26298911626E+03 0.  0.
         25    1    4    4    0    0 -0.21275847831E+02  0.70480787492E+02  0.15794637160E+03  0.21451053007E+03  0.12509000000E+03 0.  0.
         25    1    4    4    0    0 -0.57970200663E+02  0.92089375645E+01  0.99294177391E+02  0.17015343211E+03  0.12509000000E+03 0.  0.
         25    1    3    3    0    0  0.79246048494E+02 -0.79689725057E+02  0.14971619713E+03  0.22515069679E+03  0.12509000000E+03 0.  0.
<mgrwt>
<rscale>  2 0.45415870E+03</rscale>
<asrwt>0</asrwt>
<pdfrwt beam="1">  1       21 0.74762602E-01 0.45415870E+03</pdfrwt>
<pdfrwt beam="2">  1       21 0.14916023E-01 0.45415870E+03</pdfrwt>
<totfact> 0.58465742E+04</totfact>
</mgrwt>
</event>
<event>
 7    0  0.4766352E-002  0.4529766E+03  0.7546771E-02  0.1026838E+00
         21   -1    0    0  502  501  0.00000000000E+00  0.00000000000E+00  0.16993539241E+02  0.16993539241E+02  0.00000000000E+00 0. -1.
         21   -1    0    0  501  502 -0.00000000000E+00 -0.00000000000E+00 -0.30186147807E+04  0.30186147807E+04  0.00000000000E+00 0. -1.
      99926    2    1    2    0    0 -0.35527136788E-14  0.00000000000E+00 -0.30016212415E+04  0.30356083199E+04  0.45297659423E+03 0.  0.
      99925    2    3    3    0    0 -0.19245212363E+02  0.65811696280E+02 -0.13056931266E+04  0.13336913900E+04  0.26305251441E+03 0.  0.
         25    1    4    4    0    0  0.27895560693E+02  0.42867145144E+02 -0.59262142380E+03  0.60783502243E+03  0.12509000000E+03 0.  0.
         25    1    3    3    0    0  0.19245212363E+02 -0.65811696280E+02 -0.16959281148E+04  0.17019169299E+04  0.12509000000E+03 0.  0.
         25    1    4    4    0    0 -0.47140773056E+02  0.22944551136E+02 -0.71307170284E+03  0.72585636761E+03  0.12509000000E+03 0.  0.
<mgrwt>
<rscale>  2 0.45297659E+03</rscale>
<asrwt>0</asrwt>
<pdfrwt beam="1">  1       21 0.24990517E-02 0.45297659E+03</pdfrwt>
<pdfrwt beam="2">  1       21 0.44391362E+00 0.45297659E+03</pdfrwt>
<totfact> 0.31025537E+03</totfact>
</mgrwt>
</event>
<event>
 7    0  0.4766352E-002  0.4545753E+03  0.7546771E-02  0.1026366E+00
         21   -1    0    0  502  501  0.00000000000E+00  0.00000000000E+00  0.88961502662E+02  0.88961502662E+02  0.00000000000E+00 0. -1.
         21   -1    0    0  501  502 -0.00000000000E+00 -0.00000000000E+00 -0.58069695576E+03  0.58069695576E+03  0.00000000000E+00 0. -1.
      99926    2    1    2    0    0  0.35527136788E-14  0.00000000000E+00 -0.49173545310E+03  0.66965845842E+03  0.45457529090E+03 0.  0.
      99925    2    3    3    0    0  0.12183451205E+02  0.25667706413E+02 -0.47031794388E+03  0.53960660170E+03  0.26300009244E+03 0.  0.
         25    1    4    4    0    0  0.42685836584E+02 -0.30130827302E+01 -0.22035957653E+03  0.25697667284E+03  0.12509000000E+03 0.  0.
         25    1    4    4    0    0 -0.30502385379E+02  0.28680789143E+02 -0.24995836735E+03  0.28262992886E+03  0.12509000000E+03 0.  0.
         25    1    3    3    0    0 -0.12183451205E+02 -0.25667706413E+02 -0.21417509213E+02  0.13005185672E+03  0.12509000000E+03 0.  0.
<mgrwt>
<rscale>  2 0.45457529E+03</rscale>
<asrwt>0</asrwt>
<pdfrwt beam="1">  1       21 0.13082574E-01 0.45457529E+03</pdfrwt>
<pdfrwt beam="2">  1       21 0.85396609E-01 0.45457529E+03</pdfrwt>
<totfact> 0.54764644E+04</totfact>
</mgrwt>
</event>
<event>
 7    0  0.4766352E-002  0.4596434E+03  0.7546771E-02  0.1024885E+00
         21   -1    0    0  502  501  0.00000000000E+00  0.00000000000E+00  0.29224058629E+02  0.29224058629E+02  0.00000000000E+00 0.  1.
         21   -1    0    0  501  502 -0.00000000000E+00 -0.00000000000E+00 -0.18073466992E+04  0.18073466992E+04  0.00000000000E+00 0.  1.
      99926    2    1    2    0    0 -0.44408920985E-15  0.00000000000E+00 -0.17781226406E+04  0.18365707579E+04  0.45964336567E+03 0.  0.
      99925    2    3    3    0    0  0.28545222052E+01 -0.77215869226E+02 -0.14683896661E+04  0.14937115122E+04  0.26274594449E+03 0.  0.
         25    1    3    3    0    0 -0.28545222052E+01  0.77215869226E+02 -0.30973297453E+03  0.34285924571E+03  0.12509000000E+03 0.  0.
         25    1    4    4    0    0 -0.11107946207E+02 -0.24112381036E+02 -0.90532637759E+03  0.91431293956E+03  0.12509000000E+03 0.  0.
         25    1    4    4    0    0  0.13962468412E+02 -0.53103488190E+02 -0.56306328851E+03  0.57939857261E+03  0.12509000000E+03 0.  0.
<mgrwt>
<rscale>  2 0.45964337E+03</rscale>
<asrwt>0</asrwt>
<pdfrwt beam="1">  1       21 0.42976553E-02 0.45964337E+03</pdfrwt>
<pdfrwt beam="2">  1       21 0.26578630E+00 0.45964337E+03</pdfrwt>
<totfact> 0.15983157E+04</totfact>
</mgrwt>
</event>
<event>
 7    0  0.4766352E-002  0.4580304E+03  0.7546771E-02  0.1025354E+00
         21   -1    0    0  502  501  0.00000000000E+00  0.00000000000E+00  0.67385133767E+02  0.67385133767E+02  0.00000000000E+00 0.  1.
         21   -1    0    0  501  502 -0.00000000000E+00 -0.00000000000E+00 -0.77833144569E+03  0.77833144569E+03  0.00000000000E+00 0.  1.
      99926    2    1    2    0    0 -0.17763568394E-14  0.00000000000E+00 -0.71094631193E+03  0.84571657946E+03  0.45803042948E+03 0.  0.
      99925    2    3    3    0    0  0.14213134705E+02  0.10070838690E+03 -0.34077557903E+03  0.44196161419E+03  0.26240785195E+03 0.  0.
         25    1    4    4    0    0 -0.16993409839E+02  0.82044088074E+02 -0.16821992477E+03  0.22575530903E+03  0.12509000000E+03 0.  0.
         25    1    4    4    0    0  0.31206544543E+02  0.18664298823E+02 -0.17255565426E+03  0.21620630516E+03  0.12509000000E+03 0.  0.
         25    1    3    3    0    0 -0.14213134705E+02 -0.10070838690E+03 -0.37017073290E+03  0.40375496527E+03  0.12509000000E+03 0.  0.
<mgrwt>
<rscale>  2 0.45803043E+03</rscale>
<asrwt>0</asrwt>
<pdfrwt beam="1">  1       21 0.99095787E-02 0.45803043E+03</pdfrwt>
<pdfrwt beam="2">  1       21 0.11446050E+00 0.45803043E+03</pdfrwt>
<totfact> 0.44562701E+04</totfact>
</mgrwt>
</event>
<event>
 7    0  0.4766352E-002  0.4312290E+03  0.7546771E-02  0.1033472E+00
         21   -1    0    0  502  501  0.00000000000E+00  0.00000000000E+00  0.40392226935E+03  0.40392226935E+03  0.00000000000E+00 0. -1.
         21   -1    0    0  501  502 -0.00000000000E+00 -0.00000000000E+00 -0.11509544933E+03  0.11509544933E+03  0.00000000000E+00 0. -1.
      99926    2    1    2    0    0 -0.35527136788E-14  0.00000000000E+00  0.28882682002E+03  0.51901771868E+03  0.43122901148E+03 0.  0.
      99925    2    3    3    0    0  0.30260688612E+02  0.54873317203E+02  0.25991603727E+03  0.37615368656E+03  0.26459111713E+03 0.  0.
         25    1    3    3    0    0 -0.30260688612E+02 -0.54873317203E+02  0.28910782746E+02  0.14286403213E+03  0.12509000000E+03 0.  0.
         25    1    4    4    0    0  0.51896862568E+02  0.21914609008E+02  0.16315011972E+03  0.21316426552E+03  0.12509000000E+03 0.  0.
         25    1    4    4    0    0 -0.21636173955E+02  0.32958708194E+02  0.96765917555E+02  0.16298942104E+03  0.12509000000E+03 0.  0.
<mgrwt>
<rscale>  2 0.43122901E+03</rscale>
<asrwt>0</asrwt>
<pdfrwt beam="1">  1       21 0.59400333E-01 0.43122901E+03</pdfrwt>
<pdfrwt beam="2">  1       21 0.16925801E-01 0.43122901E+03</pdfrwt>
<totfact> 0.77561274E+04</totfact>
</mgrwt>
</event>
<event>
 7    0  0.4766352E-002  0.4549630E+03  0.7546771E-02  0.1026252E+00
         21   -1    0    0  502  501  0.00000000000E+00  0.00000000000E+00  0.24359058736E+03  0.24359058736E+03  0.00000000000E+00 0. -1.
         21   -1    0    0  501  502 -0.00000000000E+00 -0.00000000000E+00 -0.21243770053E+03  0.21243770053E+03  0.00000000000E+00 0. -1.
      99926    2    1    2    0    0  0.00000000000E+00  0.00000000000E+00  0.31152886830E+02  0.45602828790E+03  0.45496296223E+03 0.  0.
      99925    2    3    3    0    0 -0.64327466437E+02  0.70648318494E+02 -0.41019866644E+02  0.28286471699E+03  0.26306008974E+03 0.  0.
         25    1    4    4    0    0 -0.65817462765E+00  0.46330933444E+02 -0.43747602574E+02  0.14038642890E+03  0.12509000000E+03 0.  0.
         25    1    4    4    0    0 -0.63669291809E+02  0.24317385050E+02  0.27277359296E+01  0.14247828809E+03  0.12509000000E+03 0.  0.
         25    1    3    3    0    0  0.64327466437E+02 -0.70648318494E+02  0.72172753474E+02  0.17316357090E+03  0.12509000000E+03 0.  0.
<mgrwt>
<rscale>  2 0.45496296E+03</rscale>
<asrwt>0</asrwt>
<pdfrwt beam="1">  1       21 0.35822145E-01 0.45496296E+03</pdfrwt>
<pdfrwt beam="2">  1       21 0.31240838E-01 0.45496296E+03</pdfrwt>
<totfact> 0.68490801E+04</totfact>
</mgrwt>
</event>
<event>
 6    0  0.4766352E-002  0.4953195E+03  0.7546771E-02  0.1015008E+00
         21   -1    0    0  502  501  0.00000000000E+00  0.00000000000E+00  0.13806741409E+03  0.13806741409E+03  0.00000000000E+00 0.  1.
         21   -1    0    0  501  502 -0.00000000000E+00 -0.00000000000E+00 -0.44424198821E+03  0.44424198821E+03  0.00000000000E+00 0.  1.
      99926    2    1    2    0    0 -0.28421709430E-13 -0.71054273576E-14 -0.30617457413E+03  0.58230940230E+03  0.49531946274E+03 0.  0.
         25    1    3    3    0    0  0.13783171127E+03  0.40029066433E+02 -0.16936654620E+03  0.25481844883E+03  0.12509000000E+03 0.  0.
         25    1    3    3    0    0 -0.69110428406E+02 -0.53682578973E+02 -0.86991723906E+02  0.17570753748E+03  0.12509000000E+03 0.  0.
         25    1    3    3    0    0 -0.68721282867E+02  0.13653512540E+02 -0.49816304021E+02  0.15178341599E+03  0.12509000000E+03 0.  0.
<mgrwt>
<rscale>  2 0.49531946E+03</rscale>
<asrwt>0</asrwt>
<pdfrwt beam="1">  1       21 0.20304031E-01 0.49531946E+03</pdfrwt>
<pdfrwt beam="2">  1       21 0.65329705E-01 0.49531946E+03</pdfrwt>
<totfact> 0.43982696E+04</totfact>
</mgrwt>
</event>
<event>
 7    0  0.4766352E-002  0.4463082E+03  0.7546771E-02  0.1028829E+00
         21   -1    0    0  502  501  0.00000000000E+00  0.00000000000E+00  0.56244312206E+03  0.56244312206E+03  0.00000000000E+00 0.  1.
         21   -1    0    0  501  502 -0.00000000000E+00 -0.00000000000E+00 -0.88538279915E+02  0.88538279915E+02  0.00000000000E+00 0.  1.
      99926    2    1    2    0    0 -0.35527136788E-14  0.35527136788E-14  0.47390484214E+03  0.65098140197E+03  0.44630817415E+03 0.  0.
      99925    2    3    3    0    0  0.24429394270E+02 -0.19155741912E+02  0.15456420667E+03  0.30661286781E+03  0.26297836218E+03 0.  0.
         25    1    4    4    0    0  0.21204755787E+02 -0.70511083339E+01  0.31998488589E+02  0.13103728923E+03  0.12509000000E+03 0.  0.
         25    1    3    3    0    0 -0.24429394270E+02  0.19155741912E+02  0.31934063548E+03  0.34436853416E+03  0.12509000000E+03 0.  0.
         25    1    4    4    0    0  0.32246384826E+01 -0.12104633578E+02  0.12256571808E+03  0.17557557858E+03  0.12509000000E+03 0.  0.
<mgrwt>
<rscale>  2 0.44630817E+03</rscale>
<asrwt>0</asrwt>
<pdfrwt beam="1">  1       21 0.82712222E-01 0.44630817E+03</pdfrwt>
<pdfrwt beam="2">  1       21 0.13020336E-01 0.44630817E+03</pdfrwt>
<totfact> 0.59629332E+04</totfact>
</mgrwt>
</event>
<event>
 7    0  0.4766352E-002  0.4477747E+03  0.7546771E-02  0.1028388E+00
         21   -1    0    0  502  501  0.00000000000E+00  0.00000000000E+00  0.17231369977E+03  0.17231369977E+03  0.00000000000E+00 0.  1.
         21   -1    0    0  501  502 -0.00000000000E+00 -0.00000000000E+00 -0.29089709970E+03  0.29089709970E+03  0.00000000000E+00 0.  1.
      99926    2    1    2    0    0  0.00000000000E+00  0.00000000000E+00 -0.11858339993E+03  0.46321079946E+03  0.44777474471E+03 0.  0.
      99925    2    3    3    0    0 -0.54410455565E+02  0.70757401361E+02 -0.13507089305E+03  0.30865837130E+03  0.26279028997E+03 0.  0.
         25    1    4    4    0    0  0.19813131332E+01  0.58520786656E+01 -0.51845097342E+02  0.13554923329E+03  0.12509000000E+03 0.  0.
         25    1    4    4    0    0 -0.56391768698E+02  0.64905322695E+02 -0.83225795712E+02  0.17310913801E+03  0.12509000000E+03 0.  0.
         25    1    3    3    0    0  0.54410455565E+02 -0.70757401361E+02  0.16487493124E+02  0.15455242816E+03  0.12509000000E+03 0.  0.
<mgrwt>
<rscale>  2 0.44777474E+03</rscale>
<asrwt>0</asrwt>
<pdfrwt beam="1">  1       21 0.25340250E-01 0.44777474E+03</pdfrwt>
<pdfrwt beam="2">  1       21 0.42778985E-01 0.44777474E+03</pdfrwt>
<totfact> 0.71982099E+04</totfact>
</mgrwt>
</event>
<event>
 7    0  0.4766352E-002  0.4498440E+03  0.7546771E-02  0.1027769E+00
         21   -1    0    0  502  501  0.00000000000E+00  0.00000000000E+00  0.63563117622E+03  0.63563117622E+03  0.00000000000E+00 0. -1.
         21   -1    0    0  501  502 -0.00000000000E+00 -0.00000000000E+00 -0.79590043460E+02  0.79590043460E+02  0.00000000000E+00 0. -1.
      99926    2    1    2    0    0  0.71054273576E-14 -0.71054273576E-14  0.55604113276E+03  0.71522121968E+03  0.44984403048E+03 0.  0.
      99925    2    3    3    0    0 -0.52757995332E+02  0.36961086952E+02  0.21333720612E+03  0.34475797258E+03  0.26305088504E+03 0.  0.
         25    1    3    3    0    0  0.52757995332E+02 -0.36961086952E+02  0.34270392664E+03  0.37046324710E+03  0.12509000000E+03 0.  0.
         25    1    4    4    0    0 -0.48826389364E+02 -0.95205678156E+01  0.82822664651E+02  0.15805619061E+03  0.12509000000E+03 0.  0.
         25    1    4    4    0    0 -0.39316059684E+01  0.46481654768E+02  0.13051454147E+03  0.18670178197E+03  0.12509000000E+03 0.  0.
<mgrwt>
<rscale>  2 0.44984403E+03</rscale>
<asrwt>0</asrwt>
<pdfrwt beam="1">  1       21 0.93475170E-01 0.44984403E+03</pdfrwt>
<pdfrwt beam="2">  1       21 0.11704419E-01 0.44984403E+03</pdfrwt>
<totfact> 0.54251505E+04</totfact>
</mgrwt>
</event>
<event>
 7    0  0.4766352E-002  0.4223615E+03  0.7546771E-02  0.1036300E+00
         21   -1    0    0  502  501  0.00000000000E+00  0.00000000000E+00  0.11402630686E+03  0.11402630686E+03  0.00000000000E+00 0.  1.
         21   -1    0    0  501  502 -0.00000000000E+00 -0.00000000000E+00 -0.39111421114E+03  0.39111421114E+03  0.00000000000E+00 0.  1.
      99926    2    1    2    0    0  0.71054273576E-14  0.00000000000E+00 -0.27708790427E+03  0.50514051800E+03  0.42236149947E+03 0.  0.
      99925    2    3    3    0    0 -0.47168764288E+02  0.16532472437E+02 -0.25297196286E+03  0.36829278620E+03  0.26295731099E+03 0.  0.
         25    1    4    4    0    0 -0.20279001854E+02  0.28952358795E+02 -0.17482245268E+03  0.21785287479E+03  0.12509000000E+03 0.  0.
         25    1    4    4    0    0 -0.26889762434E+02 -0.12419886359E+02 -0.78149510183E+02  0.15043991140E+03  0.12509000000E+03 0.  0.
         25    1    3    3    0    0  0.47168764288E+02 -0.16532472437E+02 -0.24115941413E+02  0.13684773180E+03  0.12509000000E+03 0.  0.
<mgrwt>
<rscale>  2 0.42236150E+03</rscale>
<asrwt>0</asrwt>
<pdfrwt beam="1">  1       21 0.16768575E-01 0.42236150E+03</pdfrwt>
<pdfrwt beam="2">  1       21 0.57516795E-01 0.42236150E+03</pdfrwt>
<totfact> 0.84825140E+04</totfact>
</mgrwt>
</event>
<event>
 7    0  0.4766352E-002  0.4540858E+03  0.7546771E-02  0.1026511E+00
         21   -1    0    0  502  501  0.00000000000E+00  0.00000000000E+00  0.52788864223E+03  0.52788864223E+03  0.00000000000E+00 0.  1.
         21   -1    0    0  501  502 -0.00000000000E+00 -0.00000000000E+00 -0.97650276375E+02  0.97650276375E+02  0.00000000000E+00 0.  1.
      99926    2    1    2    0    0  0.00000000000E+00 -0.35527136788E-14  0.43023836586E+03  0.62553891861E+03  0.45408577079E+03 0.  0.
      99925    2    3    3    0    0  0.33785164982E+02  0.29957987634E+02  0.41263465375E+03  0.49138856574E+03  0.26297613326E+03 0.  0.
         25    1    4    4    0    0 -0.20198640501E+02 -0.68813081818E+00  0.18182624951E+03  0.22162299455E+03  0.12509000000E+03 0.  0.
         25    1    4    4    0    0  0.53983805483E+02  0.30646118452E+02  0.23080840423E+03  0.26976557118E+03  0.12509000000E+03 0.  0.
         25    1    3    3    0    0 -0.33785164982E+02 -0.29957987634E+02  0.17603712110E+02  0.13415035287E+03  0.12509000000E+03 0.  0.
<mgrwt>
<rscale>  2 0.45408577E+03</rscale>
<asrwt>0</asrwt>
<pdfrwt beam="1">  1       21 0.77630681E-01 0.45408577E+03</pdfrwt>
<pdfrwt beam="2">  1       21 0.14360335E-01 0.45408577E+03</pdfrwt>
<totfact> 0.57547437E+04</totfact>
</mgrwt>
</event>
<event>
 7    0  0.4766352E-002  0.4521270E+03  0.7546771E-02  0.1027090E+00
         21   -1    0    0  502  501  0.00000000000E+00  0.00000000000E+00  0.40084826740E+02  0.40084826740E+02  0.00000000000E+00 0. -1.
         21   -1    0    0  501  502 -0.00000000000E+00 -0.00000000000E+00 -0.12749137657E+04  0.12749137657E+04  0.00000000000E+00 0. -1.
      99926    2    1    2    0    0  0.00000000000E+00  0.00000000000E+00 -0.12348289390E+04  0.13149985925E+04  0.45212696185E+03 0.  0.
      99925    2    3    3    0    0  0.39756747860E+02 -0.93519372726E+02 -0.65279762263E+03  0.71106611827E+03  0.26295211799E+03 0.  0.
         25    1    4    4    0    0  0.15130181140E+02 -0.49054692945E+02 -0.42784069498E+03  0.44869862231E+03  0.12509000000E+03 0.  0.
         25    1    4    4    0    0  0.24626566720E+02 -0.44464679781E+02 -0.22495692765E+03  0.26236749596E+03  0.12509000000E+03 0.  0.
         25    1    3    3    0    0 -0.39756747860E+02  0.93519372726E+02 -0.58203131636E+03  0.60393247420E+03  0.12509000000E+03 0.  0.
<mgrwt>
<rscale>  2 0.45212696E+03</rscale>
<asrwt>0</asrwt>
<pdfrwt beam="1">  1       21 0.58948266E-02 0.45212696E+03</pdfrwt>
<pdfrwt beam="2">  1       21 0.18748735E+00 0.45212696E+03</pdfrwt>
<totfact> 0.29332059E+04</totfact>
</mgrwt>
</event>
<event>
 7    0  0.4766352E-002  0.4446889E+03  0.7546771E-02  0.1029318E+00
         21   -1    0    0  502  501  0.00000000000E+00  0.00000000000E+00  0.13161515092E+03  0.13161515092E+03  0.00000000000E+00 0. -1.
         21   -1    0    0  501  502 -0.00000000000E+00 -0.00000000000E+00 -0.37561821459E+03  0.37561821459E+03  0.00000000000E+00 0. -1.
      99926    2    1    2    0    0  0.00000000000E+00  0.00000000000E+00 -0.24400306367E+03  0.50723336551E+03  0.44468887102E+03 0.  0.
      99925    2    3    3    0    0 -0.92621477272E+02  0.40688311918E+02 -0.13119221725E+03  0.31074399697E+03  0.26289951885E+03 0.  0.
         25    1    4    4    0    0 -0.18438335613E+02  0.49952942178E+02 -0.61810981947E+02  0.14934314260E+03  0.12509000000E+03 0.  0.
         25    1    3    3    0    0  0.92621477272E+02 -0.40688311918E+02 -0.11281084642E+03  0.19648936854E+03  0.12509000000E+03 0.  0.
         25    1    4    4    0    0 -0.74183141659E+02 -0.92646302599E+01 -0.69381235304E+02  0.16140085437E+03  0.12509000000E+03 0.  0.
<mgrwt>
<rscale>  2 0.44468887E+03</rscale>
<asrwt>0</asrwt>
<pdfrwt beam="1">  1       21 0.19355169E-01 0.44468887E+03</pdfrwt>
<pdfrwt beam="2">  1       21 0.55237974E-01 0.44468887E+03</pdfrwt>
<totfact> 0.70347724E+04</totfact>
</mgrwt>
</event>
<event>
 7    0  0.4766352E-002  0.4269436E+03  0.7546771E-02  0.1034830E+00
         21   -1    0    0  502  501  0.00000000000E+00  0.00000000000E+00  0.20040470052E+04  0.20040470052E+04  0.00000000000E+00 0. -1.
         21   -1    0    0  501  502 -0.00000000000E+00 -0.00000000000E+00 -0.22739096868E+02  0.22739096868E+02  0.00000000000E+00 0. -1.
      99926    2    1    2    0    0  0.00000000000E+00 -0.35527136788E-14  0.19813079084E+04  0.20267861021E+04  0.42694364490E+03 0.  0.
      99925    2    3    3    0    0 -0.64294221984E+02 -0.18925369883E+02  0.10419260109E+04  0.10767451693E+04  0.26320796116E+03 0.  0.
         25    1    4    4    0    0 -0.37306774320E+02 -0.37622416449E+02  0.64961153094E+03  0.66366398943E+03  0.12509000000E+03 0.  0.
         25    1    3    3    0    0  0.64294221984E+02  0.18925369883E+02  0.93938189751E+03  0.95004093284E+03  0.12509000000E+03 0.  0.
         25    1    4    4    0    0 -0.26987447665E+02  0.18697046566E+02  0.39231447991E+03  0.41308117983E+03  0.12509000000E+03 0.  0.
<mgrwt>
<rscale>  2 0.42694364E+03</rscale>
<asrwt>0</asrwt>
<pdfrwt beam="1">  1       21 0.29471267E+00 0.42694364E+03</pdfrwt>
<pdfrwt beam="2">  1       21 0.33439862E-02 0.42694364E+03</pdfrwt>
<totfact> 0.16611625E+04</totfact>
</mgrwt>
</event>
<event>
 7    0  0.4766352E-002  0.4562920E+03  0.7546771E-02  0.1025862E+00
         21   -1    0    0  502  501  0.00000000000E+00  0.00000000000E+00  0.13835533191E+03  0.13835533191E+03  0.00000000000E+00 0. -1.
         21   -1    0    0  501  502 -0.00000000000E+00 -0.00000000000E+00 -0.37620955529E+03  0.37620955529E+03  0.00000000000E+00 0. -1.
      99926    2    1    2    0    0 -0.71054273576E-14  0.00000000000E+00 -0.23785422338E+03  0.51456488720E+03  0.45629200251E+03 0.  0.
      99925    2    3    3    0    0 -0.28179761372E+02 -0.11036753767E+03 -0.16097995813E+03  0.32873632890E+03  0.26301698556E+03 0.  0.
         25    1    4    4    0    0  0.13921528446E+02 -0.69463452421E+02 -0.11162928176E+03  0.18200984815E+03  0.12509000000E+03 0.  0.
         25    1    3    3    0    0  0.28179761372E+02  0.11036753767E+03 -0.76874265255E+02  0.18582855830E+03  0.12509000000E+03 0.  0.
         25    1    4    4    0    0 -0.42101289819E+02 -0.40904085253E+02 -0.49350676368E+02  0.14672648075E+03  0.12509000000E+03 0.  0.
<mgrwt>
<rscale>  2 0.45629200E+03</rscale>
<asrwt>0</asrwt>
<pdfrwt beam="1">  1       21 0.20346373E-01 0.45629200E+03</pdfrwt>
<pdfrwt beam="2">  1       21 0.55324934E-01 0.45629200E+03</pdfrwt>
<totfact> 0.63604465E+04</totfact>
</mgrwt>
</event>
<event>
 7    0  0.4766352E-002  0.4561869E+03  0.7546771E-02  0.1025893E+00
         21   -1    0    0  502  501  0.00000000000E+00  0.00000000000E+00  0.64739312567E+03  0.64739312567E+03  0.00000000000E+00 0.  1.
         21   -1    0    0  501  502 -0.00000000000E+00 -0.00000000000E+00 -0.80363251826E+02  0.80363251826E+02  0.00000000000E+00 0.  1.
      99926    2    1    2    0    0  0.71054273576E-14  0.17763568394E-14  0.56702987384E+03  0.72775637749E+03  0.45618687745E+03 0.  0.
      99925    2    3    3    0    0 -0.48407531259E+02 -0.26572365309E+01  0.52152721285E+03  0.58609357276E+03  0.26299181032E+03 0.  0.
         25    1    3    3    0    0  0.48407531259E+02  0.26572365309E+01  0.45502660988E+02  0.14166280474E+03  0.12509000000E+03 0.  0.
         25    1    4    4    0    0 -0.41028699423E+02 -0.21661128536E+02  0.19927232149E+03  0.23981143609E+03  0.12509000000E+03 0.  0.
         25    1    4    4    0    0 -0.73788318362E+01  0.19003892005E+02  0.32225489136E+03  0.34628213667E+03  0.12509000000E+03 0.  0.
<mgrwt>
<rscale>  2 0.45618688E+03</rscale>
<asrwt>0</asrwt>
<pdfrwt beam="1">  1       21 0.95204869E-01 0.45618688E+03</pdfrwt>
<pdfrwt beam="2">  1       21 0.11818126E-01 0.45618688E+03</pdfrwt>
<totfact> 0.50944617E+04</totfact>
</mgrwt>
</event>
<event>
 7    0  0.4766352E-002  0.4476410E+03  0.7546771E-02  0.1028428E+00
         21   -1    0    0  502  501  0.00000000000E+00  0.00000000000E+00  0.36836208988E+03  0.36836208988E+03  0.00000000000E+00 0.  1.
         21   -1    0    0  501  502 -0.00000000000E+00 -0.00000000000E+00 -0.13599560535E+03  0.13599560535E+03  0.00000000000E+00 0.  1.
      99926    2    1    2    0    0 -0.71054273576E-14  0.00000000000E+00  0.23236648453E+03  0.50435769522E+03  0.44764104101E+03 0.  0.
      99925    2    3    3    0    0  0.56175056391E+02 -0.58641322814E+02  0.70393365830E+02  0.28418221752E+03  0.26307767883E+03 0.  0.
         25    1    4    4    0    0  0.36197245098E+02  0.98237081692E+01  0.23085867863E+02  0.13261678321E+03  0.12509000000E+03 0.  0.
         25    1    3    3    0    0 -0.56175056391E+02  0.58641322814E+02  0.16197311870E+03  0.22017547771E+03  0.12509000000E+03 0.  0.
         25    1    4    4    0    0  0.19977811293E+02 -0.68465030983E+02  0.47307497967E+02  0.15156543430E+03  0.12509000000E+03 0.  0.
<mgrwt>
<rscale>  2 0.44764104E+03</rscale>
<asrwt>0</asrwt>
<pdfrwt beam="1">  1       21 0.54170896E-01 0.44764104E+03</pdfrwt>
<pdfrwt beam="2">  1       21 0.19999354E-01 0.44764104E+03</pdfrwt>
<totfact> 0.68902765E+04</totfact>
</mgrwt>
</event>
<event>
 7    0  0.4766352E-002  0.4564196E+03  0.7546771E-02  0.1025825E+00
         21   -1    0    0  502  501  0.00000000000E+00  0.00000000000E+00  0.10034519160E+04  0.10034519160E+04  0.00000000000E+00 0.  1.
         21   -1    0    0  501  502 -0.00000000000E+00 -0.00000000000E+00 -0.51900552951E+02  0.51900552951E+02  0.00000000000E+00 0.  1.
      99926    2    1    2    0    0 -0.14210854715E-13  0.00000000000E+00  0.95155136306E+03  0.10553524690E+04  0.45641958460E+03 0.  0.
      99925    2    3    3    0    0 -0.66059196215E+02  0.83998489760E+02  0.69322769564E+03  0.74908756902E+03  0.26296004330E+03 0.  0.
         25    1    3    3    0    0  0.66059196215E+02 -0.83998489760E+02  0.25832366743E+03  0.30626489995E+03  0.12509000000E+03 0.  0.
         25    1    4    4    0    0 -0.23693133414E+01  0.11800131054E+02  0.32521512700E+03  0.34865060400E+03  0.12509000000E+03 0.  0.
         25    1    4    4    0    0 -0.63689882874E+02  0.72198358707E+02  0.36801256863E+03  0.40043696502E+03  0.12509000000E+03 0.  0.
<mgrwt>
<rscale>  2 0.45641958E+03</rscale>
<asrwt>0</asrwt>
<pdfrwt beam="1">  1       21 0.14756645E+00 0.45641958E+03</pdfrwt>
<pdfrwt beam="2">  1       21 0.76324349E-02 0.45641958E+03</pdfrwt>
<totfact> 0.36673585E+04</totfact>
</mgrwt>
</event>
<event>
 7    0  0.4766352E-002  0.4559660E+03  0.7546771E-02  0.1025958E+00
         21   -1    0    0  502  501  0.00000000000E+00  0.00000000000E+00  0.44402862884E+02  0.44402862884E+02  0.00000000000E+00 0. -1.
         21   -1    0    0  501  502 -0.00000000000E+00 -0.00000000000E+00 -0.11705606587E+04  0.11705606587E+04  0.00000000000E+00 0. -1.
      99926    2    1    2    0    0 -0.26645352591E-14 -0.14210854715E-13 -0.11261577958E+04  0.12149635216E+04  0.45596598305E+03 0.  0.
      99925    2    3    3    0    0  0.47835285023E+01  0.88087573567E+02 -0.51505413093E+03  0.58498137890E+03  0.26294515228E+03 0.  0.
         25    1    3    3    0    0 -0.47835285023E+01 -0.88087573567E+02 -0.61110366487E+03  0.62998214267E+03  0.12509000000E+03 0.  0.
         25    1    4    4    0    0 -0.22597326440E+02  0.44377238195E+02 -0.18979048702E+03  0.23269704659E+03  0.12509000000E+03 0.  0.
         25    1    4    4    0    0  0.27380854942E+02  0.43710335372E+02 -0.32526364392E+03  0.35228433231E+03  0.12509000000E+03 0.  0.
<mgrwt>
<rscale>  2 0.45596598E+03</rscale>
<asrwt>0</asrwt>
<pdfrwt beam="1">  1       21 0.65298332E-02 0.45596598E+03</pdfrwt>
<pdfrwt beam="2">  1       21 0.17214126E+00 0.45596598E+03</pdfrwt>
<totfact> 0.31447977E+04</totfact>
</mgrwt>
</event>
<event>
 6    0  0.4766352E-002  0.4539162E+03  0.7546771E-02  0.1026561E+00
         21   -1    0    0  502  501  0.00000000000E+00  0.00000000000E+00  0.18438396063E+03  0.18438396063E+03  0.00000000000E+00 0. -1.
         21   -1    0    0  501  502 -0.00000000000E+00 -0.00000000000E+00 -0.27936262175E+03  0.27936262175E+03  0.00000000000E+00 0. -1.
      99926    2    1    2    0    0  0.00000000000E+00  0.00000000000E+00 -0.94978661122E+02  0.46374658238E+03  0.45391623302E+03 0.  0.
         25    1    3    3    0    0  0.65454443957E+02  0.33795175484E+02  0.48577885132E+02  0.15308075367E+03  0.12509000000E+03 0.  0.
         25    1    3    3    0    0 -0.73524643014E+02 -0.37628734446E+02 -0.84075984473E+02  0.17186644248E+03  0.12509000000E+03 0.  0.
         25    1    3    3    0    0  0.80701990572E+01  0.38335589624E+01 -0.59480561780E+02  0.13879938623E+03  0.12509000000E+03 0.  0.
<mgrwt>
<rscale>  2 0.45391623E+03</rscale>
<asrwt>0</asrwt>
<pdfrwt beam="1">  1       21 0.27115288E-01 0.45391623E+03</pdfrwt>
<pdfrwt beam="2">  1       21 0.41082738E-01 0.45391623E+03</pdfrwt>
<totfact> 0.68491289E+04</totfact>
</mgrwt>
</event>
<event>
 7    0  0.4766352E-002  0.4557955E+03  0.7546771E-02  0.1026008E+00
         21   -1    0    0  502  501  0.00000000000E+00  0.00000000000E+00  0.49312342002E+03  0.49312342002E+03  0.00000000000E+00 0. -1.
         21   -1    0    0  501  502 -0.00000000000E+00 -0.00000000000E+00 -0.10532330508E+03  0.10532330508E+03  0.00000000000E+00 0. -1.
      99926    2    1    2    0    0  0.35527136788E-14 -0.14210854715E-13  0.38780011494E+03  0.59844672510E+03  0.45579551734E+03 0.  0.
      99925    2    3    3    0    0 -0.29733510844E+02  0.75397403155E+02  0.34894562280E+03  0.44441416448E+03  0.26300580194E+03 0.  0.
         25    1    3    3    0    0  0.29733510844E+02 -0.75397403155E+02  0.38854492144E+02  0.15403256061E+03  0.12509000000E+03 0.  0.
         25    1    4    4    0    0 -0.42930233629E+01 -0.24209492549E+01  0.14544904223E+03  0.19190420274E+03  0.12509000000E+03 0.  0.
         25    1    4    4    0    0 -0.25440487481E+02  0.77818352410E+02  0.20349658057E+03  0.25250996174E+03  0.12509000000E+03 0.  0.
<mgrwt>
<rscale>  2 0.45579552E+03</rscale>
<asrwt>0</asrwt>
<pdfrwt beam="1">  1       21 0.72518149E-01 0.45579552E+03</pdfrwt>
<pdfrwt beam="2">  1       21 0.15488722E-01 0.45579552E+03</pdfrwt>
<totfact> 0.58405977E+04</totfact>
</mgrwt>
</event>
<event>
 7    0  0.4766352E-002  0.4541950E+03  0.7546771E-02  0.1026478E+00
         21   -1    0    0  502  501  0.00000000000E+00  0.00000000000E+00  0.30801735170E+03  0.30801735170E+03  0.00000000000E+00 0. -1.
         21   -1    0    0  501  502 -0.00000000000E+00 -0.00000000000E+00 -0.16743629563E+03  0.16743629563E+03  0.00000000000E+00 0. -1.
      99926    2    1    2    0    0  0.00000000000E+00 -0.55511151231E-15  0.14058105607E+03  0.47545364732E+03  0.45419504338E+03 0.  0.
      99925    2    3    3    0    0 -0.90163802947E+02 -0.62351902708E+00  0.15862662240E+03  0.32020207502E+03  0.26312936624E+03 0.  0.
         25    1    4    4    0    0 -0.31279046714E+01  0.62470837259E+01  0.79181098894E+02  0.14820919123E+03  0.12509000000E+03 0.  0.
         25    1    3    3    0    0  0.90163802947E+02  0.62351902708E+00 -0.18045566330E+02  0.15525157230E+03  0.12509000000E+03 0.  0.
         25    1    4    4    0    0 -0.87035898276E+02 -0.68706027530E+01  0.79445523506E+02  0.17199288379E+03  0.12509000000E+03 0.  0.
<mgrwt>
<rscale>  2 0.45419504E+03</rscale>
<asrwt>0</asrwt>
<pdfrwt beam="1">  1       21 0.45296670E-01 0.45419504E+03</pdfrwt>
<pdfrwt beam="2">  1       21 0.24622984E-01 0.45419504E+03</pdfrwt>
<totfact> 0.67462499E+04</totfact>
</mgrwt>
</event>
<event>
 7    0  0.4766352E-002  0.4486538E+03  0.7546771E-02  0.1028124E+00
         21   -1    0    0  502  501  0.00000000000E+00  0.00000000000E+00  0.35904252508E+03  0.35904252508E+03  0.00000000000E+00 0. -1.
         21   -1    0    0  501  502 -0.00000000000E+00 -0.00000000000E+00 -0.14015763046E+03  0.14015763046E+03  0.00000000000E+00 0. -1.
      99926    2    1    2    0    0  0.00000000000E+00  0.14210854715E-13  0.21888489462E+03  0.49920015553E+03  0.44865376204E+03 0.  0.
      99925    2    3    3    0    0 -0.16832580104E+02  0.85036471288E+02  0.20846770365E+03  0.34665323433E+03  0.26304969911E+03 0.  0.
         25    1    4    4    0    0 -0.17457721831E+01  0.39433165201E+02  0.15326611800E+03  0.20173257859E+03  0.12509000000E+03 0.  0.
         25    1    4    4    0    0 -0.15086807921E+02  0.45603306088E+02  0.55201585650E+02  0.14492065573E+03  0.12509000000E+03 0.  0.
         25    1    3    3    0    0  0.16832580104E+02 -0.85036471288E+02  0.10417190968E+02  0.15254692121E+03  0.12509000000E+03 0.  0.
<mgrwt>
<rscale>  2 0.44865376E+03</rscale>
<asrwt>0</asrwt>
<pdfrwt beam="1">  1       21 0.52800371E-01 0.44865376E+03</pdfrwt>
<pdfrwt beam="2">  1       21 0.20611416E-01 0.44865376E+03</pdfrwt>
<totfact> 0.68724105E+04</totfact>
</mgrwt>
</event>
<event>
 7    0  0.4766352E-002  0.4284274E+03  0.7546771E-02  0.1034358E+00
         21   -1    0    0  502  501  0.00000000000E+00  0.00000000000E+00  0.47606364572E+03  0.47606364572E+03  0.00000000000E+00 0. -1.
         21   -1    0    0  501  502 -0.00000000000E+00 -0.00000000000E+00 -0.96389435406E+02  0.96389435406E+02  0.00000000000E+00 0. -1.
      99926    2    1    2    0    0  0.00000000000E+00  0.00000000000E+00  0.37967421031E+03  0.57245308112E+03  0.42842738488E+03 0.  0.
      99925    2    3    3    0    0  0.28306405011E+02 -0.66998515589E+02  0.30631164199E+03  0.41021982871E+03  0.26298941461E+03 0.  0.
         25    1    3    3    0    0 -0.28306405011E+02  0.66998515589E+02  0.73362568320E+02  0.16223325241E+03  0.12509000000E+03 0.  0.
         25    1    4    4    0    0  0.47656174116E+02 -0.12005237783E+02  0.16298542619E+03  0.21125102110E+03  0.12509000000E+03 0.  0.
         25    1    4    4    0    0 -0.19349769104E+02 -0.54993277806E+02  0.14332621580E+03  0.19896880761E+03  0.12509000000E+03 0.  0.
<mgrwt>
<rscale>  2 0.42842738E+03</rscale>
<asrwt>0</asrwt>
<pdfrwt beam="1">  1       21 0.70009359E-01 0.42842738E+03</pdfrwt>
<pdfrwt beam="2">  1       21 0.14174917E-01 0.42842738E+03</pdfrwt>
<totfact> 0.74957261E+04</totfact>
</mgrwt>
</event>
<event>
 7    0  0.4766352E-002  0.4554597E+03  0.7546771E-02  0.1026106E+00
         21   -1    0    0  502  501  0.00000000000E+00  0.00000000000E+00  0.47678099546E+03  0.47678099546E+03  0.00000000000E+00 0. -1.
         21   -1    0    0  501  502 -0.00000000000E+00 -0.00000000000E+00 -0.10877297242E+03  0.10877297242E+03  0.00000000000E+00 0. -1.
      99926    2    1    2    0    0  0.00000000000E+00  0.71054273576E-14  0.36800802305E+03  0.58555396788E+03  0.45545970653E+03 0.  0.
      99925    2    3    3    0    0 -0.96532955907E+02  0.35360571816E+02  0.29358556000E+03  0.40735410054E+03  0.26301311862E+03 0.  0.
         25    1    3    3    0    0  0.96532955907E+02 -0.35360571816E+02  0.74422463043E+02  0.17819986734E+03  0.12509000000E+03 0.  0.
         25    1    4    4    0    0 -0.25973299353E+02  0.36343109346E+01  0.18356492620E+03  0.22367702324E+03  0.12509000000E+03 0.  0.
         25    1    4    4    0    0 -0.70559656555E+02  0.31726260882E+02  0.11002063381E+03  0.18367707730E+03  0.12509000000E+03 0.  0.
<mgrwt>
<rscale>  2 0.45545971E+03</rscale>
<asrwt>0</asrwt>
<pdfrwt beam="1">  1       21 0.70114851E-01 0.45545971E+03</pdfrwt>
<pdfrwt beam="2">  1       21 0.15996026E-01 0.45545971E+03</pdfrwt>
<totfact> 0.59360390E+04</totfact>
</mgrwt>
</event>
<event>
 7    0  0.4766352E-002  0.4540202E+03  0.7546771E-02  0.1026530E+00
         21   -1    0    0  502  501  0.00000000000E+00  0.00000000000E+00  0.51441006310E+02  0.51441006310E+02  0.00000000000E+00 0. -1.
         21   -1    0    0  501  502 -0.00000000000E+00 -0.00000000000E+00 -0.10017996500E+04  0.10017996500E+04  0.00000000000E+00 0. -1.
      99926    2    1    2    0    0  0.00000000000E+00 -0.71054273576E-14 -0.95035864367E+03  0.10532406563E+04  0.45402018508E+03 0.  0.
      99925    2    3    3    0    0 -0.10616047304E+03 -0.35671209229E+02 -0.61656008836E+03  0.67959448030E+03  0.26298257336E+03 0.  0.
         25    1    4    4    0    0 -0.68758723511E+02 -0.41728893423E+02 -0.39872890870E+03  0.42555999969E+03  0.12509000000E+03 0.  0.
         25    1    4    4    0    0 -0.37401749532E+02  0.60576841944E+01 -0.21783117966E+03  0.25403448061E+03  0.12509000000E+03 0.  0.
         25    1    3    3    0    0  0.10616047304E+03  0.35671209229E+02 -0.33379855531E+03  0.37364617599E+03  0.12509000000E+03 0.  0.
<mgrwt>
<rscale>  2 0.45402019E+03</rscale>
<asrwt>0</asrwt>
<pdfrwt beam="1">  1       21 0.75648546E-02 0.45402019E+03</pdfrwt>
<pdfrwt beam="2">  1       21 0.14732346E+00 0.45402019E+03</pdfrwt>
<totfact> 0.37444237E+04</totfact>
</mgrwt>
</event>
<event>
 7    0  0.4766352E-002  0.4572963E+03  0.7546771E-02  0.1025568E+00
         21   -1    0    0  502  501  0.00000000000E+00  0.00000000000E+00  0.62436149145E+02  0.62436149145E+02  0.00000000000E+00 0. -1.
         21   -1    0    0  501  502 -0.00000000000E+00 -0.00000000000E+00 -0.83733498681E+03  0.83733498681E+03  0.00000000000E+00 0. -1.
      99926    2    1    2    0    0  0.14210854715E-13  0.71054273576E-14 -0.77489883766E+03  0.89977113595E+03  0.45729628085E+03 0.  0.
      99925    2    3    3    0    0  0.72007718875E+02  0.61830612381E+02 -0.61553916364E+03  0.67604999254E+03  0.26295816062E+03 0.  0.
         25    1    4    4    0    0  0.66488578667E+02  0.60291211564E+02 -0.35694761972E+03  0.38873496448E+03  0.12509000000E+03 0.  0.
         25    1    4    4    0    0  0.55191402089E+01  0.15394008170E+01 -0.25859154392E+03  0.28731502807E+03  0.12509000000E+03 0.  0.
         25    1    3    3    0    0 -0.72007718875E+02 -0.61830612381E+02 -0.15935967402E+03  0.22372114341E+03  0.12509000000E+03 0.  0.
<mgrwt>
<rscale>  2 0.45729628E+03</rscale>
<asrwt>0</asrwt>
<pdfrwt beam="1">  1       21 0.91817870E-02 0.45729628E+03</pdfrwt>
<pdfrwt beam="2">  1       21 0.12313749E+00 0.45729628E+03</pdfrwt>
<totfact> 0.42474774E+04</totfact>
</mgrwt>
</event>
<event>
 7    0  0.4766352E-002  0.4570294E+03  0.7546771E-02  0.1025646E+00
         21   -1    0    0  502  501  0.00000000000E+00  0.00000000000E+00  0.26844870707E+03  0.26844870707E+03  0.00000000000E+00 0. -1.
         21   -1    0    0  501  502 -0.00000000000E+00 -0.00000000000E+00 -0.19452122910E+03  0.19452122910E+03  0.00000000000E+00 0. -1.
      99926    2    1    2    0    0  0.00000000000E+00  0.00000000000E+00  0.73927477965E+02  0.46296993617E+03  0.45702941897E+03 0.  0.
      99925    2    3    3    0    0  0.18422040034E+02 -0.34208794616E+02  0.15622512640E+03  0.30827661302E+03  0.26290410196E+03 0.  0.
         25    1    3    3    0    0 -0.18422040034E+02  0.34208794616E+02 -0.82297648439E+02  0.15469332315E+03  0.12509000000E+03 0.  0.
         25    1    4    4    0    0 -0.28137006654E+02 -0.32519420471E+02  0.77716919992E+02  0.15341652976E+03  0.12509000000E+03 0.  0.
         25    1    4    4    0    0  0.46559046688E+02 -0.16893741452E+01  0.78508206413E+02  0.15486008326E+03  0.12509000000E+03 0.  0.
<mgrwt>
<rscale>  2 0.45702942E+03</rscale>
<asrwt>0</asrwt>
<pdfrwt beam="1">  1       21 0.39477751E-01 0.45702942E+03</pdfrwt>
<pdfrwt beam="2">  1       21 0.28606063E-01 0.45702942E+03</pdfrwt>
<totfact> 0.66875627E+04</totfact>
</mgrwt>
</event>
<event>
 7    0  0.4766352E-002  0.4547328E+03  0.7546771E-02  0.1026320E+00
         21   -1    0    0  502  501  0.00000000000E+00  0.00000000000E+00  0.58039494595E+03  0.58039494595E+03  0.00000000000E+00 0. -1.
         21   -1    0    0  501  502 -0.00000000000E+00 -0.00000000000E+00 -0.89069492695E+02  0.89069492695E+02  0.00000000000E+00 0. -1.
      99926    2    1    2    0    0  0.00000000000E+00  0.00000000000E+00  0.49132545326E+03  0.66946443865E+03  0.45473281561E+03 0.  0.
      99925    2    3    3    0    0 -0.53959709783E+02  0.72807533042E+02  0.21021364516E+03  0.34870916761E+03  0.26305079322E+03 0.  0.
         25    1    4    4    0    0 -0.35591342411E+02 -0.46085505636E+00  0.78036617969E+02  0.15167128234E+03  0.12509000000E+03 0.  0.
         25    1    3    3    0    0  0.53959709783E+02 -0.72807533042E+02  0.28111180810E+03  0.32075527104E+03  0.12509000000E+03 0.  0.
         25    1    4    4    0    0 -0.18368367373E+02  0.73268388099E+02  0.13217702719E+03  0.19703788527E+03  0.12509000000E+03 0.  0.
<mgrwt>
<rscale>  2 0.45473282E+03</rscale>
<asrwt>0</asrwt>
<pdfrwt beam="1">  1       21 0.85352196E-01 0.45473282E+03</pdfrwt>
<pdfrwt beam="2">  1       21 0.13098455E-01 0.45473282E+03</pdfrwt>
<totfact> 0.54707582E+04</totfact>
</mgrwt>
</event>
<event>
 7    0  0.4766352E-002  0.4644441E+03  0.7546771E-02  0.1023500E+00
         21   -1    0    0  502  501  0.00000000000E+00  0.00000000000E+00  0.85887178950E+02  0.85887178950E+02  0.00000000000E+00 0. -1.
         21   -1    0    0  501  502 -0.00000000000E+00 -0.00000000000E+00 -0.62788280312E+03  0.62788280312E+03  0.00000000000E+00 0. -1.
      99926    2    1    2    0    0  0.17763568394E-14  0.00000000000E+00 -0.54199562417E+03  0.71376998207E+03  0.46444410932E+03 0.  0.
      99925    2    3    3    0    0 -0.14157399453E+02 -0.11963405462E+03 -0.36342125435E+03  0.46467350951E+03  0.26331297602E+03 0.  0.
         25    1    4    4    0    0  0.66123350663E+01 -0.26572702263E+02 -0.12429847573E+03  0.17845854042E+03  0.12509000000E+03 0.  0.
         25    1    4    4    0    0 -0.20769734519E+02 -0.93061352361E+02 -0.23912277863E+03  0.28621496910E+03  0.12509000000E+03 0.  0.
         25    1    3    3    0    0  0.14157399453E+02  0.11963405462E+03 -0.17857436982E+03  0.24909647256E+03  0.12509000000E+03 0.  0.
<mgrwt>
<rscale>  2 0.46444411E+03</rscale>
<asrwt>0</asrwt>
<pdfrwt beam="1">  1       21 0.12630468E-01 0.46444411E+03</pdfrwt>
<pdfrwt beam="2">  1       21 0.92335705E-01 0.46444411E+03</pdfrwt>
<totfact> 0.48459659E+04</totfact>
</mgrwt>
</event>
<event>
 7    0  0.4766352E-002  0.4595209E+03  0.7546771E-02  0.1024920E+00
         21   -1    0    0  502  501  0.00000000000E+00  0.00000000000E+00  0.77030123571E+02  0.77030123571E+02  0.00000000000E+00 0. -1.
         21   -1    0    0  501  502 -0.00000000000E+00 -0.00000000000E+00 -0.68531461562E+03  0.68531461562E+03  0.00000000000E+00 0. -1.
      99926    2    1    2    0    0  0.88817841970E-15  0.00000000000E+00 -0.60828449205E+03  0.76234473919E+03  0.45952092238E+03 0.  0.
      99925    2    3    3    0    0 -0.44794169858E+01 -0.98621386818E+02 -0.27618741243E+03  0.39399406184E+03  0.26306955519E+03 0.  0.
         25    1    4    4    0    0  0.17804732450E+02 -0.86768467748E+02 -0.14553648623E+03  0.21136260884E+03  0.12509000000E+03 0.  0.
         25    1    4    4    0    0 -0.22284149436E+02 -0.11852919070E+02 -0.13065092621E+03  0.18263145300E+03  0.12509000000E+03 0.  0.
         25    1    3    3    0    0  0.44794169858E+01  0.98621386818E+02 -0.33209707962E+03  0.36835067735E+03  0.12509000000E+03 0.  0.
<mgrwt>
<rscale>  2 0.45952092E+03</rscale>
<asrwt>0</asrwt>
<pdfrwt beam="1">  1       21 0.11327960E-01 0.45952092E+03</pdfrwt>
<pdfrwt beam="2">  1       21 0.10078156E+00 0.45952092E+03</pdfrwt>
<totfact> 0.47916263E+04</totfact>
</mgrwt>
</event>
<event>
 7    0  0.4766352E-002  0.4528534E+03  0.7546771E-02  0.1026875E+00
         21   -1    0    0  502  501  0.00000000000E+00  0.00000000000E+00  0.13293827591E+04  0.13293827591E+04  0.00000000000E+00 0. -1.
         21   -1    0    0  501  502 -0.00000000000E+00 -0.00000000000E+00 -0.38566052623E+02  0.38566052623E+02  0.00000000000E+00 0. -1.
      99926    2    1    2    0    0  0.00000000000E+00  0.00000000000E+00  0.12908167065E+04  0.13679488117E+04  0.45285337779E+03 0.  0.
      99925    2    3    3    0    0  0.10422339654E+03 -0.36784070663E+02  0.77760982011E+03  0.82827817091E+03  0.26296789126E+03 0.  0.
         25    1    4    4    0    0  0.21033200030E+02 -0.18159969391E+02  0.27542312669E+03  0.30377226142E+03  0.12509000000E+03 0.  0.
         25    1    4    4    0    0  0.83190196512E+02 -0.18624101273E+02  0.50218669341E+03  0.52450590949E+03  0.12509000000E+03 0.  0.
         25    1    3    3    0    0 -0.10422339654E+03  0.36784070663E+02  0.51320688639E+03  0.53967064083E+03  0.12509000000E+03 0.  0.
<mgrwt>
<rscale>  2 0.45285338E+03</rscale>
<asrwt>0</asrwt>
<pdfrwt beam="1">  1       21 0.19549743E+00 0.45285338E+03</pdfrwt>
<pdfrwt beam="2">  1       21 0.56714792E-02 0.45285338E+03</pdfrwt>
<totfact> 0.27657367E+04</totfact>
</mgrwt>
</event>
<event>
 7    0  0.4766352E-002  0.4539779E+03  0.7546771E-02  0.1026542E+00
         21   -1    0    0  502  501  0.00000000000E+00  0.00000000000E+00  0.76934522854E+02  0.76934522854E+02  0.00000000000E+00 0. -1.
         21   -1    0    0  501  502 -0.00000000000E+00 -0.00000000000E+00 -0.66971198716E+03  0.66971198716E+03  0.00000000000E+00 0. -1.
      99926    2    1    2    0    0  0.00000000000E+00  0.71054273576E-14 -0.59277746431E+03  0.74664651002E+03  0.45397785048E+03 0.  0.
      99925    2    3    3    0    0 -0.77634240507E+02  0.33070092983E+02 -0.49494293421E+03  0.56681378294E+03  0.26303735486E+03 0.  0.
         25    1    4    4    0    0 -0.44657081589E+02 -0.22393442047E+02 -0.22061673368E+03  0.25848592314E+03  0.12509000000E+03 0.  0.
         25    1    4    4    0    0 -0.32977158918E+02  0.55463535030E+02 -0.27432620053E+03  0.30832785979E+03  0.12509000000E+03 0.  0.
         25    1    3    3    0    0  0.77634240507E+02 -0.33070092983E+02 -0.97834530096E+02  0.17983272708E+03  0.12509000000E+03 0.  0.
<mgrwt>
<rscale>  2 0.45397785E+03</rscale>
<asrwt>0</asrwt>
<pdfrwt beam="1">  1       21 0.11313900E-01 0.45397785E+03</pdfrwt>
<pdfrwt beam="2">  1       21 0.98487058E-01 0.45397785E+03</pdfrwt>
<totfact> 0.50849747E+04</totfact>
</mgrwt>
</event>
<event>
 7    0  0.4766352E-002  0.4527452E+03  0.7546771E-02  0.1026907E+00
         21   -1    0    0  502  501  0.00000000000E+00  0.00000000000E+00  0.12554017838E+04  0.12554017838E+04  0.00000000000E+00 0.  1.
         21   -1    0    0  501  502 -0.00000000000E+00 -0.00000000000E+00 -0.40819254808E+02  0.40819254808E+02  0.00000000000E+00 0.  1.
      99926    2    1    2    0    0  0.00000000000E+00  0.00000000000E+00  0.12145825290E+04  0.12962210386E+04  0.45274524978E+03 0.  0.
      99925    2    3    3    0    0 -0.59766401884E+02 -0.89033833996E+02  0.68352657252E+03  0.74019317654E+03  0.26301771208E+03 0.  0.
         25    1    4    4    0    0 -0.17957812030E+02 -0.47178509760E+01  0.33712978844E+03  0.36006769292E+03  0.12509000000E+03 0.  0.
         25    1    4    4    0    0 -0.41808589853E+02 -0.84315983020E+02  0.34639678408E+03  0.38012548362E+03  0.12509000000E+03 0.  0.
         25    1    3    3    0    0  0.59766401884E+02  0.89033833996E+02  0.53105595649E+03  0.55602786209E+03  0.12509000000E+03 0.  0.
<mgrwt>
<rscale>  2 0.45274525E+03</rscale>
<asrwt>0</asrwt>
<pdfrwt beam="1">  1       21 0.18461788E+00 0.45274525E+03</pdfrwt>
<pdfrwt beam="2">  1       21 0.60028324E-02 0.45274525E+03</pdfrwt>
<totfact> 0.29742804E+04</totfact>
</mgrwt>
</event>
<event>
 7    0  0.4766352E-002  0.4514616E+03  0.7546771E-02  0.1027287E+00
         21   -1    0    0  502  501  0.00000000000E+00  0.00000000000E+00  0.15427536725E+03  0.15427536725E+03  0.00000000000E+00 0.  1.
         21   -1    0    0  501  502 -0.00000000000E+00 -0.00000000000E+00 -0.33028209004E+03  0.33028209004E+03  0.00000000000E+00 0.  1.
      99926    2    1    2    0    0  0.00000000000E+00 -0.13322676296E-14 -0.17600672279E+03  0.48455745729E+03  0.45146158524E+03 0.  0.
      99925    2    3    3    0    0 -0.92405462125E+01  0.21782878259E+01  0.63787822288E+01  0.26319324796E+03  0.26294460306E+03 0.  0.
         25    1    3    3    0    0  0.92405462125E+01 -0.21782878259E+01 -0.18238550502E+03  0.22136420933E+03  0.12509000000E+03 0.  0.
         25    1    4    4    0    0  0.75522071199E+01  0.13217261663E+02 -0.33466776681E+02  0.13038122978E+03  0.12509000000E+03 0.  0.
         25    1    4    4    0    0 -0.16792753332E+02 -0.11038973837E+02  0.39845558910E+02  0.13281201818E+03  0.12509000000E+03 0.  0.
<mgrwt>
<rscale>  2 0.45146159E+03</rscale>
<asrwt>0</asrwt>
<pdfrwt beam="1">  1       21 0.22687554E-01 0.45146159E+03</pdfrwt>
<pdfrwt beam="2">  1       21 0.48570896E-01 0.45146159E+03</pdfrwt>
<totfact> 0.68267377E+04</totfact>
</mgrwt>
</event>
<event>
 7    0  0.4766352E-002  0.4050341E+03  0.7546771E-02  0.1042050E+00
         21   -1    0    0  502  501  0.00000000000E+00  0.00000000000E+00  0.11078242982E+04  0.11078242982E+04  0.00000000000E+00 0. -1.
         21   -1    0    0  501  502 -0.00000000000E+00 -0.00000000000E+00 -0.37021349173E+02  0.37021349173E+02  0.00000000000E+00 0. -1.
      99926    2    1    2    0    0  0.71054273576E-14  0.00000000000E+00  0.10708029490E+04  0.11448456473E+04  0.40503407345E+03 0.  0.
      99925    2    3    3    0    0 -0.52253071691E+02 -0.50370755524E+01  0.75163350532E+03  0.79804253676E+03  0.26298898937E+03 0.  0.
         25    1    3    3    0    0  0.52253071691E+02  0.50370755524E+01  0.31916944366E+03  0.34680311057E+03  0.12509000000E+03 0.  0.
         25    1    4    4    0    0 -0.66737770047E+02  0.44604858078E+01  0.39041639479E+03  0.41538692240E+03  0.12509000000E+03 0.  0.
         25    1    4    4    0    0  0.14484698357E+02 -0.94975613603E+01  0.36121711053E+03  0.38265561436E+03  0.12509000000E+03 0.  0.
<mgrwt>
<rscale>  2 0.40503407E+03</rscale>
<asrwt>0</asrwt>
<pdfrwt beam="1">  1       21 0.16291532E+00 0.40503407E+03</pdfrwt>
<pdfrwt beam="2">  1       21 0.54443168E-02 0.40503407E+03</pdfrwt>
<totfact> 0.51156867E+04</totfact>
</mgrwt>
</event>
<event>
 7    0  0.4766352E-002  0.4393130E+03  0.7546771E-02  0.1030958E+00
         21   -1    0    0  502  501  0.00000000000E+00  0.00000000000E+00  0.98987092319E+02  0.98987092319E+02  0.00000000000E+00 0.  1.
         21   -1    0    0  501  502 -0.00000000000E+00 -0.00000000000E+00 -0.48742706393E+03  0.48742706393E+03  0.00000000000E+00 0.  1.
      99926    2    1    2    0    0 -0.35527136788E-14  0.00000000000E+00 -0.38843997161E+03  0.58641415625E+03  0.43931304454E+03 0.  0.
      99925    2    3    3    0    0 -0.19386275697E+02  0.90537604015E+02 -0.20621709905E+03  0.34677783010E+03  0.26297620820E+03 0.  0.
         25    1    4    4    0    0  0.23297032316E+02  0.65073936964E+02 -0.12277005601E+03  0.18840744077E+03  0.12509000000E+03 0.  0.
         25    1    3    3    0    0  0.19386275697E+02 -0.90537604015E+02 -0.18222287256E+03  0.23963632615E+03  0.12509000000E+03 0.  0.
         25    1    4    4    0    0 -0.42683308013E+02  0.25463667051E+02 -0.83447043045E+02  0.15837038933E+03  0.12509000000E+03 0.  0.
<mgrwt>
<rscale>  2 0.43931304E+03</rscale>
<asrwt>0</asrwt>
<pdfrwt beam="1">  1       21 0.14556925E-01 0.43931304E+03</pdfrwt>
<pdfrwt beam="2">  1       21 0.71680451E-01 0.43931304E+03</pdfrwt>
<totfact> 0.67511645E+04</totfact>
</mgrwt>
</event>
<event>
 7    0  0.4766352E-002  0.4567486E+03  0.7546771E-02  0.1025728E+00
         21   -1    0    0  502  501  0.00000000000E+00  0.00000000000E+00  0.72099590494E+03  0.72099590494E+03  0.00000000000E+00 0. -1.
         21   -1    0    0  501  502 -0.00000000000E+00 -0.00000000000E+00 -0.72337182682E+02  0.72337182682E+02  0.00000000000E+00 0. -1.
      99926    2    1    2    0    0  0.00000000000E+00  0.00000000000E+00  0.64865872226E+03  0.79333308762E+03  0.45674856317E+03 0.  0.
      99925    2    3    3    0    0 -0.16287520488E+02 -0.11275513626E+03  0.38319104301E+03  0.47853219674E+03  0.26301840961E+03 0.  0.
         25    1    4    4    0    0 -0.91621040364E+01 -0.56308665972E+02  0.12390087590E+03  0.18507713301E+03  0.12509000000E+03 0.  0.
         25    1    3    3    0    0  0.16287520488E+02  0.11275513626E+03  0.26546767925E+03  0.31480089089E+03  0.12509000000E+03 0.  0.
         25    1    4    4    0    0 -0.71254164518E+01 -0.56446470291E+02  0.25929016711E+03  0.29345506373E+03  0.12509000000E+03 0.  0.
<mgrwt>
<rscale>  2 0.45674856E+03</rscale>
<asrwt>0</asrwt>
<pdfrwt beam="1">  1       21 0.10602881E+00 0.45674856E+03</pdfrwt>
<pdfrwt beam="2">  1       21 0.10637821E-01 0.45674856E+03</pdfrwt>
<totfact> 0.47434675E+04</totfact>
</mgrwt>
</event>
<event>
 7    0  0.4766352E-002  0.4381567E+03  0.7546771E-02  0.1031314E+00
         21   -1    0    0  502  501  0.00000000000E+00  0.00000000000E+00  0.71731186754E+02  0.71731186754E+02  0.00000000000E+00 0.  1.
         21   -1    0    0  501  502 -0.00000000000E+00 -0.00000000000E+00 -0.66909967492E+03  0.66909967492E+03  0.00000000000E+00 0.  1.
      99926    2    1    2    0    0  0.71054273576E-14 -0.35527136788E-14 -0.59736848817E+03  0.74083086168E+03  0.43815665573E+03 0.  0.
      99925    2    3    3    0    0  0.57366438261E+02  0.31191463072E+02 -0.50249536455E+03  0.57079488521E+03  0.26275729102E+03 0.  0.
         25    1    4    4    0    0  0.48855039376E+02  0.64234952014E+01 -0.32815482065E+03  0.35462821458E+03  0.12509000000E+03 0.  0.
         25    1    4    4    0    0  0.85113988849E+01  0.24767967870E+02 -0.17434054390E+03  0.21616667063E+03  0.12509000000E+03 0.  0.
         25    1    3    3    0    0 -0.57366438261E+02 -0.31191463072E+02 -0.94873123620E+02  0.17003597647E+03  0.12509000000E+03 0.  0.
<mgrwt>
<rscale>  2 0.43815666E+03</rscale>
<asrwt>0</asrwt>
<pdfrwt beam="1">  1       21 0.10548705E-01 0.43815666E+03</pdfrwt>
<pdfrwt beam="2">  1       21 0.98397002E-01 0.43815666E+03</pdfrwt>
<totfact> 0.58055123E+04</totfact>
</mgrwt>
</event>
<event>
 7    0  0.4766352E-002  0.4527231E+03  0.7546771E-02  0.1026913E+00
         21   -1    0    0  502  501  0.00000000000E+00  0.00000000000E+00  0.53679264970E+03  0.53679264970E+03  0.00000000000E+00 0. -1.
         21   -1    0    0  501  502 -0.00000000000E+00 -0.00000000000E+00 -0.95455032572E+02  0.95455032572E+02  0.00000000000E+00 0. -1.
      99926    2    1    2    0    0 -0.14210854715E-13  0.00000000000E+00  0.44133761713E+03  0.63224768227E+03  0.45272313774E+03 0.  0.
      99925    2    3    3    0    0  0.67032006141E+02  0.85180386862E+02  0.24435353412E+03  0.37495558132E+03  0.26293354707E+03 0.  0.
         25    1    4    4    0    0  0.65205961683E+02  0.50351620846E+02  0.96530806671E+02  0.17819317579E+03  0.12509000000E+03 0.  0.
         25    1    3    3    0    0 -0.67032006141E+02 -0.85180386862E+02  0.19698408301E+03  0.25729210096E+03  0.12509000000E+03 0.  0.
         25    1    4    4    0    0  0.18260444578E+01  0.34828766016E+02  0.14782272745E+03  0.19676240553E+03  0.12509000000E+03 0.  0.
<mgrwt>
<rscale>  2 0.45272314E+03</rscale>
<asrwt>0</asrwt>
<pdfrwt beam="1">  1       21 0.78940094E-01 0.45272314E+03</pdfrwt>
<pdfrwt beam="2">  1       21 0.14037505E-01 0.45272314E+03</pdfrwt>
<totfact> 0.57767190E+04</totfact>
</mgrwt>
</event>
<event>
 7    0  0.4766352E-002  0.4468502E+03  0.7546771E-02  0.1028666E+00
         21   -1    0    0  502  501  0.00000000000E+00  0.00000000000E+00  0.19896503355E+03  0.19896503355E+03  0.00000000000E+00 0.  1.
         21   -1    0    0  501  502 -0.00000000000E+00 -0.00000000000E+00 -0.25089220547E+03  0.25089220547E+03  0.00000000000E+00 0.  1.
      99926    2    1    2    0    0 -0.22204460493E-14  0.00000000000E+00 -0.51927171918E+02  0.44985723901E+03  0.44685020343E+03 0.  0.
      99925    2    3    3    0    0 -0.34985184658E+01 -0.97190252956E+02  0.78307280428E+01  0.28051527845E+03  0.26300060121E+03 0.  0.
         25    1    4    4    0    0 -0.34342095074E+02 -0.64040543816E+02  0.23504042346E+02  0.14656233777E+03  0.12509000000E+03 0.  0.
         25    1    4    4    0    0  0.30843576608E+02 -0.33149709140E+02 -0.15673314303E+02  0.13395294067E+03  0.12509000000E+03 0.  0.
         25    1    3    3    0    0  0.34985184658E+01  0.97190252956E+02 -0.59757899961E+02  0.16934196057E+03  0.12509000000E+03 0.  0.
<mgrwt>
<rscale>  2 0.44685020E+03</rscale>
<asrwt>0</asrwt>
<pdfrwt beam="1">  1       21 0.29259564E-01 0.44685020E+03</pdfrwt>
<pdfrwt beam="2">  1       21 0.36895912E-01 0.44685020E+03</pdfrwt>
<totfact> 0.73594228E+04</totfact>
</mgrwt>
</event>
<event>
 7    0  0.4766352E-002  0.4540605E+03  0.7546771E-02  0.1026518E+00
         21   -1    0    0  502  501  0.00000000000E+00  0.00000000000E+00  0.69558367403E+02  0.69558367403E+02  0.00000000000E+00 0. -1.
         21   -1    0    0  501  502 -0.00000000000E+00 -0.00000000000E+00 -0.74099975580E+03  0.74099975580E+03  0.00000000000E+00 0. -1.
      99926    2    1    2    0    0  0.00000000000E+00  0.00000000000E+00 -0.67144138840E+03  0.81055812320E+03  0.45406049491E+03 0.  0.
      99925    2    3    3    0    0 -0.31490099689E+02  0.10192226054E+03 -0.48568134106E+03  0.56249749178E+03  0.26293970724E+03 0.  0.
         25    1    4    4    0    0  0.20384962906E+02  0.43759816074E+02 -0.19591872573E+03  0.23740708373E+03  0.12509000000E+03 0.  0.
         25    1    3    3    0    0  0.31490099689E+02 -0.10192226054E+03 -0.18576004734E+03  0.24806063142E+03  0.12509000000E+03 0.  0.
         25    1    4    4    0    0 -0.51875062595E+02  0.58162444466E+02 -0.28976261533E+03  0.32509040805E+03  0.12509000000E+03 0.  0.
<mgrwt>
<rscale>  2 0.45406049E+03</rscale>
<asrwt>0</asrwt>
<pdfrwt beam="1">  1       21 0.10229171E-01 0.45406049E+03</pdfrwt>
<pdfrwt beam="2">  1       21 0.10897056E+00 0.45406049E+03</pdfrwt>
<totfact> 0.47608384E+04</totfact>
</mgrwt>
</event>
<event>
 7    0  0.4766352E-002  0.4523096E+03  0.7546771E-02  0.1027036E+00
         21   -1    0    0  502  501  0.00000000000E+00  0.00000000000E+00  0.18644069262E+03  0.18644069262E+03  0.00000000000E+00 0. -1.
         21   -1    0    0  501  502 -0.00000000000E+00 -0.00000000000E+00 -0.27432852164E+03  0.27432852164E+03  0.00000000000E+00 0. -1.
      99926    2    1    2    0    0  0.00000000000E+00 -0.72164496601E-15 -0.87887829014E+02  0.46076921426E+03  0.45230962660E+03 0.  0.
      99925    2    3    3    0    0 -0.88066549859E+02  0.43787946506E+00 -0.12366942300E+03  0.30365861783E+03  0.26298007729E+03 0.  0.
         25    1    4    4    0    0 -0.84981463449E+02  0.10241702483E+02 -0.61218140128E+02  0.16346837731E+03  0.12509000000E+03 0.  0.
         25    1    4    4    0    0 -0.30850864104E+01 -0.98038230181E+01 -0.62451282870E+02  0.14019024052E+03  0.12509000000E+03 0.  0.
         25    1    3    3    0    0  0.88066549859E+02 -0.43787946506E+00  0.35781593984E+02  0.15711059643E+03  0.12509000000E+03 0.  0.
<mgrwt>
<rscale>  2 0.45230963E+03</rscale>
<asrwt>0</asrwt>
<pdfrwt beam="1">  1       21 0.27417749E-01 0.45230963E+03</pdfrwt>
<pdfrwt beam="2">  1       21 0.40342429E-01 0.45230963E+03</pdfrwt>
<totfact> 0.69602091E+04</totfact>
</mgrwt>
</event>
<event>
 7    0  0.4766352E-002  0.4511064E+03  0.7546771E-02  0.1027393E+00
         21   -1    0    0  502  501  0.00000000000E+00  0.00000000000E+00  0.21320279108E+03  0.21320279108E+03  0.00000000000E+00 0. -1.
         21   -1    0    0  501  502 -0.00000000000E+00 -0.00000000000E+00 -0.23861901842E+03  0.23861901842E+03  0.00000000000E+00 0. -1.
      99926    2    1    2    0    0  0.00000000000E+00  0.00000000000E+00 -0.25416227333E+02  0.45182180950E+03  0.45110637651E+03 0.  0.
      99925    2    3    3    0    0 -0.14289639336E+02 -0.10870673789E+03 -0.12852112553E+02  0.28500839956E+03  0.26276084634E+03 0.  0.
         25    1    3    3    0    0  0.14289639336E+02  0.10870673789E+03 -0.12564114780E+02  0.16681340994E+03  0.12509000000E+03 0.  0.
         25    1    4    4    0    0  0.14692712220E+02 -0.37832742506E+02  0.24242671392E+02  0.13372511886E+03  0.12509000000E+03 0.  0.
         25    1    4    4    0    0 -0.28982351556E+02 -0.70873995385E+02 -0.37094783945E+02  0.15128328070E+03  0.12509000000E+03 0.  0.
<mgrwt>
<rscale>  2 0.45110638E+03</rscale>
<asrwt>0</asrwt>
<pdfrwt beam="1">  1       21 0.31353352E-01 0.45110638E+03</pdfrwt>
<pdfrwt beam="2">  1       21 0.35091032E-01 0.45110638E+03</pdfrwt>
<totfact> 0.70958224E+04</totfact>
</mgrwt>
</event>
<event>
 7    0  0.4766352E-002  0.4580853E+03  0.7546771E-02  0.1025338E+00
         21   -1    0    0  502  501  0.00000000000E+00  0.00000000000E+00  0.14637776629E+03  0.14637776629E+03  0.00000000000E+00 0. -1.
         21   -1    0    0  501  502 -0.00000000000E+00 -0.00000000000E+00 -0.35839139068E+03  0.35839139068E+03  0.00000000000E+00 0. -1.
      99926    2    1    2    0    0  0.00000000000E+00  0.71054273576E-14 -0.21201362439E+03  0.50476915697E+03  0.45808528126E+03 0.  0.
      99925    2    3    3    0    0  0.95819457200E+02  0.53508734438E+02 -0.17218317111E+03  0.33365946658E+03  0.26388831385E+03 0.  0.
         25    1    4    4    0    0  0.21307501711E+02  0.50161797513E+01 -0.46289213773E+02  0.13516423750E+03  0.12509000000E+03 0.  0.
         25    1    3    3    0    0 -0.95819457200E+02 -0.53508734438E+02 -0.39830453274E+02  0.17110969040E+03  0.12509000000E+03 0.  0.
         25    1    4    4    0    0  0.74511955489E+02  0.48492554687E+02 -0.12589395734E+03  0.19849522907E+03  0.12509000000E+03 0.  0.
<mgrwt>
<rscale>  2 0.45808528E+03</rscale>
<asrwt>0</asrwt>
<pdfrwt beam="1">  1       21 0.21526142E-01 0.45808528E+03</pdfrwt>
<pdfrwt beam="2">  1       21 0.52704616E-01 0.45808528E+03</pdfrwt>
<totfact> 0.63370684E+04</totfact>
</mgrwt>
</event>
<event>
 7    0  0.4766352E-002  0.4558544E+03  0.7546771E-02  0.1025990E+00
         21   -1    0    0  502  501  0.00000000000E+00  0.00000000000E+00  0.56587569636E+02  0.56587569636E+02  0.00000000000E+00 0.  1.
         21   -1    0    0  501  502 -0.00000000000E+00 -0.00000000000E+00 -0.91806030017E+03  0.91806030017E+03  0.00000000000E+00 0.  1.
      99926    2    1    2    0    0 -0.71054273576E-14  0.00000000000E+00 -0.86147273054E+03  0.97464786981E+03  0.45585436782E+03 0.  0.
      99925    2    3    3    0    0  0.45252695779E+02 -0.10256899079E+03 -0.58386295929E+03  0.65017460814E+03  0.26317838340E+03 0.  0.
         25    1    3    3    0    0 -0.45252695779E+02  0.10256899079E+03 -0.27760977124E+03  0.32447326167E+03  0.12509000000E+03 0.  0.
         25    1    4    4    0    0  0.26779199498E+02 -0.25159049494E+02 -0.20070459925E+03  0.23933229526E+03  0.12509000000E+03 0.  0.
         25    1    4    4    0    0  0.18473496281E+02 -0.77409941297E+02 -0.38315836005E+03  0.41084231288E+03  0.12509000000E+03 0.  0.
<mgrwt>
<rscale>  2 0.45585437E+03</rscale>
<asrwt>0</asrwt>
<pdfrwt beam="1">  1       21 0.83217022E-02 0.45585437E+03</pdfrwt>
<pdfrwt beam="2">  1       21 0.13500886E+00 0.45585437E+03</pdfrwt>
<totfact> 0.39891400E+04</totfact>
</mgrwt>
</event>
<event>
 7    0  0.4766352E-002  0.4678463E+03  0.7546771E-02  0.1022530E+00
         21   -1    0    0  502  501  0.00000000000E+00  0.00000000000E+00  0.12289113107E+03  0.12289113107E+03  0.00000000000E+00 0.  1.
         21   -1    0    0  501  502 -0.00000000000E+00 -0.00000000000E+00 -0.44527244367E+03  0.44527244367E+03  0.00000000000E+00 0.  1.
      99926    2    1    2    0    0  0.35527136788E-14  0.14210854715E-13 -0.32238131260E+03  0.56816357475E+03  0.46784627492E+03 0.  0.
      99925    2    3    3    0    0  0.19614475010E+02 -0.12101830612E+03 -0.17175945811E+03  0.33715576277E+03  0.26294968886E+03 0.  0.
         25    1    4    4    0    0 -0.28326522954E+02 -0.46563549706E+02 -0.71912400234E+02  0.15423831389E+03  0.12509000000E+03 0.  0.
         25    1    4    4    0    0  0.47940997963E+02 -0.74454756409E+02 -0.99847057874E+02  0.18291744888E+03  0.12509000000E+03 0.  0.
         25    1    3    3    0    0 -0.19614475010E+02  0.12101830612E+03 -0.15062185449E+03  0.23100781198E+03  0.12509000000E+03 0.  0.
<mgrwt>
<rscale>  2 0.46784627E+03</rscale>
<asrwt>0</asrwt>
<pdfrwt beam="1">  1       21 0.18072225E-01 0.46784627E+03</pdfrwt>
<pdfrwt beam="2">  1       21 0.65481242E-01 0.46784627E+03</pdfrwt>
<totfact> 0.54889280E+04</totfact>
</mgrwt>
</event>
<event>
 7    0  0.4766352E-002  0.4595133E+03  0.7546771E-02  0.1024922E+00
         21   -1    0    0  502  501  0.00000000000E+00  0.00000000000E+00  0.26323898308E+02  0.26323898308E+02  0.00000000000E+00 0.  1.
         21   -1    0    0  501  502 -0.00000000000E+00 -0.00000000000E+00 -0.20053304322E+04  0.20053304322E+04  0.00000000000E+00 0.  1.
      99926    2    1    2    0    0 -0.17763568394E-14 -0.17763568394E-14 -0.19790065338E+04  0.20316543305E+04  0.45951328324E+03 0.  0.
      99925    2    3    3    0    0 -0.56943264915E+01  0.98237405951E+01 -0.72447207685E+03  0.77084778577E+03  0.26309235539E+03 0.  0.
         25    1    4    4    0    0  0.32785033612E+02 -0.85324542250E+01 -0.40096407537E+03  0.42138742155E+03  0.12509000000E+03 0.  0.
         25    1    3    3    0    0  0.56943264915E+01 -0.98237405951E+01 -0.12545344570E+04  0.12608065447E+04  0.12509000000E+03 0.  0.
         25    1    4    4    0    0 -0.38479360103E+02  0.18356194820E+02 -0.32350800148E+03  0.34946036423E+03  0.12509000000E+03 0.  0.
<mgrwt>
<rscale>  2 0.45951328E+03</rscale>
<asrwt>0</asrwt>
<pdfrwt beam="1">  1       21 0.38711606E-02 0.45951328E+03</pdfrwt>
<pdfrwt beam="2">  1       21 0.29490160E+00 0.45951328E+03</pdfrwt>
<totfact> 0.12747245E+04</totfact>
</mgrwt>
</event>
<event>
 7    0  0.4766352E-002  0.4553950E+03  0.7546771E-02  0.1026125E+00
         21   -1    0    0  502  501  0.00000000000E+00  0.00000000000E+00  0.53700555396E+03  0.53700555396E+03  0.00000000000E+00 0. -1.
         21   -1    0    0  501  502 -0.00000000000E+00 -0.00000000000E+00 -0.96546781677E+02  0.96546781677E+02  0.00000000000E+00 0. -1.
      99926    2    1    2    0    0  0.00000000000E+00  0.00000000000E+00  0.44045877228E+03  0.63355233563E+03  0.45539502842E+03 0.  0.
      99925    2    3    3    0    0  0.74904366720E+02  0.17380723302E+02  0.39334247159E+03  0.47934401035E+03  0.26294415112E+03 0.  0.
         25    1    3    3    0    0 -0.74904366720E+02 -0.17380723302E+02  0.47116300694E+02  0.15420832529E+03  0.12509000000E+03 0.  0.
         25    1    4    4    0    0  0.62676742791E+02  0.35224032873E+02  0.24267881045E+03  0.28232892116E+03  0.12509000000E+03 0.  0.
         25    1    4    4    0    0  0.12227623929E+02 -0.17843309571E+02  0.15066366113E+03  0.19701508919E+03  0.12509000000E+03 0.  0.
<mgrwt>
<rscale>  2 0.45539503E+03</rscale>
<asrwt>0</asrwt>
<pdfrwt beam="1">  1       21 0.78971404E-01 0.45539503E+03</pdfrwt>
<pdfrwt beam="2">  1       21 0.14198056E-01 0.45539503E+03</pdfrwt>
<totfact> 0.56482809E+04</totfact>
</mgrwt>
</event>
<event>
 7    0  0.4766352E-002  0.4589921E+03  0.7546771E-02  0.1025074E+00
         21   -1    0    0  502  501  0.00000000000E+00  0.00000000000E+00  0.15638238252E+03  0.15638238252E+03  0.00000000000E+00 0. -1.
         21   -1    0    0  501  502 -0.00000000000E+00 -0.00000000000E+00 -0.33679263524E+03  0.33679263524E+03  0.00000000000E+00 0. -1.
      99926    2    1    2    0    0  0.00000000000E+00  0.00000000000E+00 -0.18041025272E+03  0.49317501776E+03  0.45899209019E+03 0.  0.
      99925    2    3    3    0    0  0.69652210135E+02 -0.10107871155E+02 -0.21340530751E+03  0.34590050816E+03  0.26296717825E+03 0.  0.
         25    1    4    4    0    0 -0.43313596148E+01 -0.12779901475E+01 -0.80946145834E+02  0.14906435040E+03  0.12509000000E+03 0.  0.
         25    1    3    3    0    0 -0.69652210135E+02  0.10107871155E+02  0.32995054790E+02  0.14727450960E+03  0.12509000000E+03 0.  0.
         25    1    4    4    0    0  0.73983569750E+02 -0.88298810075E+01 -0.13245916168E+03  0.19683615776E+03  0.12509000000E+03 0.  0.
<mgrwt>
<rscale>  2 0.45899209E+03</rscale>
<asrwt>0</asrwt>
<pdfrwt beam="1">  1       21 0.22997410E-01 0.45899209E+03</pdfrwt>
<pdfrwt beam="2">  1       21 0.49528327E-01 0.45899209E+03</pdfrwt>
<totfact> 0.63709697E+04</totfact>
</mgrwt>
</event>
<event>
 7    0  0.4766352E-002  0.4515987E+03  0.7546771E-02  0.1027246E+00
         21   -1    0    0  502  501  0.00000000000E+00  0.00000000000E+00  0.72012900802E+02  0.72012900802E+02  0.00000000000E+00 0.  1.
         21   -1    0    0  501  502 -0.00000000000E+00 -0.00000000000E+00 -0.70800293441E+03  0.70800293441E+03  0.00000000000E+00 0.  1.
      99926    2    1    2    0    0 -0.12212453271E-14  0.00000000000E+00 -0.63599003361E+03  0.78001583521E+03  0.45159869390E+03 0.  0.
      99925    2    3    3    0    0  0.41754876312E+00 -0.10938882301E+03 -0.38288846176E+03  0.47723868496E+03  0.26303440711E+03 0.  0.
         25    1    4    4    0    0 -0.38464278212E+02 -0.65788400549E+02 -0.20873081751E+03  0.25499740514E+03  0.12509000000E+03 0.  0.
         25    1    3    3    0    0 -0.41754876312E+00  0.10938882301E+03 -0.25310157184E+03  0.30277715025E+03  0.12509000000E+03 0.  0.
         25    1    4    4    0    0  0.38881826975E+02 -0.43600422456E+02 -0.17415764425E+03  0.22224127982E+03  0.12509000000E+03 0.  0.
<mgrwt>
<rscale>  2 0.45159869E+03</rscale>
<asrwt>0</asrwt>
<pdfrwt beam="1">  1       21 0.10590132E-01 0.45159869E+03</pdfrwt>
<pdfrwt beam="2">  1       21 0.10411808E+00 0.45159869E+03</pdfrwt>
<totfact> 0.50070078E+04</totfact>
</mgrwt>
</event>
<event>
 7    0  0.4766352E-002  0.4600506E+03  0.7546771E-02  0.1024767E+00
         21   -1    0    0  502  501  0.00000000000E+00  0.00000000000E+00  0.47108586468E+03  0.47108586468E+03  0.00000000000E+00 0.  1.
         21   -1    0    0  501  502 -0.00000000000E+00 -0.00000000000E+00 -0.11231846773E+03  0.11231846773E+03  0.00000000000E+00 0.  1.
      99926    2    1    2    0    0  0.00000000000E+00  0.00000000000E+00  0.35876739695E+03  0.58340433241E+03  0.46005061673E+03 0.  0.
      99925    2    3    3    0    0  0.75919403274E+02  0.90862532778E+01  0.33839620852E+03  0.43538808597E+03  0.26306743559E+03 0.  0.
         25    1    4    4    0    0  0.62044338456E+02  0.24241043020E+02  0.22146000656E+03  0.26292426801E+03  0.12509000000E+03 0.  0.
         25    1    3    3    0    0 -0.75919403274E+02 -0.90862532778E+01  0.20371188426E+02  0.14801624644E+03  0.12509000000E+03 0.  0.
         25    1    4    4    0    0  0.13875064818E+02 -0.15154789742E+02  0.11693620196E+03  0.17246381796E+03  0.12509000000E+03 0.  0.
<mgrwt>
<rscale>  2 0.46005062E+03</rscale>
<asrwt>0</asrwt>
<pdfrwt beam="1">  1       21 0.69277332E-01 0.46005062E+03</pdfrwt>
<pdfrwt beam="2">  1       21 0.16517422E-01 0.46005062E+03</pdfrwt>
<totfact> 0.57385859E+04</totfact>
</mgrwt>
</event>
<event>
 7    0  0.4766352E-002  0.4366029E+03  0.7546771E-02  0.1031794E+00
         21   -1    0    0  502  501  0.00000000000E+00  0.00000000000E+00  0.14160978130E+03  0.14160978130E+03  0.00000000000E+00 0.  1.
         21   -1    0    0  501  502 -0.00000000000E+00 -0.00000000000E+00 -0.33652708593E+03  0.33652708593E+03  0.00000000000E+00 0.  1.
      99926    2    1    2    0    0  0.00000000000E+00  0.00000000000E+00 -0.19491730463E+03  0.47813686723E+03  0.43660291818E+03 0.  0.
      99925    2    3    3    0    0  0.34107455700E+02  0.39257409857E+02 -0.21176613025E+03  0.34162366718E+03  0.26297789506E+03 0.  0.
         25    1    4    4    0    0  0.18357994256E+02  0.57211107052E+02 -0.13090442751E+03  0.19077107738E+03  0.12509000000E+03 0.  0.
         25    1    4    4    0    0  0.15749461444E+02 -0.17953697195E+02 -0.80861702747E+02  0.15085258980E+03  0.12509000000E+03 0.  0.
         25    1    3    3    0    0 -0.34107455700E+02 -0.39257409857E+02  0.16848825627E+02  0.13651320005E+03  0.12509000000E+03 0.  0.
<mgrwt>
<rscale>  2 0.43660292E+03</rscale>
<asrwt>0</asrwt>
<pdfrwt beam="1">  1       21 0.20824968E-01 0.43660292E+03</pdfrwt>
<pdfrwt beam="2">  1       21 0.49489277E-01 0.43660292E+03</pdfrwt>
<totfact> 0.77559025E+04</totfact>
</mgrwt>
</event>
<event>
 7    0  0.4766352E-002  0.4526751E+03  0.7546771E-02  0.1026927E+00
         21   -1    0    0  502  501  0.00000000000E+00  0.00000000000E+00  0.38404770779E+03  0.38404770779E+03  0.00000000000E+00 0.  1.
         21   -1    0    0  501  502 -0.00000000000E+00 -0.00000000000E+00 -0.13339147799E+03  0.13339147799E+03  0.00000000000E+00 0.  1.
      99926    2    1    2    0    0  0.00000000000E+00  0.00000000000E+00  0.25065622980E+03  0.51743918577E+03  0.45267512129E+03 0.  0.
      99925    2    3    3    0    0 -0.60312076928E+02 -0.24257949691E+02  0.26089905334E+03  0.37609415303E+03  0.26296863152E+03 0.  0.
         25    1    4    4    0    0  0.29591847466E+01 -0.13569950790E+02  0.15732195179E+03  0.20147110203E+03  0.12509000000E+03 0.  0.
         25    1    3    3    0    0  0.60312076928E+02  0.24257949691E+02 -0.10242823547E+02  0.14134503274E+03  0.12509000000E+03 0.  0.
         25    1    4    4    0    0 -0.63271261674E+02 -0.10687998900E+02  0.10357710155E+03  0.17462305100E+03  0.12509000000E+03 0.  0.
<mgrwt>
<rscale>  2 0.45267512E+03</rscale>
<asrwt>0</asrwt>
<pdfrwt beam="1">  1       21 0.56477604E-01 0.45267512E+03</pdfrwt>
<pdfrwt beam="2">  1       21 0.19616394E-01 0.45267512E+03</pdfrwt>
<totfact> 0.65257523E+04</totfact>
</mgrwt>
</event>
<event>
 7    0  0.4766352E-002  0.4487737E+03  0.7546771E-02  0.1028088E+00
         21   -1    0    0  502  501  0.00000000000E+00  0.00000000000E+00  0.22425090651E+03  0.22425090651E+03  0.00000000000E+00 0. -1.
         21   -1    0    0  501  502 -0.00000000000E+00 -0.00000000000E+00 -0.22452284457E+03  0.22452284457E+03  0.00000000000E+00 0. -1.
      99926    2    1    2    0    0  0.35527136788E-14 -0.14210854715E-13 -0.27193806251E+00  0.44877375108E+03  0.44877366869E+03 0.  0.
      99925    2    3    3    0    0  0.19249348709E+02 -0.72432253201E+02  0.76498811527E+02  0.28397622433E+03  0.26300847722E+03 0.  0.
         25    1    4    4    0    0  0.13961550795E+02 -0.40249597234E+02  0.80333153096E+02  0.15464759476E+03  0.12509000000E+03 0.  0.
         25    1    3    3    0    0 -0.19249348709E+02  0.72432253201E+02 -0.76770749589E+02  0.16479752675E+03  0.12509000000E+03 0.  0.
         25    1    4    4    0    0  0.52877979140E+01 -0.32182655966E+02 -0.38343415690E+01  0.12932862957E+03  0.12509000000E+03 0.  0.
<mgrwt>
<rscale>  2 0.44877367E+03</rscale>
<asrwt>0</asrwt>
<pdfrwt beam="1">  1       21 0.32978075E-01 0.44877367E+03</pdfrwt>
<pdfrwt beam="2">  1       21 0.33018065E-01 0.44877367E+03</pdfrwt>
<totfact> 0.72541767E+04</totfact>
</mgrwt>
</event>
<event>
 7    0  0.4766352E-002  0.4561948E+03  0.7546771E-02  0.1025891E+00
         21   -1    0    0  502  501  0.00000000000E+00  0.00000000000E+00  0.42430644313E+03  0.42430644313E+03  0.00000000000E+00 0. -1.
         21   -1    0    0  501  502 -0.00000000000E+00 -0.00000000000E+00 -0.12261990106E+03  0.12261990106E+03  0.00000000000E+00 0. -1.
      99926    2    1    2    0    0  0.00000000000E+00  0.00000000000E+00  0.30168654207E+03  0.54692634418E+03  0.45619475698E+03 0.  0.
      99925    2    3    3    0    0  0.71591669761E+02  0.88086166828E+02  0.20716552544E+03  0.35336428527E+03  0.26280072908E+03 0.  0.
         25    1    4    4    0    0  0.46030252971E+02  0.71188741696E+02  0.14842902570E+03  0.21181431704E+03  0.12509000000E+03 0.  0.
         25    1    4    4    0    0  0.25561416790E+02  0.16897425132E+02  0.58736499745E+02  0.14154996823E+03  0.12509000000E+03 0.  0.
         25    1    3    3    0    0 -0.71591669761E+02 -0.88086166828E+02  0.94521016631E+02  0.19356205891E+03  0.12509000000E+03 0.  0.
<mgrwt>
<rscale>  2 0.45619476E+03</rscale>
<asrwt>0</asrwt>
<pdfrwt beam="1">  1       21 0.62398006E-01 0.45619476E+03</pdfrwt>
<pdfrwt beam="2">  1       21 0.18032339E-01 0.45619476E+03</pdfrwt>
<totfact> 0.61486746E+04</totfact>
</mgrwt>
</event>
<event>
 7    0  0.4766352E-002  0.4552652E+03  0.7546771E-02  0.1026163E+00
         21   -1    0    0  502  501  0.00000000000E+00  0.00000000000E+00  0.36763633909E+03  0.36763633909E+03  0.00000000000E+00 0.  1.
         21   -1    0    0  501  502 -0.00000000000E+00 -0.00000000000E+00 -0.14094528166E+03  0.14094528166E+03  0.00000000000E+00 0.  1.
      99926    2    1    2    0    0 -0.71054273576E-14  0.17763568394E-14  0.22669105743E+03  0.50858162074E+03  0.45526522977E+03 0.  0.
      99925    2    3    3    0    0 -0.59769602717E+02 -0.10739629260E+02  0.24963064137E+03  0.36765086591E+03  0.26299041246E+03 0.  0.
         25    1    4    4    0    0 -0.94105050946E+01  0.26398965141E+02  0.14093159826E+03  0.19051164388E+03  0.12509000000E+03 0.  0.
         25    1    3    3    0    0  0.59769602717E+02  0.10739629260E+02 -0.22939583943E+02  0.14093075483E+03  0.12509000000E+03 0.  0.
         25    1    4    4    0    0 -0.50359097623E+02 -0.37138594402E+02  0.10869904311E+03  0.17713922203E+03  0.12509000000E+03 0.  0.
<mgrwt>
<rscale>  2 0.45526523E+03</rscale>
<asrwt>0</asrwt>
<pdfrwt beam="1">  1       21 0.54064167E-01 0.45526523E+03</pdfrwt>
<pdfrwt beam="2">  1       21 0.20727247E-01 0.45526523E+03</pdfrwt>
<totfact> 0.64535927E+04</totfact>
</mgrwt>
</event>
<event>
 7    0  0.4766352E-002  0.4548942E+03  0.7546771E-02  0.1026273E+00
         21   -1    0    0  502  501  0.00000000000E+00  0.00000000000E+00  0.77044705329E+03  0.77044705329E+03  0.00000000000E+00 0. -1.
         21   -1    0    0  501  502 -0.00000000000E+00 -0.00000000000E+00 -0.67145659379E+02  0.67145659379E+02  0.00000000000E+00 0. -1.
      99926    2    1    2    0    0 -0.71054273576E-14  0.00000000000E+00  0.70330139391E+03  0.83759271267E+03  0.45489416532E+03 0.  0.
      99925    2    3    3    0    0 -0.45494706104E+02  0.55483097636E+02  0.60348343693E+03  0.66220948929E+03  0.26302282534E+03 0.  0.
         25    1    4    4    0    0 -0.54638717190E+02  0.11730080243E+02  0.35356863408E+03  0.37918500934E+03  0.12509000000E+03 0.  0.
         25    1    4    4    0    0  0.91440110861E+01  0.43753017393E+02  0.24991480285E+03  0.28302447995E+03  0.12509000000E+03 0.  0.
         25    1    3    3    0    0  0.45494706104E+02 -0.55483097636E+02  0.99817956976E+02  0.17538322338E+03  0.12509000000E+03 0.  0.
<mgrwt>
<rscale>  2 0.45489417E+03</rscale>
<asrwt>0</asrwt>
<pdfrwt beam="1">  1       21 0.11330103E+00 0.45489417E+03</pdfrwt>
<pdfrwt beam="2">  1       21 0.98743621E-02 0.45489417E+03</pdfrwt>
<totfact> 0.46037818E+04</totfact>
</mgrwt>
</event>
<event>
 7    0  0.4766352E-002  0.4500957E+03  0.7546771E-02  0.1027693E+00
         21   -1    0    0  502  501  0.00000000000E+00  0.00000000000E+00  0.23585373535E+03  0.23585373535E+03  0.00000000000E+00 0. -1.
         21   -1    0    0  501  502 -0.00000000000E+00 -0.00000000000E+00 -0.21473709128E+03  0.21473709128E+03  0.00000000000E+00 0. -1.
      99926    2    1    2    0    0  0.00000000000E+00  0.00000000000E+00  0.21116644070E+02  0.45059082662E+03  0.45009574579E+03 0.  0.
      99925    2    3    3    0    0 -0.69982056961E+02  0.55860794658E+02 -0.47567562458E+02  0.28211844016E+03  0.26326835093E+03 0.  0.
         25    1    3    3    0    0  0.69982056961E+02 -0.55860794658E+02  0.68684206527E+02  0.16847238647E+03  0.12509000000E+03 0.  0.
         25    1    4    4    0    0 -0.98171832562E+01 -0.63023531603E+01 -0.28625546578E+02  0.12885273284E+03  0.12509000000E+03 0.  0.
         25    1    4    4    0    0 -0.60164873705E+02  0.62163147818E+02 -0.18942015879E+02  0.15326570732E+03  0.12509000000E+03 0.  0.
<mgrwt>
<rscale>  2 0.45009575E+03</rscale>
<asrwt>0</asrwt>
<pdfrwt beam="1">  1       21 0.34684373E-01 0.45009575E+03</pdfrwt>
<pdfrwt beam="2">  1       21 0.31578984E-01 0.45009575E+03</pdfrwt>
<totfact> 0.71632276E+04</totfact>
</mgrwt>
</event>
<event>
 7    0  0.4766352E-002  0.4191871E+03  0.7546771E-02  0.1037331E+00
         21   -1    0    0  502  501  0.00000000000E+00  0.00000000000E+00  0.31038314365E+02  0.31038314365E+02  0.00000000000E+00 0.  1.
         21   -1    0    0  501  502 -0.00000000000E+00 -0.00000000000E+00 -0.14153301703E+04  0.14153301703E+04  0.00000000000E+00 0.  1.
      99926    2    1    2    0    0 -0.35527136788E-14  0.00000000000E+00 -0.13842918559E+04  0.14463684846E+04  0.41918713127E+03 0.  0.
      99925    2    3    3    0    0  0.27143116329E+02  0.49558876993E+02 -0.10723783457E+04  0.11055894110E+04  0.26294447784E+03 0.  0.
         25    1    4    4    0    0  0.45551713140E+02  0.40406102862E+02 -0.64355535329E+03  0.65842130325E+03  0.12509000000E+03 0.  0.
         25    1    3    3    0    0 -0.27143116329E+02 -0.49558876993E+02 -0.31191351027E+03  0.34077907365E+03  0.12509000000E+03 0.  0.
         25    1    4    4    0    0 -0.18408596811E+02  0.91527741311E+01 -0.42882299236E+03  0.44716810775E+03  0.12509000000E+03 0.  0.
<mgrwt>
<rscale>  2 0.41918713E+03</rscale>
<asrwt>0</asrwt>
<pdfrwt beam="1">  1       21 0.45644577E-02 0.41918713E+03</pdfrwt>
<pdfrwt beam="2">  1       21 0.20813680E+00 0.41918713E+03</pdfrwt>
<totfact> 0.33525380E+04</totfact>
</mgrwt>
</event>
<event>
 6    0  0.4766352E-002  0.4631663E+03  0.7546771E-02  0.1023867E+00
         21   -1    0    0  502  501  0.00000000000E+00  0.00000000000E+00  0.89463644398E+02  0.89463644398E+02  0.00000000000E+00 0. -1.
         21   -1    0    0  501  502 -0.00000000000E+00 -0.00000000000E+00 -0.59946980096E+03  0.59946980096E+03  0.00000000000E+00 0. -1.
      99926    2    1    2    0    0  0.00000000000E+00  0.00000000000E+00 -0.51000615656E+03  0.68893344536E+03  0.46316629023E+03 0.  0.
         25    1    3    3    0    0  0.98115035196E+01 -0.39141833363E+02 -0.21150733271E+03  0.24902049837E+03  0.12509000000E+03 0.  0.
         25    1    3    3    0    0  0.73172725197E+02 -0.44070939137E+02 -0.13662355598E+03  0.20398529245E+03  0.12509000000E+03 0.  0.
         25    1    3    3    0    0 -0.82984228717E+02  0.83212772500E+02 -0.16187526787E+03  0.23592765453E+03  0.12509000000E+03 0.  0.
<mgrwt>
<rscale>  2 0.46316629E+03</rscale>
<asrwt>0</asrwt>
<pdfrwt beam="1">  1       21 0.13156419E-01 0.46316629E+03</pdfrwt>
<pdfrwt beam="2">  1       21 0.88157320E-01 0.46316629E+03</pdfrwt>
<totfact> 0.50200768E+04</totfact>
</mgrwt>
</event>
<event>
 7    0  0.4766352E-002  0.4509059E+03  0.7546771E-02  0.1027452E+00
         21   -1    0    0  502  501  0.00000000000E+00  0.00000000000E+00  0.54796394921E+02  0.54796394921E+02  0.00000000000E+00 0. -1.
         21   -1    0    0  501  502 -0.00000000000E+00 -0.00000000000E+00 -0.92759824043E+03  0.92759824043E+03  0.00000000000E+00 0. -1.
      99926    2    1    2    0    0  0.00000000000E+00  0.00000000000E+00 -0.87280184551E+03  0.98239463535E+03  0.45090593037E+03 0.  0.
      99925    2    3    3    0    0 -0.40049712440E+02  0.23140110201E+02 -0.76698852982E+03  0.81214948845E+03  0.26301319842E+03 0.  0.
         25    1    3    3    0    0  0.40049712440E+02 -0.23140110201E+02 -0.10581331569E+03  0.17024514690E+03  0.12509000000E+03 0.  0.
         25    1    4    4    0    0 -0.19452003901E+02  0.41833985795E+02 -0.30823573632E+03  0.33583513822E+03  0.12509000000E+03 0.  0.
         25    1    4    4    0    0 -0.20597708539E+02 -0.18693875594E+02 -0.45875279351E+03  0.47631435023E+03  0.12509000000E+03 0.  0.
<mgrwt>
<rscale>  2 0.45090593E+03</rscale>
<asrwt>0</asrwt>
<pdfrwt beam="1">  1       21 0.80582931E-02 0.45090593E+03</pdfrwt>
<pdfrwt beam="2">  1       21 0.13641151E+00 0.45090593E+03</pdfrwt>
<totfact> 0.41157352E+04</totfact>
</mgrwt>
</event>
<event>
 7    0  0.4766352E-002  0.4531401E+03  0.7546771E-02  0.1026790E+00
         21   -1    0    0  502  501  0.00000000000E+00  0.00000000000E+00  0.14714450945E+03  0.14714450945E+03  0.00000000000E+00 0. -1.
         21   -1    0    0  501  502 -0.00000000000E+00 -0.00000000000E+00 -0.34886789761E+03  0.34886789761E+03  0.00000000000E+00 0. -1.
      99926    2    1    2    0    0 -0.71054273576E-14  0.00000000000E+00 -0.20172338816E+03  0.49601240707E+03  0.45314013576E+03 0.  0.
      99925    2    3    3    0    0  0.57249701318E+02  0.44103390406E+02 -0.34470599900E+02  0.27500643288E+03  0.26309252844E+03 0.  0.
         25    1    4    4    0    0 -0.93611217932E+01  0.27305234787E+02 -0.81537222192E+00  0.12837982466E+03  0.12509000000E+03 0.  0.
         25    1    3    3    0    0 -0.57249701318E+02 -0.44103390406E+02 -0.16725278826E+03  0.22100597419E+03  0.12509000000E+03 0.  0.
         25    1    4    4    0    0  0.66610823111E+02  0.16798155619E+02 -0.33655227678E+02  0.14662660822E+03  0.12509000000E+03 0.  0.
<mgrwt>
<rscale>  2 0.45314014E+03</rscale>
<asrwt>0</asrwt>
<pdfrwt beam="1">  1       21 0.21638899E-01 0.45314014E+03</pdfrwt>
<pdfrwt beam="2">  1       21 0.51304102E-01 0.45314014E+03</pdfrwt>
<totfact> 0.66528550E+04</totfact>
</mgrwt>
</event>
<event>
 7    0  0.4766352E-002  0.4519364E+03  0.7546771E-02  0.1027146E+00
         21   -1    0    0  502  501  0.00000000000E+00  0.00000000000E+00  0.38886378094E+03  0.38886378094E+03  0.00000000000E+00 0.  1.
         21   -1    0    0  501  502 -0.00000000000E+00 -0.00000000000E+00 -0.13130982924E+03  0.13130982924E+03  0.00000000000E+00 0.  1.
      99926    2    1    2    0    0  0.00000000000E+00  0.00000000000E+00  0.25755395170E+03  0.52017361018E+03  0.45193644099E+03 0.  0.
      99925    2    3    3    0    0 -0.27024758960E+02  0.65620837207E+02  0.25976129955E+03  0.37633754948E+03  0.26290223760E+03 0.  0.
         25    1    4    4    0    0 -0.40651657762E+02  0.45885835871E+02  0.97392904029E+02  0.16997338929E+03  0.12509000000E+03 0.  0.
         25    1    3    3    0    0  0.27024758960E+02 -0.65620837207E+02 -0.22073478411E+01  0.14383606070E+03  0.12509000000E+03 0.  0.
         25    1    4    4    0    0  0.13626898802E+02  0.19735001336E+02  0.16236839552E+03  0.20636416019E+03  0.12509000000E+03 0.  0.
<mgrwt>
<rscale>  2 0.45193644E+03</rscale>
<asrwt>0</asrwt>
<pdfrwt beam="1">  1       21 0.57185850E-01 0.45193644E+03</pdfrwt>
<pdfrwt beam="2">  1       21 0.19310269E-01 0.45193644E+03</pdfrwt>
<totfact> 0.65451750E+04</totfact>
</mgrwt>
</event>
<event>
 7    0  0.4766352E-002  0.4567664E+03  0.7546771E-02  0.1025723E+00
         21   -1    0    0  502  501  0.00000000000E+00  0.00000000000E+00  0.11262316431E+03  0.11262316431E+03  0.00000000000E+00 0. -1.
         21   -1    0    0  501  502 -0.00000000000E+00 -0.00000000000E+00 -0.46312750549E+03  0.46312750549E+03  0.00000000000E+00 0. -1.
      99926    2    1    2    0    0  0.14210854715E-13  0.00000000000E+00 -0.35050434118E+03  0.57575066980E+03  0.45676639608E+03 0.  0.
      99925    2    3    3    0    0  0.10222009707E+03 -0.42770632387E+02 -0.18223003646E+03  0.33859665872E+03  0.26298599938E+03 0.  0.
         25    1    4    4    0    0  0.25418030521E+02 -0.29734786066E+02 -0.12311103139E+03  0.17981676209E+03  0.12509000000E+03 0.  0.
         25    1    4    4    0    0  0.76802066545E+02 -0.13035846321E+02 -0.59119005062E+02  0.15877989663E+03  0.12509000000E+03 0.  0.
         25    1    3    3    0    0 -0.10222009707E+03  0.42770632387E+02 -0.16827430473E+03  0.23715401108E+03  0.12509000000E+03 0.  0.
<mgrwt>
<rscale>  2 0.45676640E+03</rscale>
<asrwt>0</asrwt>
<pdfrwt beam="1">  1       21 0.16562230E-01 0.45676640E+03</pdfrwt>
<pdfrwt beam="2">  1       21 0.68106985E-01 0.45676640E+03</pdfrwt>
<totfact> 0.59362836E+04</totfact>
</mgrwt>
</event>
<event>
 7    0  0.4766352E-002  0.4655561E+03  0.7546771E-02  0.1023182E+00
         21   -1    0    0  502  501  0.00000000000E+00  0.00000000000E+00  0.44853407615E+03  0.44853407615E+03  0.00000000000E+00 0.  1.
         21   -1    0    0  501  502 -0.00000000000E+00 -0.00000000000E+00 -0.12080604528E+03  0.12080604528E+03  0.00000000000E+00 0.  1.
      99926    2    1    2    0    0  0.00000000000E+00  0.00000000000E+00  0.32772803088E+03  0.56934012143E+03  0.46555613158E+03 0.  0.
      99925    2    3    3    0    0  0.64730301303E+02 -0.10354162258E+03  0.22171517160E+03  0.36489669663E+03  0.26283284114E+03 0.  0.
         25    1    4    4    0    0  0.44856039668E+01 -0.81141037730E+02  0.11543474768E+03  0.18861780860E+03  0.12509000000E+03 0.  0.
         25    1    3    3    0    0 -0.64730301303E+02  0.10354162258E+03  0.10601285928E+03  0.20444342480E+03  0.12509000000E+03 0.  0.
         25    1    4    4    0    0  0.60244697336E+02 -0.22400584852E+02  0.10628042392E+03  0.17627888803E+03  0.12509000000E+03 0.  0.
<mgrwt>
<rscale>  2 0.46555613E+03</rscale>
<asrwt>0</asrwt>
<pdfrwt beam="1">  1       21 0.65960893E-01 0.46555613E+03</pdfrwt>
<pdfrwt beam="2">  1       21 0.17765595E-01 0.46555613E+03</pdfrwt>
<totfact> 0.55800146E+04</totfact>
</mgrwt>
</event>
<event>
 7    0  0.4766352E-002  0.4512523E+03  0.7546771E-02  0.1027349E+00
         21   -1    0    0  502  501  0.00000000000E+00  0.00000000000E+00  0.28953435947E+02  0.28953435947E+02  0.00000000000E+00 0. -1.
         21   -1    0    0  501  502 -0.00000000000E+00 -0.00000000000E+00 -0.17582427888E+04  0.17582427888E+04  0.00000000000E+00 0. -1.
      99926    2    1    2    0    0  0.00000000000E+00 -0.14210854715E-13 -0.17292893529E+04  0.17871962248E+04  0.45125234610E+03 0.  0.
      99925    2    3    3    0    0 -0.32168145373E+02  0.90165985115E+02 -0.87888179278E+03  0.92232327409E+03  0.26283516089E+03 0.  0.
         25    1    4    4    0    0 -0.12979577640E+02  0.50105589227E+02 -0.31193769887E+03  0.34004657855E+03  0.12509000000E+03 0.  0.
         25    1    3    3    0    0  0.32168145373E+02 -0.90165985115E+02 -0.85040756009E+03  0.86487295067E+03  0.12509000000E+03 0.  0.
         25    1    4    4    0    0 -0.19188567733E+02  0.40060395889E+02 -0.56694409391E+03  0.58227669554E+03  0.12509000000E+03 0.  0.
<mgrwt>
<rscale>  2 0.45125235E+03</rscale>
<asrwt>0</asrwt>
<pdfrwt beam="1">  1       21 0.42578566E-02 0.45125235E+03</pdfrwt>
<pdfrwt beam="2">  1       21 0.25856522E+00 0.45125235E+03</pdfrwt>
<totfact> 0.18025529E+04</totfact>
</mgrwt>
</event>
<event>
 7    0  0.4766352E-002  0.4498291E+03  0.7546771E-02  0.1027773E+00
         21   -1    0    0  502  501  0.00000000000E+00  0.00000000000E+00  0.14590040736E+04  0.14590040736E+04  0.00000000000E+00 0. -1.
         21   -1    0    0  501  502 -0.00000000000E+00 -0.00000000000E+00 -0.34671979641E+02  0.34671979641E+02  0.00000000000E+00 0. -1.
      99926    2    1    2    0    0  0.13322676296E-14  0.00000000000E+00  0.14243320940E+04  0.14936760533E+04  0.44982912106E+03 0.  0.
      99925    2    3    3    0    0 -0.27151289959E+01  0.14720577813E+02  0.54457844517E+03  0.60494771567E+03  0.26300568135E+03 0.  0.
         25    1    4    4    0    0  0.25148821683E+02  0.11040036569E+02  0.20214221065E+03  0.23929757012E+03  0.12509000000E+03 0.  0.
         25    1    4    4    0    0 -0.27863950679E+02  0.36805412441E+01  0.34243623451E+03  0.36565014555E+03  0.12509000000E+03 0.  0.
         25    1    3    3    0    0  0.27151289959E+01 -0.14720577813E+02  0.87975364882E+03  0.88872833760E+03  0.12509000000E+03 0.  0.
<mgrwt>
<rscale>  2 0.44982912E+03</rscale>
<asrwt>0</asrwt>
<pdfrwt beam="1">  1       21 0.21455938E+00 0.44982912E+03</pdfrwt>
<pdfrwt beam="2">  1       21 0.50988215E-02 0.44982912E+03</pdfrwt>
<totfact> 0.24920555E+04</totfact>
</mgrwt>
</event>
<event>
 7    0  0.4766352E-002  0.4575807E+03  0.7546771E-02  0.1025485E+00
         21   -1    0    0  502  501  0.00000000000E+00  0.00000000000E+00  0.63202987291E+02  0.63202987291E+02  0.00000000000E+00 0. -1.
         21   -1    0    0  501  502 -0.00000000000E+00 -0.00000000000E+00 -0.82820508343E+03  0.82820508343E+03  0.00000000000E+00 0. -1.
      99926    2    1    2    0    0  0.00000000000E+00  0.00000000000E+00 -0.76500209614E+03  0.89140807072E+03  0.45758074856E+03 0.  0.
      99925    2    3    3    0    0 -0.21347159409E+02  0.29666691473E+02 -0.69471388492E+03  0.74334134747E+03  0.26190296516E+03 0.  0.
         25    1    4    4    0    0 -0.89633945256E+01 -0.15578423871E+02 -0.40605387409E+03  0.42526496034E+03  0.12509000000E+03 0.  0.
         25    1    3    3    0    0  0.21347159409E+02 -0.29666691473E+02 -0.70288211214E+02  0.14806672325E+03  0.12509000000E+03 0.  0.
         25    1    4    4    0    0 -0.12383764883E+02  0.45245115343E+02 -0.28866001084E+03  0.31807638713E+03  0.12509000000E+03 0.  0.
<mgrwt>
<rscale>  2 0.45758075E+03</rscale>
<asrwt>0</asrwt>
<pdfrwt beam="1">  1       21 0.92945568E-02 0.45758075E+03</pdfrwt>
<pdfrwt beam="2">  1       21 0.12179487E+00 0.45758075E+03</pdfrwt>
<totfact> 0.42737036E+04</totfact>
</mgrwt>
</event>
<event>
 7    0  0.4766352E-002  0.4492450E+03  0.7546771E-02  0.1027947E+00
         21   -1    0    0  502  501  0.00000000000E+00  0.00000000000E+00  0.92097700330E+02  0.92097700330E+02  0.00000000000E+00 0. -1.
         21   -1    0    0  501  502 -0.00000000000E+00 -0.00000000000E+00 -0.54784510926E+03  0.54784510926E+03  0.00000000000E+00 0. -1.
      99926    2    1    2    0    0 -0.71054273576E-14  0.00000000000E+00 -0.45574740893E+03  0.63994280958E+03  0.44924503202E+03 0.  0.
      99925    2    3    3    0    0 -0.45844678771E+02 -0.79177591200E+02 -0.36915845224E+03  0.46241540032E+03  0.26301941768E+03 0.  0.
         25    1    4    4    0    0 -0.48301730901E+02 -0.21841500777E+02 -0.22701417127E+03  0.26456199731E+03  0.12509000000E+03 0.  0.
         25    1    4    4    0    0  0.24570521295E+01 -0.57336090424E+02 -0.14214428096E+03  0.19785340301E+03  0.12509000000E+03 0.  0.
         25    1    3    3    0    0  0.45844678771E+02  0.79177591200E+02 -0.86588956691E+02  0.17752740927E+03  0.12509000000E+03 0.  0.
<mgrwt>
<rscale>  2 0.44924503E+03</rscale>
<asrwt>0</asrwt>
<pdfrwt beam="1">  1       21 0.13543779E-01 0.44924503E+03</pdfrwt>
<pdfrwt beam="2">  1       21 0.80565460E-01 0.44924503E+03</pdfrwt>
<totfact> 0.58914926E+04</totfact>
</mgrwt>
</event>
<event>
 7    0  0.4766352E-002  0.4685322E+03  0.7546771E-02  0.1022335E+00
         21   -1    0    0  502  501  0.00000000000E+00  0.00000000000E+00  0.21197059261E+03  0.21197059261E+03  0.00000000000E+00 0.  1.
         21   -1    0    0  501  502 -0.00000000000E+00 -0.00000000000E+00 -0.25890667162E+03  0.25890667162E+03  0.00000000000E+00 0.  1.
      99926    2    1    2    0    0  0.00000000000E+00  0.00000000000E+00 -0.46936079014E+02  0.47087726423E+03  0.46853217868E+03 0.  0.
      99925    2    3    3    0    0 -0.44764727346E+02 -0.59844128212E+02  0.71892403349E+02  0.28285355079E+03  0.26315853214E+03 0.  0.
         25    1    3    3    0    0  0.44764727346E+02  0.59844128212E+02 -0.11882848236E+03  0.18802371344E+03  0.12509000000E+03 0.  0.
         25    1    4    4    0    0 -0.98588894438E+01 -0.41177973122E+02  0.74495532668E+02  0.15162425815E+03  0.12509000000E+03 0.  0.
         25    1    4    4    0    0 -0.34905837902E+02 -0.18666155090E+02 -0.26031293188E+01  0.13122929264E+03  0.12509000000E+03 0.  0.
<mgrwt>
<rscale>  2 0.46853218E+03</rscale>
<asrwt>0</asrwt>
<pdfrwt beam="1">  1       21 0.31172146E-01 0.46853218E+03</pdfrwt>
<pdfrwt beam="2">  1       21 0.38074510E-01 0.46853218E+03</pdfrwt>
<totfact> 0.60587422E+04</totfact>
</mgrwt>
</event>
<event>
 7    0  0.4766352E-002  0.4547694E+03  0.7546771E-02  0.1026309E+00
         21   -1    0    0  502  501  0.00000000000E+00  0.00000000000E+00  0.90365174453E+03  0.90365174453E+03  0.00000000000E+00 0. -1.
         21   -1    0    0  501  502 -0.00000000000E+00 -0.00000000000E+00 -0.57216503878E+02  0.57216503878E+02  0.00000000000E+00 0. -1.
      99926    2    1    2    0    0  0.71054273576E-14  0.00000000000E+00  0.84643524065E+03  0.96086824841E+03  0.45476936372E+03 0.  0.
      99925    2    3    3    0    0  0.36156013418E+02 -0.90640435998E+02  0.41312725121E+03  0.49942890488E+03  0.26312004749E+03 0.  0.
         25    1    3    3    0    0 -0.36156013418E+02  0.90640435998E+02  0.43330798944E+03  0.46143934353E+03  0.12509000000E+03 0.  0.
         25    1    4    4    0    0  0.41273103022E+02 -0.48984354997E+02  0.15297415443E+03  0.20772947814E+03  0.12509000000E+03 0.  0.
         25    1    4    4    0    0 -0.51170896040E+01 -0.41656081001E+02  0.26015309678E+03  0.29169942673E+03  0.12509000000E+03 0.  0.
<mgrwt>
<rscale>  2 0.45476936E+03</rscale>
<asrwt>0</asrwt>
<pdfrwt beam="1">  1       21 0.13288995E+00 0.45476936E+03</pdfrwt>
<pdfrwt beam="2">  1       21 0.84141923E-02 0.45476936E+03</pdfrwt>
<totfact> 0.40777339E+04</totfact>
</mgrwt>
</event>
<event>
 7    0  0.4766352E-002  0.4619586E+03  0.7546771E-02  0.1024215E+00
         21   -1    0    0  502  501  0.00000000000E+00  0.00000000000E+00  0.13036930792E+04  0.13036930792E+04  0.00000000000E+00 0. -1.
         21   -1    0    0  501  502 -0.00000000000E+00 -0.00000000000E+00 -0.40923304494E+02  0.40923304494E+02  0.00000000000E+00 0. -1.
      99926    2    1    2    0    0  0.00000000000E+00  0.00000000000E+00  0.12627697747E+04  0.13446163837E+04  0.46195856458E+03 0.  0.
      99925    2    3    3    0    0 -0.10296344023E+03  0.60049884116E+02  0.76090576424E+03  0.81384105297E+03  0.26296809472E+03 0.  0.
         25    1    4    4    0    0 -0.27755440056E+02  0.34014245069E+02  0.45467225930E+03  0.47360500926E+03  0.12509000000E+03 0.  0.
         25    1    3    3    0    0  0.10296344023E+03 -0.60049884116E+02  0.50186401048E+03  0.53077533074E+03  0.12509000000E+03 0.  0.
         25    1    4    4    0    0 -0.75208000172E+02  0.26035639047E+02  0.30623350494E+03  0.34023604371E+03  0.12509000000E+03 0.  0.
<mgrwt>
<rscale>  2 0.46195856E+03</rscale>
<asrwt>0</asrwt>
<pdfrwt beam="1">  1       21 0.19171954E+00 0.46195856E+03</pdfrwt>
<pdfrwt beam="2">  1       21 0.60181339E-02 0.46195856E+03</pdfrwt>
<totfact> 0.26389192E+04</totfact>
</mgrwt>
</event>
<event>
 6    0  0.4766352E-002  0.4615723E+03  0.7546771E-02  0.1024326E+00
         21   -1    0    0  502  501  0.00000000000E+00  0.00000000000E+00  0.42194669729E+03  0.42194669729E+03  0.00000000000E+00 0.  1.
         21   -1    0    0  501  502 -0.00000000000E+00 -0.00000000000E+00 -0.12622981471E+03  0.12622981471E+03  0.00000000000E+00 0.  1.
      99926    2    1    2    0    0 -0.71054273576E-14  0.14210854715E-13  0.29571688259E+03  0.54817651200E+03  0.46157232766E+03 0.  0.
         25    1    3    3    0    0 -0.13763130186E+02  0.49843159876E+02  0.87236292702E+02  0.16103242904E+03  0.12509000000E+03 0.  0.
         25    1    3    3    0    0  0.31971435841E+02 -0.94309724304E+02  0.27943600317E+02  0.16231096607E+03  0.12509000000E+03 0.  0.
         25    1    3    3    0    0 -0.18208305654E+02  0.44466564428E+02  0.18053698957E+03  0.22483311689E+03  0.12509000000E+03 0.  0.
<mgrwt>
<rscale>  2 0.46157233E+03</rscale>
<asrwt>0</asrwt>
<pdfrwt beam="1">  1       21 0.62050985E-01 0.46157233E+03</pdfrwt>
<pdfrwt beam="2">  1       21 0.18563208E-01 0.46157233E+03</pdfrwt>
<totfact> 0.58865729E+04</totfact>
</mgrwt>
</event>
<event>
 7    0  0.4766352E-002  0.4271448E+03  0.7546771E-02  0.1034766E+00
         21   -1    0    0  502  501  0.00000000000E+00  0.00000000000E+00  0.54903711519E+03  0.54903711519E+03  0.00000000000E+00 0.  1.
         21   -1    0    0  501  502 -0.00000000000E+00 -0.00000000000E+00 -0.83078474610E+02  0.83078474610E+02  0.00000000000E+00 0.  1.
      99926    2    1    2    0    0  0.17763568394E-14  0.00000000000E+00  0.46595864058E+03  0.63211558980E+03  0.42714478124E+03 0.  0.
      99925    2    3    3    0    0  0.93227822653E+01  0.39671072910E+02  0.41074648434E+03  0.48943903745E+03  0.26301556738E+03 0.  0.
         25    1    3    3    0    0 -0.93227822653E+01 -0.39671072910E+02  0.55212156245E+02  0.14267655236E+03  0.12509000000E+03 0.  0.
         25    1    4    4    0    0  0.56079369111E+01  0.21040498387E+02  0.13112870392E+03  0.18252779684E+03  0.12509000000E+03 0.  0.
         25    1    4    4    0    0  0.37148453542E+01  0.18630574523E+02  0.27961778042E+03  0.30691124061E+03  0.12509000000E+03 0.  0.
<mgrwt>
<rscale>  2 0.42714478E+03</rscale>
<asrwt>0</asrwt>
<pdfrwt beam="1">  1       21 0.80740750E-01 0.42714478E+03</pdfrwt>
<pdfrwt beam="2">  1       21 0.12217423E-01 0.42714478E+03</pdfrwt>
<totfact> 0.71134832E+04</totfact>
</mgrwt>
</event>
<event>
 7    0  0.4766352E-002  0.4472955E+03  0.7546771E-02  0.1028532E+00
         21   -1    0    0  502  501  0.00000000000E+00  0.00000000000E+00  0.50660886970E+03  0.50660886970E+03  0.00000000000E+00 0.  1.
         21   -1    0    0  501  502 -0.00000000000E+00 -0.00000000000E+00 -0.98731618836E+02  0.98731618836E+02  0.00000000000E+00 0.  1.
      99926    2    1    2    0    0 -0.35527136788E-14  0.88817841970E-15  0.40787725086E+03  0.60534048854E+03  0.44729548990E+03 0.  0.
      99925    2    3    3    0    0  0.98541968999E+01 -0.78255450915E+01  0.11619204258E+03  0.28771474464E+03  0.26290842355E+03 0.  0.
         25    1    3    3    0    0 -0.98541968999E+01  0.78255450915E+01  0.29168520829E+03  0.31762574390E+03  0.12509000000E+03 0.  0.
         25    1    4    4    0    0  0.42684630421E+02  0.10498411195E+02  0.57876194206E+02  0.14466981809E+03  0.12509000000E+03 0.  0.
         25    1    4    4    0    0 -0.32830433521E+02 -0.18323956286E+02  0.58315848372E+02  0.14304492655E+03  0.12509000000E+03 0.  0.
<mgrwt>
<rscale>  2 0.44729549E+03</rscale>
<asrwt>0</asrwt>
<pdfrwt beam="1">  1       21 0.74501304E-01 0.44729549E+03</pdfrwt>
<pdfrwt beam="2">  1       21 0.14519356E-01 0.44729549E+03</pdfrwt>
<totfact> 0.62041447E+04</totfact>
</mgrwt>
</event>
<event>
 7    0  0.4766352E-002  0.4538464E+03  0.7546771E-02  0.1026581E+00
         21   -1    0    0  502  501  0.00000000000E+00  0.00000000000E+00  0.56054871906E+02  0.56054871906E+02  0.00000000000E+00 0.  1.
         21   -1    0    0  501  502 -0.00000000000E+00 -0.00000000000E+00 -0.91863815192E+03  0.91863815192E+03  0.00000000000E+00 0.  1.
      99926    2    1    2    0    0  0.00000000000E+00  0.00000000000E+00 -0.86258328001E+03  0.97469302383E+03  0.45384642307E+03 0.  0.
      99925    2    3    3    0    0  0.10249995102E+03 -0.27392397112E+02 -0.46600524511E+03  0.54553311278E+03  0.26303784004E+03 0.  0.
         25    1    4    4    0    0  0.74734657459E+02 -0.48620113218E+02 -0.26090923533E+03  0.30277107129E+03  0.12509000000E+03 0.  0.
         25    1    3    3    0    0 -0.10249995102E+03  0.27392397112E+02 -0.39657803491E+03  0.42915991105E+03  0.12509000000E+03 0.  0.
         25    1    4    4    0    0  0.27765293558E+02  0.21227716107E+02 -0.20509600978E+03  0.24276204148E+03  0.12509000000E+03 0.  0.
<mgrwt>
<rscale>  2 0.45384642E+03</rscale>
<asrwt>0</asrwt>
<pdfrwt beam="1">  1       21 0.82433635E-02 0.45384642E+03</pdfrwt>
<pdfrwt beam="2">  1       21 0.13509385E+00 0.45384642E+03</pdfrwt>
<totfact> 0.40520915E+04</totfact>
</mgrwt>
</event>
<event>
 7    0  0.4766352E-002  0.4553659E+03  0.7546771E-02  0.1026134E+00
         21   -1    0    0  502  501  0.00000000000E+00  0.00000000000E+00  0.21751629485E+03  0.21751629485E+03  0.00000000000E+00 0.  1.
         21   -1    0    0  501  502 -0.00000000000E+00 -0.00000000000E+00 -0.23832479162E+03  0.23832479162E+03  0.00000000000E+00 0.  1.
      99926    2    1    2    0    0  0.00000000000E+00  0.14210854715E-13 -0.20808496770E+02  0.45584108646E+03  0.45536589966E+03 0.  0.
      99925    2    3    3    0    0  0.79491044049E+02  0.74916559088E+02 -0.44099096451E+02  0.28814708823E+03  0.26296900433E+03 0.  0.
         25    1    4    4    0    0  0.43666209823E+01  0.13877815809E+02 -0.98778701835E+01  0.12631999671E+03  0.12509000000E+03 0.  0.
         25    1    3    3    0    0 -0.79491044049E+02 -0.74916559088E+02  0.23290599680E+02  0.16769399823E+03  0.12509000000E+03 0.  0.
         25    1    4    4    0    0  0.75124423067E+02  0.61038743279E+02 -0.34221226267E+02  0.16182709152E+03  0.12509000000E+03 0.  0.
<mgrwt>
<rscale>  2 0.45536590E+03</rscale>
<asrwt>0</asrwt>
<pdfrwt beam="1">  1       21 0.31987690E-01 0.45536590E+03</pdfrwt>
<pdfrwt beam="2">  1       21 0.35047764E-01 0.45536590E+03</pdfrwt>
<totfact> 0.68284670E+04</totfact>
</mgrwt>
</event>
<event>
 7    0  0.4766352E-002  0.4475280E+03  0.7546771E-02  0.1028462E+00
         21   -1    0    0  502  501  0.00000000000E+00  0.00000000000E+00  0.12360993850E+03  0.12360993850E+03  0.00000000000E+00 0.  1.
         21   -1    0    0  501  502 -0.00000000000E+00 -0.00000000000E+00 -0.40506715608E+03  0.40506715608E+03  0.00000000000E+00 0.  1.
      99926    2    1    2    0    0  0.71054273576E-14 -0.17763568394E-14 -0.28145721759E+03  0.52867709458E+03  0.44752799354E+03 0.  0.
      99925    2    3    3    0    0 -0.58311026932E+02 -0.12639600291E+02 -0.28109252067E+03  0.39008569347E+03  0.26380657255E+03 0.  0.
         25    1    4    4    0    0 -0.66356504855E+02  0.13782133200E+02 -0.15312633785E+03  0.20901750255E+03  0.12509000000E+03 0.  0.
         25    1    4    4    0    0  0.80454779231E+01 -0.26421733491E+02 -0.12796618282E+03  0.18106819092E+03  0.12509000000E+03 0.  0.
         25    1    3    3    0    0  0.58311026932E+02  0.12639600291E+02 -0.36469691729E+00  0.13859140111E+03  0.12509000000E+03 0.  0.
<mgrwt>
<rscale>  2 0.44752799E+03</rscale>
<asrwt>0</asrwt>
<pdfrwt beam="1">  1       21 0.18177932E-01 0.44752799E+03</pdfrwt>
<pdfrwt beam="2">  1       21 0.59568698E-01 0.44752799E+03</pdfrwt>
<totfact> 0.67184512E+04</totfact>
</mgrwt>
</event>
<event>
 7    0  0.4766352E-002  0.4564961E+03  0.7546771E-02  0.1025802E+00
         21   -1    0    0  502  501  0.00000000000E+00  0.00000000000E+00  0.63569210738E+02  0.63569210738E+02  0.00000000000E+00 0.  1.
         21   -1    0    0  501  502 -0.00000000000E+00 -0.00000000000E+00 -0.81953467075E+03  0.81953467075E+03  0.00000000000E+00 0.  1.
      99926    2    1    2    0    0 -0.35527136788E-14  0.00000000000E+00 -0.75596546002E+03  0.88310388149E+03  0.45649609940E+03 0.  0.
      99925    2    3    3    0    0  0.26751754349E+02 -0.63146644038E+02 -0.65286002371E+03  0.70708855798E+03  0.26276389260E+03 0.  0.
         25    1    4    4    0    0  0.38068849409E+02 -0.28052131183E+02 -0.24821214659E+03  0.28194491869E+03  0.12509000000E+03 0.  0.
         25    1    3    3    0    0 -0.26751754349E+02  0.63146644038E+02 -0.10310543630E+03  0.17601532351E+03  0.12509000000E+03 0.  0.
         25    1    4    4    0    0 -0.11317095060E+02 -0.35094512855E+02 -0.40464787712E+03  0.42514363929E+03  0.12509000000E+03 0.  0.
<mgrwt>
<rscale>  2 0.45649610E+03</rscale>
<asrwt>0</asrwt>
<pdfrwt beam="1">  1       21 0.93484132E-02 0.45649610E+03</pdfrwt>
<pdfrwt beam="2">  1       21 0.12051981E+00 0.45649610E+03</pdfrwt>
<totfact> 0.43460842E+04</totfact>
</mgrwt>
</event>
<event>
 7    0  0.4766352E-002  0.4667065E+03  0.7546771E-02  0.1022854E+00
         21   -1    0    0  502  501  0.00000000000E+00  0.00000000000E+00  0.59062854949E+03  0.59062854949E+03  0.00000000000E+00 0. -1.
         21   -1    0    0  501  502 -0.00000000000E+00 -0.00000000000E+00 -0.92196263455E+02  0.92196263455E+02  0.00000000000E+00 0. -1.
      99926    2    1    2    0    0 -0.71054273576E-14  0.00000000000E+00  0.49843228603E+03  0.68282481294E+03  0.46670652600E+03 0.  0.
      99925    2    3    3    0    0 -0.53581035498E+02 -0.85846240071E+01  0.14763252336E+03  0.30645716725E+03  0.26301332717E+03 0.  0.
         25    1    3    3    0    0  0.53581035498E+02  0.85846240071E+01  0.35079976267E+03  0.37636764569E+03  0.12509000000E+03 0.  0.
         25    1    4    4    0    0  0.10792042017E+02  0.12733854014E+02  0.72787715468E+02  0.14568520457E+03  0.12509000000E+03 0.  0.
         25    1    4    4    0    0 -0.64373077515E+02 -0.21318478021E+02  0.74844807896E+02  0.16077196268E+03  0.12509000000E+03 0.  0.
<mgrwt>
<rscale>  2 0.46670653E+03</rscale>
<asrwt>0</asrwt>
<pdfrwt beam="1">  1       21 0.86857138E-01 0.46670653E+03</pdfrwt>
<pdfrwt beam="2">  1       21 0.13558274E-01 0.46670653E+03</pdfrwt>
<totfact> 0.49152497E+04</totfact>
</mgrwt>
</event>
<event>
 7    0  0.4766352E-002  0.4524950E+03  0.7546771E-02  0.1026981E+00
         21   -1    0    0  502  501  0.00000000000E+00  0.00000000000E+00  0.41160942149E+03  0.41160942149E+03  0.00000000000E+00 0.  1.
         21   -1    0    0  501  502 -0.00000000000E+00 -0.00000000000E+00 -0.12436043273E+03  0.12436043273E+03  0.00000000000E+00 0.  1.
      99926    2    1    2    0    0  0.00000000000E+00  0.00000000000E+00  0.28724898877E+03  0.53596985422E+03  0.45249497575E+03 0.  0.
      99925    2    3    3    0    0 -0.50425873199E+02 -0.79364551859E+02  0.11177305226E+03  0.30085113278E+03  0.26301461576E+03 0.  0.
         25    1    4    4    0    0 -0.27645740116E+02 -0.94562903257E+01  0.22283880971E+02  0.13037556452E+03  0.12509000000E+03 0.  0.
         25    1    3    3    0    0  0.50425873199E+02  0.79364551859E+02  0.17547593650E+03  0.23511872144E+03  0.12509000000E+03 0.  0.
         25    1    4    4    0    0 -0.22780133083E+02 -0.69908261533E+02  0.89489171294E+02  0.17047556826E+03  0.12509000000E+03 0.  0.
<mgrwt>
<rscale>  2 0.45249498E+03</rscale>
<asrwt>0</asrwt>
<pdfrwt beam="1">  1       21 0.60530797E-01 0.45249498E+03</pdfrwt>
<pdfrwt beam="2">  1       21 0.18288299E-01 0.45249498E+03</pdfrwt>
<totfact> 0.64064014E+04</totfact>
</mgrwt>
</event>
<event>
 7    0  0.4766352E-002  0.4394719E+03  0.7546771E-02  0.1030909E+00
         21   -1    0    0  502  501  0.00000000000E+00  0.00000000000E+00  0.27226791214E+03  0.27226791214E+03  0.00000000000E+00 0.  1.
         21   -1    0    0  501  502 -0.00000000000E+00 -0.00000000000E+00 -0.17733962217E+03  0.17733962217E+03  0.00000000000E+00 0.  1.
      99926    2    1    2    0    0  0.00000000000E+00  0.00000000000E+00  0.94928289976E+02  0.44960753431E+03  0.43947190430E+03 0.  0.
      99925    2    3    3    0    0 -0.86496982936E+02  0.39748109822E+02  0.37257272633E+02  0.28217069657E+03  0.26300296072E+03 0.  0.
         25    1    4    4    0    0 -0.29490510220E+02  0.27818962046E+02  0.55993003503E+02  0.14292064016E+03  0.12509000000E+03 0.  0.
         25    1    3    3    0    0  0.86496982936E+02 -0.39748109822E+02  0.57671017344E+02  0.16743683774E+03  0.12509000000E+03 0.  0.
         25    1    4    4    0    0 -0.57006472716E+02  0.11929147776E+02 -0.18735730870E+02  0.13925005641E+03  0.12509000000E+03 0.  0.
<mgrwt>
<rscale>  2 0.43947190E+03</rscale>
<asrwt>0</asrwt>
<pdfrwt beam="1">  1       21 0.40039399E-01 0.43947190E+03</pdfrwt>
<pdfrwt beam="2">  1       21 0.26079356E-01 0.43947190E+03</pdfrwt>
<totfact> 0.78177093E+04</totfact>
</mgrwt>
</event>
<event>
 7    0  0.4766352E-002  0.4491610E+03  0.7546771E-02  0.1027973E+00
         21   -1    0    0  502  501  0.00000000000E+00  0.00000000000E+00  0.21589194015E+03  0.21589194015E+03  0.00000000000E+00 0.  1.
         21   -1    0    0  501  502 -0.00000000000E+00 -0.00000000000E+00 -0.23361873316E+03  0.23361873316E+03  0.00000000000E+00 0.  1.
      99926    2    1    2    0    0  0.00000000000E+00  0.00000000000E+00 -0.17726793009E+02  0.44951067331E+03  0.44916100257E+03 0.  0.
      99925    2    3    3    0    0 -0.31113052143E+02  0.64577955386E+02  0.69155888866E+02  0.28118229529E+03  0.26294982770E+03 0.  0.
         25    1    4    4    0    0  0.22074055102E+02  0.18402902567E+02  0.42265453375E+02  0.13512885473E+03  0.12509000000E+03 0.  0.
         25    1    4    4    0    0 -0.53187107244E+02  0.46175052819E+02  0.26890435490E+02  0.14605344056E+03  0.12509000000E+03 0.  0.
         25    1    3    3    0    0  0.31113052143E+02 -0.64577955386E+02 -0.86882681875E+02  0.16832837802E+03  0.12509000000E+03 0.  0.
<mgrwt>
<rscale>  2 0.44916100E+03</rscale>
<asrwt>0</asrwt>
<pdfrwt beam="1">  1       21 0.31748815E-01 0.44916100E+03</pdfrwt>
<pdfrwt beam="2">  1       21 0.34355696E-01 0.44916100E+03</pdfrwt>
<totfact> 0.72258028E+04</totfact>
</mgrwt>
</event>
<event>
 7    0  0.4766352E-002  0.4625303E+03  0.7546771E-02  0.1024050E+00
         21   -1    0    0  502  501  0.00000000000E+00  0.00000000000E+00  0.35153822799E+03  0.35153822799E+03  0.00000000000E+00 0. -1.
         21   -1    0    0  501  502 -0.00000000000E+00 -0.00000000000E+00 -0.15214152950E+03  0.15214152950E+03  0.00000000000E+00 0. -1.
      99926    2    1    2    0    0  0.00000000000E+00  0.00000000000E+00  0.19939669848E+03  0.50367975749E+03  0.46253027440E+03 0.  0.
      99925    2    3    3    0    0 -0.11048570776E+03  0.46778617647E+02  0.12697860662E+03  0.31583083197E+03  0.26311635677E+03 0.  0.
         25    1    4    4    0    0 -0.27207203146E+02 -0.10275781314E+02  0.54943969060E+02  0.13968597432E+03  0.12509000000E+03 0.  0.
         25    1    4    4    0    0 -0.83278504614E+02  0.57054398960E+02  0.72034637556E+02  0.17614485766E+03  0.12509000000E+03 0.  0.
         25    1    3    3    0    0  0.11048570776E+03 -0.46778617647E+02  0.72418091866E+02  0.18784892552E+03  0.12509000000E+03 0.  0.
<mgrwt>
<rscale>  2 0.46253027E+03</rscale>
<asrwt>0</asrwt>
<pdfrwt beam="1">  1       21 0.51696798E-01 0.46253027E+03</pdfrwt>
<pdfrwt beam="2">  1       21 0.22373754E-01 0.46253027E+03</pdfrwt>
<totfact> 0.61267838E+04</totfact>
</mgrwt>
</event>
<event>
 7    0  0.4766352E-002  0.4656091E+03  0.7546771E-02  0.1023167E+00
         21   -1    0    0  502  501  0.00000000000E+00  0.00000000000E+00  0.76136907222E+03  0.76136907222E+03  0.00000000000E+00 0.  1.
         21   -1    0    0  501  502 -0.00000000000E+00 -0.00000000000E+00 -0.71184876326E+02  0.71184876326E+02  0.00000000000E+00 0.  1.
      99926    2    1    2    0    0  0.00000000000E+00  0.00000000000E+00  0.69018419589E+03  0.83255394855E+03  0.46560912038E+03 0.  0.
      99925    2    3    3    0    0 -0.66675243758E+02 -0.67042382720E+02  0.28912011779E+03  0.40192629958E+03  0.26270523134E+03 0.  0.
         25    1    3    3    0    0  0.66675243758E+02  0.67042382720E+02  0.40106407810E+03  0.43062764897E+03  0.12509000000E+03 0.  0.
         25    1    4    4    0    0 -0.40160725923E+02 -0.18899531905E+02  0.89735052645E+02  0.16021848828E+03  0.12509000000E+03 0.  0.
         25    1    4    4    0    0 -0.26514517835E+02 -0.48142850815E+02  0.19938506515E+03  0.24170781130E+03  0.12509000000E+03 0.  0.
<mgrwt>
<rscale>  2 0.46560912E+03</rscale>
<asrwt>0</asrwt>
<pdfrwt beam="1">  1       21 0.11196604E+00 0.46560912E+03</pdfrwt>
<pdfrwt beam="2">  1       21 0.10468365E-01 0.46560912E+03</pdfrwt>
<totfact> 0.42574144E+04</totfact>
</mgrwt>
</event>
<event>
 7    0  0.4766352E-002  0.4506877E+03  0.7546771E-02  0.1027517E+00
         21   -1    0    0  502  501  0.00000000000E+00  0.00000000000E+00  0.61353773113E+02  0.61353773113E+02  0.00000000000E+00 0.  1.
         21   -1    0    0  501  502 -0.00000000000E+00 -0.00000000000E+00 -0.82765636234E+03  0.82765636234E+03  0.00000000000E+00 0.  1.
      99926    2    1    2    0    0  0.00000000000E+00 -0.17763568394E-14 -0.76630258923E+03  0.88901013546E+03  0.45068765535E+03 0.  0.
      99925    2    3    3    0    0  0.83740728532E+02  0.83762335332E+01 -0.62111242085E+03  0.67970088101E+03  0.26292580209E+03 0.  0.
         25    1    3    3    0    0 -0.83740728532E+02 -0.83762335332E+01 -0.14519016838E+03  0.20930925445E+03  0.12509000000E+03 0.  0.
         25    1    4    4    0    0  0.84744968460E+01  0.27841723210E+02 -0.27217931763E+03  0.30095858135E+03  0.12509000000E+03 0.  0.
         25    1    4    4    0    0  0.75266231686E+02 -0.19465489677E+02 -0.34893310322E+03  0.37874229965E+03  0.12509000000E+03 0.  0.
<mgrwt>
<rscale>  2 0.45068766E+03</rscale>
<asrwt>0</asrwt>
<pdfrwt beam="1">  1       21 0.90226136E-02 0.45068766E+03</pdfrwt>
<pdfrwt beam="2">  1       21 0.12171417E+00 0.45068766E+03</pdfrwt>
<totfact> 0.45220063E+04</totfact>
</mgrwt>
</event>
<event>
 7    0  0.4766352E-002  0.4538841E+03  0.7546771E-02  0.1026570E+00
         21   -1    0    0  502  501  0.00000000000E+00  0.00000000000E+00  0.55617912430E+03  0.55617912430E+03  0.00000000000E+00 0. -1.
         21   -1    0    0  501  502 -0.00000000000E+00 -0.00000000000E+00 -0.92600919022E+02  0.92600919022E+02  0.00000000000E+00 0. -1.
      99926    2    1    2    0    0  0.00000000000E+00  0.00000000000E+00  0.46357820528E+03  0.64878004333E+03  0.45388411760E+03 0.  0.
      99925    2    3    3    0    0  0.10089647698E+03 -0.33554703807E+02  0.24150609947E+03  0.37261062884E+03  0.26307312184E+03 0.  0.
         25    1    3    3    0    0 -0.10089647698E+03  0.33554703807E+02  0.22207210582E+03  0.27616941448E+03  0.12509000000E+03 0.  0.
         25    1    4    4    0    0  0.87619321777E+02 -0.19527621651E+02  0.10446920514E+03  0.18606395803E+03  0.12509000000E+03 0.  0.
         25    1    4    4    0    0  0.13277155203E+02 -0.14027082156E+02  0.13703689432E+03  0.18654667081E+03  0.12509000000E+03 0.  0.
<mgrwt>
<rscale>  2 0.45388412E+03</rscale>
<asrwt>0</asrwt>
<pdfrwt beam="1">  1       21 0.81791046E-01 0.45388412E+03</pdfrwt>
<pdfrwt beam="2">  1       21 0.13617782E-01 0.45388412E+03</pdfrwt>
<totfact> 0.56265522E+04</totfact>
</mgrwt>
</event>
<event>
 7    0  0.4766352E-002  0.4426190E+03  0.7546771E-02  0.1029946E+00
         21   -1    0    0  502  501  0.00000000000E+00  0.00000000000E+00  0.16379341667E+03  0.16379341667E+03  0.00000000000E+00 0.  1.
         21   -1    0    0  501  502 -0.00000000000E+00 -0.00000000000E+00 -0.29902233500E+03  0.29902233500E+03  0.00000000000E+00 0.  1.
      99926    2    1    2    0    0 -0.14210854715E-13  0.35527136788E-14 -0.13522891833E+03  0.46281575166E+03  0.44261897794E+03 0.  0.
      99925    2    3    3    0    0 -0.95432284788E+02  0.19089265585E+02 -0.56980480520E+02  0.28606155182E+03  0.26289297296E+03 0.  0.
         25    1    4    4    0    0 -0.87208385301E+02  0.11581183660E+02 -0.47430464835E+02  0.16011428224E+03  0.12509000000E+03 0.  0.
         25    1    3    3    0    0  0.95432284788E+02 -0.19089265585E+02 -0.78248437810E+02  0.17675419984E+03  0.12509000000E+03 0.  0.
         25    1    4    4    0    0 -0.82238994871E+01  0.75080819247E+01 -0.95500156847E+01  0.12594726959E+03  0.12509000000E+03 0.  0.
<mgrwt>
<rscale>  2 0.44261898E+03</rscale>
<asrwt>0</asrwt>
<pdfrwt beam="1">  1       21 0.24087267E-01 0.44261898E+03</pdfrwt>
<pdfrwt beam="2">  1       21 0.43973872E-01 0.44261898E+03</pdfrwt>
<totfact> 0.75082346E+04</totfact>
</mgrwt>
</event>
<event>
 7    0  0.4766352E-002  0.4596019E+03  0.7546771E-02  0.1024897E+00
         21   -1    0    0  502  501  0.00000000000E+00  0.00000000000E+00  0.10815219444E+03  0.10815219444E+03  0.00000000000E+00 0.  1.
         21   -1    0    0  501  502 -0.00000000000E+00 -0.00000000000E+00 -0.48827932152E+03  0.48827932152E+03  0.00000000000E+00 0.  1.
      99926    2    1    2    0    0  0.00000000000E+00  0.14210854715E-13 -0.38012712708E+03  0.59643151596E+03  0.45960191523E+03 0.  0.
      99925    2    3    3    0    0 -0.41042175781E+02 -0.11001239584E+03 -0.23790592305E+03  0.37358276365E+03  0.26301647408E+03 0.  0.
         25    1    4    4    0    0 -0.32363517619E+01 -0.91555338194E+02 -0.14403862866E+03  0.21163054735E+03  0.12509000000E+03 0.  0.
         25    1    4    4    0    0 -0.37805824019E+02 -0.18457057647E+02 -0.93867294392E+02  0.16195221630E+03  0.12509000000E+03 0.  0.
         25    1    3    3    0    0  0.41042175781E+02  0.11001239584E+03 -0.14222120403E+03  0.22284875231E+03  0.12509000000E+03 0.  0.
<mgrwt>
<rscale>  2 0.45960192E+03</rscale>
<asrwt>0</asrwt>
<pdfrwt beam="1">  1       21 0.15904734E-01 0.45960192E+03</pdfrwt>
<pdfrwt beam="2">  1       21 0.71805783E-01 0.45960192E+03</pdfrwt>
<totfact> 0.56804383E+04</totfact>
</mgrwt>
</event>
<event>
 7    0  0.4766352E-002  0.4358876E+03  0.7546771E-02  0.1032016E+00
         21   -1    0    0  502  501  0.00000000000E+00  0.00000000000E+00  0.29908512598E+02  0.29908512598E+02  0.00000000000E+00 0. -1.
         21   -1    0    0  501  502 -0.00000000000E+00 -0.00000000000E+00 -0.15881600553E+04  0.15881600553E+04  0.00000000000E+00 0. -1.
      99926    2    1    2    0    0  0.00000000000E+00  0.44408920985E-15 -0.15582515427E+04  0.16180685679E+04  0.43588762323E+03 0.  0.
      99925    2    3    3    0    0 -0.94126735988E+02 -0.31882772336E+01 -0.99831635767E+03  0.10366522566E+04  0.26294931740E+03 0.  0.
         25    1    3    3    0    0  0.94126735988E+02  0.31882772336E+01 -0.55993518499E+03  0.58141631129E+03  0.12509000000E+03 0.  0.
         25    1    4    4    0    0 -0.26894064951E+02  0.13202669001E+02 -0.35337289516E+03  0.37605519852E+03  0.12509000000E+03 0.  0.
         25    1    4    4    0    0 -0.67232671038E+02 -0.16390946234E+02 -0.64494346251E+03  0.66059705806E+03  0.12509000000E+03 0.  0.
<mgrwt>
<rscale>  2 0.43588762E+03</rscale>
<asrwt>0</asrwt>
<pdfrwt beam="1">  1       21 0.43983093E-02 0.43588762E+03</pdfrwt>
<pdfrwt beam="2">  1       21 0.23355302E+00 0.43588762E+03</pdfrwt>
<totfact> 0.24457878E+04</totfact>
</mgrwt>
</event>
<event>
 7    0  0.4766352E-002  0.4628844E+03  0.7546771E-02  0.1023948E+00
         21   -1    0    0  502  501  0.00000000000E+00  0.00000000000E+00  0.35283251167E+03  0.35283251167E+03  0.00000000000E+00 0.  1.
         21   -1    0    0  501  502 -0.00000000000E+00 -0.00000000000E+00 -0.15181562277E+03  0.15181562277E+03  0.00000000000E+00 0.  1.
      99926    2    1    2    0    0 -0.88817841970E-15  0.00000000000E+00  0.20101688890E+03  0.50464813444E+03  0.46288438078E+03 0.  0.
      99925    2    3    3    0    0  0.74340136104E+01 -0.55708776471E+02  0.24145465124E+03  0.36167452479E+03  0.26334270626E+03 0.  0.
         25    1    4    4    0    0  0.30609073790E+02 -0.83488602329E+01  0.84955684021E+02  0.15450435338E+03  0.12509000000E+03 0.  0.
         25    1    3    3    0    0 -0.74340136104E+01  0.55708776471E+02 -0.40437762344E+02  0.14297360965E+03  0.12509000000E+03 0.  0.
         25    1    4    4    0    0 -0.23175060179E+02 -0.47359916238E+02  0.15649896722E+03  0.20717017141E+03  0.12509000000E+03 0.  0.
<mgrwt>
<rscale>  2 0.46288438E+03</rscale>
<asrwt>0</asrwt>
<pdfrwt beam="1">  1       21 0.51887134E-01 0.46288438E+03</pdfrwt>
<pdfrwt beam="2">  1       21 0.22325827E-01 0.46288438E+03</pdfrwt>
<totfact> 0.61034999E+04</totfact>
</mgrwt>
</event>
<event>
 7    0  0.4766352E-002  0.4604107E+03  0.7546771E-02  0.1024662E+00
         21   -1    0    0  502  501  0.00000000000E+00  0.00000000000E+00  0.97275970656E+02  0.97275970656E+02  0.00000000000E+00 0. -1.
         21   -1    0    0  501  502 -0.00000000000E+00 -0.00000000000E+00 -0.54478511444E+03  0.54478511444E+03  0.00000000000E+00 0. -1.
      99926    2    1    2    0    0  0.00000000000E+00  0.00000000000E+00 -0.44750914378E+03  0.64206108510E+03  0.46041068974E+03 0.  0.
      99925    2    3    3    0    0 -0.62760296632E+02  0.99116754361E+02 -0.26273379452E+03  0.38996502478E+03  0.26321224885E+03 0.  0.
         25    1    4    4    0    0 -0.86822466771E+01  0.79014026974E+02 -0.11201279325E+03  0.18577667189E+03  0.12509000000E+03 0.  0.
         25    1    4    4    0    0 -0.54078049955E+02  0.20102727387E+02 -0.15072100127E+03  0.20418835290E+03  0.12509000000E+03 0.  0.
         25    1    3    3    0    0  0.62760296632E+02 -0.99116754361E+02 -0.18477534927E+03  0.25209606031E+03  0.12509000000E+03 0.  0.
<mgrwt>
<rscale>  2 0.46041069E+03</rscale>
<asrwt>0</asrwt>
<pdfrwt beam="1">  1       21 0.14305290E-01 0.46041069E+03</pdfrwt>
<pdfrwt beam="2">  1       21 0.80115457E-01 0.46041069E+03</pdfrwt>
<totfact> 0.53825861E+04</totfact>
</mgrwt>
</event>
<event>
 7    0  0.4766352E-002  0.4541849E+03  0.7546771E-02  0.1026481E+00
         21   -1    0    0  502  501  0.00000000000E+00  0.00000000000E+00  0.40120678297E+03  0.40120678297E+03  0.00000000000E+00 0.  1.
         21   -1    0    0  501  502 -0.00000000000E+00 -0.00000000000E+00 -0.12853962863E+03  0.12853962863E+03  0.00000000000E+00 0.  1.
      99926    2    1    2    0    0  0.00000000000E+00  0.00000000000E+00  0.27266715434E+03  0.52974641160E+03  0.45418485614E+03 0.  0.
      99925    2    3    3    0    0  0.11033533819E+03  0.10208843299E+02  0.14941007657E+03  0.32209785597E+03  0.26295541543E+03 0.  0.
         25    1    3    3    0    0 -0.11033533819E+03 -0.10208843299E+02  0.12325707777E+03  0.20764855563E+03  0.12509000000E+03 0.  0.
         25    1    4    4    0    0  0.49796943493E+02 -0.31962973016E+02  0.55160647801E+02  0.14896836037E+03  0.12509000000E+03 0.  0.
         25    1    4    4    0    0  0.60538394695E+02  0.42171816315E+02  0.94249428765E+02  0.17312949560E+03  0.12509000000E+03 0.  0.
<mgrwt>
<rscale>  2 0.45418486E+03</rscale>
<asrwt>0</asrwt>
<pdfrwt beam="1">  1       21 0.59000997E-01 0.45418486E+03</pdfrwt>
<pdfrwt beam="2">  1       21 0.18902887E-01 0.45418486E+03</pdfrwt>
<totfact> 0.63633828E+04</totfact>
</mgrwt>
</event>
<event>
 7    0  0.4766352E-002  0.4558958E+03  0.7546771E-02  0.1025978E+00
         21   -1    0    0  502  501  0.00000000000E+00  0.00000000000E+00  0.53092864965E+02  0.53092864965E+02  0.00000000000E+00 0.  1.
         21   -1    0    0  501  502 -0.00000000000E+00 -0.00000000000E+00 -0.97866720392E+03  0.97866720392E+03  0.00000000000E+00 0.  1.
      99926    2    1    2    0    0  0.00000000000E+00  0.00000000000E+00 -0.92557433896E+03  0.10317600689E+04  0.45589580258E+03 0.  0.
      99925    2    3    3    0    0  0.51597622282E+02 -0.61978510660E+02 -0.76495287517E+03  0.81278424114E+03  0.26260554260E+03 0.  0.
         25    1    4    4    0    0  0.62067753110E+02 -0.42088036400E+02 -0.45435795542E+03  0.47719227627E+03  0.12509000000E+03 0.  0.
         25    1    4    4    0    0 -0.10470130829E+02 -0.19890474260E+02 -0.31059491975E+03  0.33559196486E+03  0.12509000000E+03 0.  0.
         25    1    3    3    0    0 -0.51597622282E+02  0.61978510660E+02 -0.16062146379E+03  0.21897582775E+03  0.12509000000E+03 0.  0.
<mgrwt>
<rscale>  2 0.45589580E+03</rscale>
<asrwt>0</asrwt>
<pdfrwt beam="1">  1       21 0.78077742E-02 0.45589580E+03</pdfrwt>
<pdfrwt beam="2">  1       21 0.14392165E+00 0.45589580E+03</pdfrwt>
<totfact> 0.37689608E+04</totfact>
</mgrwt>
</event>
<event>
 7    0  0.4766352E-002  0.4561721E+03  0.7546771E-02  0.1025897E+00
         21   -1    0    0  502  501  0.00000000000E+00  0.00000000000E+00  0.26648899730E+03  0.26648899730E+03  0.00000000000E+00 0. -1.
         21   -1    0    0  501  502 -0.00000000000E+00 -0.00000000000E+00 -0.19521723737E+03  0.19521723737E+03  0.00000000000E+00 0. -1.
      99926    2    1    2    0    0  0.00000000000E+00  0.00000000000E+00  0.71271759932E+02  0.46170623467E+03  0.45617209841E+03 0.  0.
      99925    2    3    3    0    0 -0.71068512017E+02 -0.21678146016E+02 -0.43170225743E+02  0.27659774864E+03  0.26291057557E+03 0.  0.
         25    1    3    3    0    0  0.71068512017E+02  0.21678146016E+02  0.11444198568E+03  0.18510848603E+03  0.12509000000E+03 0.  0.
         25    1    4    4    0    0 -0.22550588191E+02  0.87895359669E+01 -0.54436149583E+02  0.13855175009E+03  0.12509000000E+03 0.  0.
         25    1    4    4    0    0 -0.48517923826E+02 -0.30467681983E+02  0.11265923840E+02  0.13804599856E+03  0.12509000000E+03 0.  0.
<mgrwt>
<rscale>  2 0.45617210E+03</rscale>
<asrwt>0</asrwt>
<pdfrwt beam="1">  1       21 0.39189558E-01 0.45617210E+03</pdfrwt>
<pdfrwt beam="2">  1       21 0.28708417E-01 0.45617210E+03</pdfrwt>
<totfact> 0.67423962E+04</totfact>
</mgrwt>
</event>
<event>
 7    0  0.4766352E-002  0.4358530E+03  0.7546771E-02  0.1032027E+00
         21   -1    0    0  502  501  0.00000000000E+00  0.00000000000E+00  0.48353573252E+03  0.48353573252E+03  0.00000000000E+00 0. -1.
         21   -1    0    0  501  502 -0.00000000000E+00 -0.00000000000E+00 -0.98218114167E+02  0.98218114167E+02  0.00000000000E+00 0. -1.
      99926    2    1    2    0    0  0.00000000000E+00  0.00000000000E+00  0.38531761835E+03  0.58175384669E+03  0.43585303845E+03 0.  0.
      99925    2    3    3    0    0  0.66519297949E+02 -0.53745814950E+02  0.19832919172E+03  0.34107644970E+03  0.26397963298E+03 0.  0.
         25    1    3    3    0    0 -0.66519297949E+02  0.53745814950E+02  0.18698842664E+03  0.24067739699E+03  0.12509000000E+03 0.  0.
         25    1    4    4    0    0  0.33150827251E+01 -0.38732901545E+02  0.61783562194E+02  0.14483074291E+03  0.12509000000E+03 0.  0.
         25    1    4    4    0    0  0.63204215224E+02 -0.15012913404E+02  0.13654562952E+03  0.19624570679E+03  0.12509000000E+03 0.  0.
<mgrwt>
<rscale>  2 0.43585304E+03</rscale>
<asrwt>0</asrwt>
<pdfrwt beam="1">  1       21 0.71108195E-01 0.43585304E+03</pdfrwt>
<pdfrwt beam="2">  1       21 0.14443841E-01 0.43585304E+03</pdfrwt>
<totfact> 0.69794525E+04</totfact>
</mgrwt>
</event>
<event>
 7    0  0.4766352E-002  0.4320916E+03  0.7546771E-02  0.1033201E+00
         21   -1    0    0  502  501  0.00000000000E+00  0.00000000000E+00  0.68802558361E+03  0.68802558361E+03  0.00000000000E+00 0. -1.
         21   -1    0    0  501  502 -0.00000000000E+00 -0.00000000000E+00 -0.67840205546E+02  0.67840205546E+02  0.00000000000E+00 0. -1.
      99926    2    1    2    0    0  0.71054273576E-14  0.00000000000E+00  0.62018537806E+03  0.75586578916E+03  0.43209164312E+03 0.  0.
      99925    2    3    3    0    0 -0.55832777879E+02  0.47539971104E+02  0.30785669259E+03  0.41151994004E+03  0.26305050833E+03 0.  0.
         25    1    3    3    0    0  0.55832777879E+02 -0.47539971104E+02  0.31232868547E+03  0.34434584912E+03  0.12509000000E+03 0.  0.
         25    1    4    4    0    0 -0.12578839675E+02  0.29717730588E+02  0.20764631264E+03  0.24455238697E+03  0.12509000000E+03 0.  0.
         25    1    4    4    0    0 -0.43253938204E+02  0.17822240516E+02  0.10021037995E+03  0.16696755307E+03  0.12509000000E+03 0.  0.
<mgrwt>
<rscale>  2 0.43209164E+03</rscale>
<asrwt>0</asrwt>
<pdfrwt beam="1">  1       21 0.10118023E+00 0.43209164E+03</pdfrwt>
<pdfrwt beam="2">  1       21 0.99765012E-02 0.43209164E+03</pdfrwt>
<totfact> 0.60071464E+04</totfact>
</mgrwt>
</event>
<event>
 7    0  0.4766352E-002  0.4548178E+03  0.7546771E-02  0.1026295E+00
         21   -1    0    0  502  501  0.00000000000E+00  0.00000000000E+00  0.19993769822E+03  0.19993769822E+03  0.00000000000E+00 0.  1.
         21   -1    0    0  501  502 -0.00000000000E+00 -0.00000000000E+00 -0.25865455577E+03  0.25865455577E+03  0.00000000000E+00 0.  1.
      99926    2    1    2    0    0  0.00000000000E+00  0.00000000000E+00 -0.58716857552E+02  0.45859225399E+03  0.45481775037E+03 0.  0.
      99925    2    3    3    0    0  0.10974340327E+02 -0.46368823418E+02 -0.14029893804E+03  0.30183241255E+03  0.26296104144E+03 0.  0.
         25    1    4    4    0    0  0.22370674765E+02 -0.53279397585E+02 -0.48411293407E+02  0.14604897372E+03  0.12509000000E+03 0.  0.
         25    1    3    3    0    0 -0.10974340327E+02  0.46368823418E+02  0.81582080493E+02  0.15675984144E+03  0.12509000000E+03 0.  0.
         25    1    4    4    0    0 -0.11396334438E+02  0.69105741669E+01 -0.91887644637E+02  0.15578343882E+03  0.12509000000E+03 0.  0.
<mgrwt>
<rscale>  2 0.45481775E+03</rscale>
<asrwt>0</asrwt>
<pdfrwt beam="1">  1       21 0.29402603E-01 0.45481775E+03</pdfrwt>
<pdfrwt beam="2">  1       21 0.38037434E-01 0.45481775E+03</pdfrwt>
<totfact> 0.68382600E+04</totfact>
</mgrwt>
</event>
<event>
 7    0  0.4766352E-002  0.4562436E+03  0.7546771E-02  0.1025876E+00
         21   -1    0    0  502  501  0.00000000000E+00  0.00000000000E+00  0.77258584155E+03  0.77258584155E+03  0.00000000000E+00 0.  1.
         21   -1    0    0  501  502 -0.00000000000E+00 -0.00000000000E+00 -0.67357634361E+02  0.67357634361E+02  0.00000000000E+00 0.  1.
      99926    2    1    2    0    0  0.00000000000E+00  0.71054273576E-14  0.70522820719E+03  0.83994347591E+03  0.45624359558E+03 0.  0.
      99925    2    3    3    0    0  0.91075401772E+02  0.59325546157E+02  0.37951557215E+03  0.47449788768E+03  0.26325259101E+03 0.  0.
         25    1    4    4    0    0  0.68768152273E+02  0.66513755479E+02  0.20503530434E+03  0.25853456744E+03  0.12509000000E+03 0.  0.
         25    1    4    4    0    0  0.22307249498E+02 -0.71882093220E+01  0.17448026781E+03  0.21596332024E+03  0.12509000000E+03 0.  0.
         25    1    3    3    0    0 -0.91075401772E+02 -0.59325546157E+02  0.32571263503E+03  0.36544558823E+03  0.12509000000E+03 0.  0.
<mgrwt>
<rscale>  2 0.45624360E+03</rscale>
<asrwt>0</asrwt>
<pdfrwt beam="1">  1       21 0.11361556E+00 0.45624360E+03</pdfrwt>
<pdfrwt beam="2">  1       21 0.99055349E-02 0.45624360E+03</pdfrwt>
<totfact> 0.45447613E+04</totfact>
</mgrwt>
</event>
<event>
 7    0  0.4766352E-002  0.4557676E+03  0.7546771E-02  0.1026016E+00
         21   -1    0    0  502  501  0.00000000000E+00  0.00000000000E+00  0.12712223364E+03  0.12712223364E+03  0.00000000000E+00 0. -1.
         21   -1    0    0  501  502 -0.00000000000E+00 -0.00000000000E+00 -0.40851246426E+03  0.40851246426E+03  0.00000000000E+00 0. -1.
      99926    2    1    2    0    0  0.00000000000E+00  0.00000000000E+00 -0.28139023062E+03  0.53563469790E+03  0.45576755886E+03 0.  0.
      99925    2    3    3    0    0 -0.49977476644E+02  0.99049761450E+02 -0.20668042771E+03  0.35250177851E+03  0.26311993698E+03 0.  0.
         25    1    4    4    0    0 -0.46424128085E+02  0.47520716391E+02 -0.14842837144E+03  0.20516312462E+03  0.12509000000E+03 0.  0.
         25    1    4    4    0    0 -0.35533485591E+01  0.51529045059E+02 -0.58252056272E+02  0.14733865389E+03  0.12509000000E+03 0.  0.
         25    1    3    3    0    0  0.49977476644E+02 -0.99049761450E+02 -0.74709802915E+02  0.18313291940E+03  0.12509000000E+03 0.  0.
<mgrwt>
<rscale>  2 0.45576756E+03</rscale>
<asrwt>0</asrwt>
<pdfrwt beam="1">  1       21 0.18694446E-01 0.45576756E+03</pdfrwt>
<pdfrwt beam="2">  1       21 0.60075362E-01 0.45576756E+03</pdfrwt>
<totfact> 0.62445650E+04</totfact>
</mgrwt>
</event>
<event>
 7    0  0.4766352E-002  0.4533651E+03  0.7546771E-02  0.1026723E+00
         21   -1    0    0  502  501  0.00000000000E+00  0.00000000000E+00  0.55269614883E+02  0.55269614883E+02  0.00000000000E+00 0. -1.
         21   -1    0    0  501  502 -0.00000000000E+00 -0.00000000000E+00 -0.92971480690E+03  0.92971480690E+03  0.00000000000E+00 0. -1.
      99926    2    1    2    0    0  0.00000000000E+00  0.00000000000E+00 -0.87444519201E+03  0.98498442178E+03  0.45336510377E+03 0.  0.
      99925    2    3    3    0    0  0.58671120681E+02 -0.46745511335E+02 -0.73138863358E+03  0.78068040752E+03  0.26249785165E+03 0.  0.
         25    1    4    4    0    0  0.59612827888E+02 -0.19884603621E+02 -0.45635801357E+03  0.47734602895E+03  0.12509000000E+03 0.  0.
         25    1    3    3    0    0 -0.58671120681E+02  0.46745511335E+02 -0.14305655843E+03  0.20430401426E+03  0.12509000000E+03 0.  0.
         25    1    4    4    0    0 -0.94170720727E+00 -0.26860907714E+02 -0.27503062001E+03  0.30333437857E+03  0.12509000000E+03 0.  0.
<mgrwt>
<rscale>  2 0.45336510E+03</rscale>
<asrwt>0</asrwt>
<pdfrwt beam="1">  1       21 0.81278848E-02 0.45336510E+03</pdfrwt>
<pdfrwt beam="2">  1       21 0.13672276E+00 0.45336510E+03</pdfrwt>
<totfact> 0.40267543E+04</totfact>
</mgrwt>
</event>
<event>
 7    0  0.4766352E-002  0.4528483E+03  0.7546771E-02  0.1026876E+00
         21   -1    0    0  502  501  0.00000000000E+00  0.00000000000E+00  0.66088283696E+02  0.66088283696E+02  0.00000000000E+00 0. -1.
         21   -1    0    0  501  502 -0.00000000000E+00 -0.00000000000E+00 -0.77574854048E+03  0.77574854048E+03  0.00000000000E+00 0. -1.
      99926    2    1    2    0    0  0.14210854715E-13 -0.71054273576E-14 -0.70966025678E+03  0.84183682418E+03  0.45284827313E+03 0.  0.
      99925    2    3    3    0    0  0.90599708378E+02 -0.41058291753E+02 -0.35543521943E+03  0.45322779743E+03  0.26303450472E+03 0.  0.
         25    1    4    4    0    0  0.31801967929E+02 -0.53908578788E+00 -0.22247666836E+03  0.25720620490E+03  0.12509000000E+03 0.  0.
         25    1    4    4    0    0  0.58797740448E+02 -0.40519205965E+02 -0.13295855108E+03  0.19602159253E+03  0.12509000000E+03 0.  0.
         25    1    3    3    0    0 -0.90599708378E+02  0.41058291753E+02 -0.35422503735E+03  0.38860902674E+03  0.12509000000E+03 0.  0.
<mgrwt>
<rscale>  2 0.45284827E+03</rscale>
<asrwt>0</asrwt>
<pdfrwt beam="1">  1       21 0.97188659E-02 0.45284827E+03</pdfrwt>
<pdfrwt beam="2">  1       21 0.11408066E+00 0.45284827E+03</pdfrwt>
<totfact> 0.46588262E+04</totfact>
</mgrwt>
</event>
<event>
 7    0  0.4766352E-002  0.4055172E+03  0.7546771E-02  0.1041886E+00
         21   -1    0    0  502  501  0.00000000000E+00  0.00000000000E+00  0.23147587174E+03  0.23147587174E+03  0.00000000000E+00 0. -1.
         21   -1    0    0  501  502 -0.00000000000E+00 -0.00000000000E+00 -0.17760400735E+03  0.17760400735E+03  0.00000000000E+00 0. -1.
      99926    2    1    2    0    0  0.00000000000E+00  0.00000000000E+00  0.53871864389E+02  0.40907987908E+03  0.40551716326E+03 0.  0.
      99925    2    3    3    0    0 -0.41769163189E+02  0.36038250998E+02  0.30378319447E+02  0.27036119511E+03  0.26292378174E+03 0.  0.
         25    1    4    4    0    0 -0.15346303090E+02  0.89820102010E+01 -0.24367026442E+02  0.12867573821E+03  0.12509000000E+03 0.  0.
         25    1    3    3    0    0  0.41769163189E+02 -0.36038250998E+02  0.23493544943E+02  0.13871868397E+03  0.12509000000E+03 0.  0.
         25    1    4    4    0    0 -0.26422860099E+02  0.27056240797E+02  0.54745345889E+02  0.14168545691E+03  0.12509000000E+03 0.  0.
<mgrwt>
<rscale>  2 0.40551716E+03</rscale>
<asrwt>0</asrwt>
<pdfrwt beam="1">  1       21 0.34040570E-01 0.40551716E+03</pdfrwt>
<pdfrwt beam="2">  1       21 0.26118236E-01 0.40551716E+03</pdfrwt>
<totfact> 0.10919481E+05</totfact>
</mgrwt>
</event>
<event>
 7    0  0.4766352E-002  0.4492596E+03  0.7546771E-02  0.1027943E+00
         21   -1    0    0  502  501  0.00000000000E+00  0.00000000000E+00  0.16189550616E+03  0.16189550616E+03  0.00000000000E+00 0. -1.
         21   -1    0    0  501  502 -0.00000000000E+00 -0.00000000000E+00 -0.31167356430E+03  0.31167356430E+03  0.00000000000E+00 0. -1.
      99926    2    1    2    0    0 -0.71054273576E-14  0.00000000000E+00 -0.14977805814E+03  0.47356907046E+03  0.44925961069E+03 0.  0.
      99925    2    3    3    0    0 -0.58227246622E+02 -0.90552515292E+02 -0.92854943021E+02  0.29898980649E+03  0.26302603229E+03 0.  0.
         25    1    4    4    0    0 -0.58062101673E+02 -0.78124286002E+02 -0.51665593945E+02  0.16670768852E+03  0.12509000000E+03 0.  0.
         25    1    4    4    0    0 -0.16514494925E+00 -0.12428229290E+02 -0.41189349076E+02  0.13228211797E+03  0.12509000000E+03 0.  0.
         25    1    3    3    0    0  0.58227246622E+02  0.90552515292E+02 -0.56923115118E+02  0.17457926397E+03  0.12509000000E+03 0.  0.
<mgrwt>
<rscale>  2 0.44925961E+03</rscale>
<asrwt>0</asrwt>
<pdfrwt beam="1">  1       21 0.23808163E-01 0.44925961E+03</pdfrwt>
<pdfrwt beam="2">  1       21 0.45834347E-01 0.44925961E+03</pdfrwt>
<totfact> 0.70320812E+04</totfact>
</mgrwt>
</event>
<event>
 7    0  0.4766352E-002  0.4580400E+03  0.7546771E-02  0.1025351E+00
         21   -1    0    0  502  501  0.00000000000E+00  0.00000000000E+00  0.32273483563E+03  0.32273483563E+03  0.00000000000E+00 0. -1.
         21   -1    0    0  501  502 -0.00000000000E+00 -0.00000000000E+00 -0.16251783062E+03  0.16251783062E+03  0.00000000000E+00 0. -1.
      99926    2    1    2    0    0  0.00000000000E+00  0.00000000000E+00  0.16021700502E+03  0.48525266625E+03  0.45804002162E+03 0.  0.
      99925    2    3    3    0    0 -0.85359730825E+01  0.11529403303E+03  0.91161644977E+02  0.30145460386E+03  0.26305675392E+03 0.  0.
         25    1    4    4    0    0 -0.20546856583E+02  0.66948346980E+02  0.85012528856E+02  0.16667001122E+03  0.12509000000E+03 0.  0.
         25    1    4    4    0    0  0.12010883500E+02  0.48345686052E+02  0.61491161211E+01  0.13478459263E+03  0.12509000000E+03 0.  0.
         25    1    3    3    0    0  0.85359730825E+01 -0.11529403303E+03  0.69055360038E+02  0.18379806239E+03  0.12509000000E+03 0.  0.
<mgrwt>
<rscale>  2 0.45804002E+03</rscale>
<asrwt>0</asrwt>
<pdfrwt beam="1">  1       21 0.47461006E-01 0.45804002E+03</pdfrwt>
<pdfrwt beam="2">  1       21 0.23899681E-01 0.45804002E+03</pdfrwt>
<totfact> 0.64743138E+04</totfact>
</mgrwt>
</event>
<event>
 7    0  0.4766352E-002  0.4529680E+03  0.7546771E-02  0.1026841E+00
         21   -1    0    0  502  501  0.00000000000E+00  0.00000000000E+00  0.31574143408E+03  0.31574143408E+03  0.00000000000E+00 0.  1.
         21   -1    0    0  501  502 -0.00000000000E+00 -0.00000000000E+00 -0.16245890368E+03  0.16245890368E+03  0.00000000000E+00 0.  1.
      99926    2    1    2    0    0  0.00000000000E+00  0.00000000000E+00  0.15328253039E+03  0.47820033776E+03  0.45296802195E+03 0.  0.
      99925    2    3    3    0    0 -0.87994165445E+02 -0.67774466035E+02  0.96190646321E+02  0.30144247308E+03  0.26320823076E+03 0.  0.
         25    1    4    4    0    0 -0.45536600565E+02 -0.66180996981E+02  0.23056231586E+02  0.15044136488E+03  0.12509000000E+03 0.  0.
         25    1    3    3    0    0  0.87994165445E+02  0.67774466035E+02  0.57091884072E+02  0.17675786468E+03  0.12509000000E+03 0.  0.
         25    1    4    4    0    0 -0.42457564880E+02 -0.15934690535E+01  0.73134414735E+02  0.15100110820E+03  0.12509000000E+03 0.  0.
<mgrwt>
<rscale>  2 0.45296802E+03</rscale>
<asrwt>0</asrwt>
<pdfrwt beam="1">  1       21 0.46432564E-01 0.45296802E+03</pdfrwt>
<pdfrwt beam="2">  1       21 0.23891015E-01 0.45296802E+03</pdfrwt>
<totfact> 0.67920182E+04</totfact>
</mgrwt>
</event>
<event>
 7    0  0.4766352E-002  0.4358051E+03  0.7546771E-02  0.1032042E+00
         21   -1    0    0  502  501  0.00000000000E+00  0.00000000000E+00  0.82423453493E+03  0.82423453493E+03  0.00000000000E+00 0.  1.
         21   -1    0    0  501  502 -0.00000000000E+00 -0.00000000000E+00 -0.57606802038E+02  0.57606802038E+02  0.00000000000E+00 0.  1.
      99926    2    1    2    0    0  0.00000000000E+00  0.00000000000E+00  0.76662773289E+03  0.88184133697E+03  0.43580507426E+03 0.  0.
      99925    2    3    3    0    0  0.57740906573E+02 -0.33422269457E+02  0.62527860792E+03  0.68164607324E+03  0.26309118431E+03 0.  0.
         25    1    4    4    0    0  0.69136658782E+02 -0.12482455177E+02  0.30840228574E+03  0.34013992301E+03  0.12509000000E+03 0.  0.
         25    1    4    4    0    0 -0.11395752209E+02 -0.20939814280E+02  0.31687632218E+03  0.34150615023E+03  0.12509000000E+03 0.  0.
         25    1    3    3    0    0 -0.57740906573E+02  0.33422269457E+02  0.14134912498E+03  0.20019526373E+03  0.12509000000E+03 0.  0.
<mgrwt>
<rscale>  2 0.43580507E+03</rscale>
<asrwt>0</asrwt>
<pdfrwt beam="1">  1       21 0.12121095E+00 0.43580507E+03</pdfrwt>
<pdfrwt beam="2">  1       21 0.84715890E-02 0.43580507E+03</pdfrwt>
<totfact> 0.51316065E+04</totfact>
</mgrwt>
</event>
<event>
 7    0  0.4766352E-002  0.4585043E+03  0.7546771E-02  0.1025216E+00
         21   -1    0    0  502  501  0.00000000000E+00  0.00000000000E+00  0.45727895483E+03  0.45727895483E+03  0.00000000000E+00 0.  1.
         21   -1    0    0  501  502 -0.00000000000E+00 -0.00000000000E+00 -0.11493323739E+03  0.11493323739E+03  0.00000000000E+00 0.  1.
      99926    2    1    2    0    0  0.00000000000E+00  0.00000000000E+00  0.34234571743E+03  0.57221219222E+03  0.45850431042E+03 0.  0.
      99925    2    3    3    0    0  0.93898896725E+02 -0.44569660819E+02  0.28011514032E+03  0.39807543476E+03  0.26305152052E+03 0.  0.
         25    1    4    4    0    0  0.45496178707E+02  0.12407404312E+02  0.10329081892E+03  0.16893888638E+03  0.12509000000E+03 0.  0.
         25    1    4    4    0    0  0.48402718018E+02 -0.56977065132E+02  0.17682432140E+03  0.22913654837E+03  0.12509000000E+03 0.  0.
         25    1    3    3    0    0 -0.93898896725E+02  0.44569660819E+02  0.62230577116E+02  0.17413675746E+03  0.12509000000E+03 0.  0.
<mgrwt>
<rscale>  2 0.45850431E+03</rscale>
<asrwt>0</asrwt>
<pdfrwt beam="1">  1       21 0.67246904E-01 0.45850431E+03</pdfrwt>
<pdfrwt beam="2">  1       21 0.16901947E-01 0.45850431E+03</pdfrwt>
<totfact> 0.58776421E+04</totfact>
</mgrwt>
</event>
<event>
 7    0  0.4766352E-002  0.4546239E+03  0.7546771E-02  0.1026352E+00
         21   -1    0    0  502  501  0.00000000000E+00  0.00000000000E+00  0.21147450497E+03  0.21147450497E+03  0.00000000000E+00 0.  1.
         21   -1    0    0  501  502 -0.00000000000E+00 -0.00000000000E+00 -0.24433544600E+03  0.24433544600E+03  0.00000000000E+00 0.  1.
      99926    2    1    2    0    0  0.00000000000E+00  0.00000000000E+00 -0.32860941033E+02  0.45580995097E+03  0.45462387747E+03 0.  0.
      99925    2    3    3    0    0 -0.59206658943E+02 -0.49529931881E+02  0.61810402530E+02  0.28097055608E+03  0.26299293699E+03 0.  0.
         25    1    3    3    0    0  0.59206658943E+02  0.49529931881E+02 -0.94671343563E+02  0.17483939490E+03  0.12509000000E+03 0.  0.
         25    1    4    4    0    0 -0.67496733696E+02 -0.39489306213E+02  0.44040875150E+02  0.15395558174E+03  0.12509000000E+03 0.  0.
         25    1    4    4    0    0  0.82900747534E+01 -0.10040625668E+02  0.17769527380E+02  0.12701497434E+03  0.12509000000E+03 0.  0.
<mgrwt>
<rscale>  2 0.45462388E+03</rscale>
<asrwt>0</asrwt>
<pdfrwt beam="1">  1       21 0.31099192E-01 0.45462388E+03</pdfrwt>
<pdfrwt beam="2">  1       21 0.35931683E-01 0.45462388E+03</pdfrwt>
<totfact> 0.68692447E+04</totfact>
</mgrwt>
</event>
<event>
 6    0  0.4766352E-002  0.4595768E+03  0.7546771E-02  0.1024904E+00
         21   -1    0    0  502  501  0.00000000000E+00  0.00000000000E+00  0.23542035544E+03  0.23542035544E+03  0.00000000000E+00 0.  1.
         21   -1    0    0  501  502 -0.00000000000E+00 -0.00000000000E+00 -0.22429114135E+03  0.22429114135E+03  0.00000000000E+00 0.  1.
      99926    2    1    2    0    0  0.00000000000E+00  0.00000000000E+00  0.11129214094E+02  0.45971149679E+03  0.45957676276E+03 0.  0.
         25    1    3    3    0    0 -0.40586652620E+02 -0.73697009078E+02  0.83139238668E+02  0.17215738911E+03  0.12509000000E+03 0.  0.
         25    1    3    3    0    0  0.21589946571E+02 -0.89062033667E+01 -0.35306074618E+02  0.13205859781E+03  0.12509000000E+03 0.  0.
         25    1    3    3    0    0  0.18996706049E+02  0.82603212444E+02 -0.36703949956E+02  0.15549550987E+03  0.12509000000E+03 0.  0.
<mgrwt>
<rscale>  2 0.45957676E+03</rscale>
<asrwt>0</asrwt>
<pdfrwt beam="1">  1       21 0.34620641E-01 0.45957676E+03</pdfrwt>
<pdfrwt beam="2">  1       21 0.32983991E-01 0.45957676E+03</pdfrwt>
<totfact> 0.65767323E+04</totfact>
</mgrwt>
</event>
<event>
 7    0  0.4766352E-002  0.4509664E+03  0.7546771E-02  0.1027434E+00
         21   -1    0    0  502  501  0.00000000000E+00  0.00000000000E+00  0.79525311554E+02  0.79525311554E+02  0.00000000000E+00 0. -1.
         21   -1    0    0  501  502 -0.00000000000E+00 -0.00000000000E+00 -0.63932693236E+03  0.63932693236E+03  0.00000000000E+00 0. -1.
      99926    2    1    2    0    0 -0.17763568394E-14  0.00000000000E+00 -0.55980162080E+03  0.71885224391E+03  0.45096639999E+03 0.  0.
      99925    2    3    3    0    0  0.63838831363E+01 -0.10892721289E+03 -0.34216270240E+03  0.44513688341E+03  0.26299360902E+03 0.  0.
         25    1    3    3    0    0 -0.63838831363E+01  0.10892721289E+03 -0.21763891840E+03  0.27371536050E+03  0.12509000000E+03 0.  0.
         25    1    4    4    0    0  0.26477065234E+02 -0.19060225038E+02 -0.14882296328E+03  0.19712967727E+03  0.12509000000E+03 0.  0.
         25    1    4    4    0    0 -0.20093182097E+02 -0.89866987851E+02 -0.19333973912E+03  0.24800720614E+03  0.12509000000E+03 0.  0.
<mgrwt>
<rscale>  2 0.45096640E+03</rscale>
<asrwt>0</asrwt>
<pdfrwt beam="1">  1       21 0.11694899E-01 0.45096640E+03</pdfrwt>
<pdfrwt beam="2">  1       21 0.94018665E-01 0.45096640E+03</pdfrwt>
<totfact> 0.53570901E+04</totfact>
</mgrwt>
</event>
<event>
 7    0  0.4766352E-002  0.4720951E+03  0.7546771E-02  0.1021331E+00
         21   -1    0    0  502  501  0.00000000000E+00  0.00000000000E+00  0.84788730725E+02  0.84788730725E+02  0.00000000000E+00 0. -1.
         21   -1    0    0  501  502 -0.00000000000E+00 -0.00000000000E+00 -0.65714440113E+03  0.65714440113E+03  0.00000000000E+00 0. -1.
      99926    2    1    2    0    0  0.00000000000E+00  0.00000000000E+00 -0.57235567040E+03  0.74193313185E+03  0.47209507379E+03 0.  0.
      99925    2    3    3    0    0  0.11577346384E+03 -0.21419841592E+02 -0.27352420432E+03  0.39724478310E+03  0.26291752093E+03 0.  0.
         25    1    3    3    0    0 -0.11577346384E+03  0.21419841592E+02 -0.29883146609E+03  0.34468834875E+03  0.12509000000E+03 0.  0.
         25    1    4    4    0    0  0.54884920830E+02 -0.48449810165E+02 -0.15793526154E+03  0.21436136213E+03  0.12509000000E+03 0.  0.
         25    1    4    4    0    0  0.60888543009E+02  0.27029968573E+02 -0.11558894278E+03  0.18288342097E+03  0.12509000000E+03 0.  0.
<mgrwt>
<rscale>  2 0.47209507E+03</rscale>
<asrwt>0</asrwt>
<pdfrwt beam="1">  1       21 0.12468932E-01 0.47209507E+03</pdfrwt>
<pdfrwt beam="2">  1       21 0.96638876E-01 0.47209507E+03</pdfrwt>
<totfact> 0.44408725E+04</totfact>
</mgrwt>
</event>
<event>
 7    0  0.4766352E-002  0.4523887E+03  0.7546771E-02  0.1027012E+00
         21   -1    0    0  502  501  0.00000000000E+00  0.00000000000E+00  0.99059261757E+02  0.99059261757E+02  0.00000000000E+00 0. -1.
         21   -1    0    0  501  502 -0.00000000000E+00 -0.00000000000E+00 -0.51649766117E+03  0.51649766117E+03  0.00000000000E+00 0. -1.
      99926    2    1    2    0    0  0.57731597281E-14  0.00000000000E+00 -0.41743839941E+03  0.61555692292E+03  0.45238866924E+03 0.  0.
      99925    2    3    3    0    0  0.34826810289E+01  0.11053578158E+03 -0.25756636989E+03  0.38439277778E+03  0.26303437919E+03 0.  0.
         25    1    3    3    0    0 -0.34826810289E+01 -0.11053578158E+03 -0.15987202952E+03  0.23116414515E+03  0.12509000000E+03 0.  0.
         25    1    4    4    0    0 -0.37878472312E+02  0.51056978440E+02 -0.13784121309E+03  0.19669596295E+03  0.12509000000E+03 0.  0.
         25    1    4    4    0    0  0.41361153341E+02  0.59478803142E+02 -0.11972515679E+03  0.18769681483E+03  0.12509000000E+03 0.  0.
<mgrwt>
<rscale>  2 0.45238867E+03</rscale>
<asrwt>0</asrwt>
<pdfrwt beam="1">  1       21 0.14567539E-01 0.45238867E+03</pdfrwt>
<pdfrwt beam="2">  1       21 0.75955537E-01 0.45238867E+03</pdfrwt>
<totfact> 0.58936854E+04</totfact>
</mgrwt>
</event>
<event>
 7    0  0.4766352E-002  0.4670353E+03  0.7546771E-02  0.1022760E+00
         21   -1    0    0  502  501  0.00000000000E+00  0.00000000000E+00  0.85830685582E+02  0.85830685582E+02  0.00000000000E+00 0. -1.
         21   -1    0    0  501  502 -0.00000000000E+00 -0.00000000000E+00 -0.63532619016E+03  0.63532619016E+03  0.00000000000E+00 0. -1.
      99926    2    1    2    0    0  0.14210854715E-13  0.71054273576E-14 -0.54949550457E+03  0.72115687574E+03  0.46703525550E+03 0.  0.
      99925    2    3    3    0    0 -0.75608353399E+02 -0.41794298340E+02 -0.47967684929E+03  0.55386808591E+03  0.26309046042E+03 0.  0.
         25    1    3    3    0    0  0.75608353399E+02  0.41794298340E+02 -0.69818655286E+02  0.16728878983E+03  0.12509000000E+03 0.  0.
         25    1    4    4    0    0 -0.21791570231E+02  0.12183317223E+02 -0.26329909307E+03  0.29257003651E+03  0.12509000000E+03 0.  0.
         25    1    4    4    0    0 -0.53816783168E+02 -0.53977615564E+02 -0.21637775622E+03  0.26129804940E+03  0.12509000000E+03 0.  0.
<mgrwt>
<rscale>  2 0.46703526E+03</rscale>
<asrwt>0</asrwt>
<pdfrwt beam="1">  1       21 0.12622160E-01 0.46703526E+03</pdfrwt>
<pdfrwt beam="2">  1       21 0.93430319E-01 0.46703526E+03</pdfrwt>
<totfact> 0.47145281E+04</totfact>
</mgrwt>
</event>
<event>
 7    0  0.4766352E-002  0.4522684E+03  0.7546771E-02  0.1027048E+00
         21   -1    0    0  502  501  0.00000000000E+00  0.00000000000E+00  0.81452275110E+02  0.81452275110E+02  0.00000000000E+00 0. -1.
         21   -1    0    0  501  502 -0.00000000000E+00 -0.00000000000E+00 -0.62781152906E+03  0.62781152906E+03  0.00000000000E+00 0. -1.
      99926    2    1    2    0    0  0.00000000000E+00  0.00000000000E+00 -0.54635925395E+03  0.70926380417E+03  0.45226840430E+03 0.  0.
      99925    2    3    3    0    0  0.64424002172E+02 -0.76547110703E+02 -0.41903520239E+03  0.50464505034E+03  0.26280451628E+03 0.  0.
         25    1    4    4    0    0  0.80969882312E+01 -0.59458933358E+01 -0.21340021103E+03  0.24756428061E+03  0.12509000000E+03 0.  0.
         25    1    3    3    0    0 -0.64424002172E+02  0.76547110703E+02 -0.12732405156E+03  0.20461875383E+03  0.12509000000E+03 0.  0.
         25    1    4    4    0    0  0.56327013941E+02 -0.70601217368E+02 -0.20563499136E+03  0.25708076973E+03  0.12509000000E+03 0.  0.
<mgrwt>
<rscale>  2 0.45226840E+03</rscale>
<asrwt>0</asrwt>
<pdfrwt beam="1">  1       21 0.11978276E-01 0.45226840E+03</pdfrwt>
<pdfrwt beam="2">  1       21 0.92325223E-01 0.45226840E+03</pdfrwt>
<totfact> 0.53544394E+04</totfact>
</mgrwt>
</event>
<event>
 7    0  0.4766352E-002  0.4436989E+03  0.7546771E-02  0.1029618E+00
         21   -1    0    0  502  501  0.00000000000E+00  0.00000000000E+00  0.15203615786E+03  0.15203615786E+03  0.00000000000E+00 0. -1.
         21   -1    0    0  501  502 -0.00000000000E+00 -0.00000000000E+00 -0.32372021780E+03  0.32372021780E+03  0.00000000000E+00 0. -1.
      99926    2    1    2    0    0  0.00000000000E+00  0.00000000000E+00 -0.17168405994E+03  0.47575637567E+03  0.44369889852E+03 0.  0.
      99925    2    3    3    0    0  0.69189929352E+02  0.31360752703E+02 -0.18251084096E+03  0.32900668939E+03  0.26299135245E+03 0.  0.
         25    1    3    3    0    0 -0.69189929352E+02 -0.31360752703E+02  0.10826781024E+02  0.14674968627E+03  0.12509000000E+03 0.  0.
         25    1    4    4    0    0  0.74475467947E+02  0.17633948026E+02 -0.83137678684E+02  0.16857322790E+03  0.12509000000E+03 0.  0.
         25    1    4    4    0    0 -0.52855385951E+01  0.13726804677E+02 -0.99373162278E+02  0.16043346149E+03  0.12509000000E+03 0.  0.
<mgrwt>
<rscale>  2 0.44369890E+03</rscale>
<asrwt>0</asrwt>
<pdfrwt beam="1">  1       21 0.22358259E-01 0.44369890E+03</pdfrwt>
<pdfrwt beam="2">  1       21 0.47605914E-01 0.44369890E+03</pdfrwt>
<totfact> 0.73374886E+04</totfact>
</mgrwt>
</event>
<event>
 7    0  0.4766352E-002  0.4530894E+03  0.7546771E-02  0.1026805E+00
         21   -1    0    0  502  501  0.00000000000E+00  0.00000000000E+00  0.65949113700E+03  0.65949113700E+03  0.00000000000E+00 0. -1.
         21   -1    0    0  501  502 -0.00000000000E+00 -0.00000000000E+00 -0.77821355503E+02  0.77821355503E+02  0.00000000000E+00 0. -1.
      99926    2    1    2    0    0  0.00000000000E+00  0.44408920985E-14  0.58166978149E+03  0.73731249250E+03  0.45308936965E+03 0.  0.
      99925    2    3    3    0    0 -0.69327091785E+02 -0.33886942862E+01  0.50844469204E+03  0.57660421415E+03  0.26294236253E+03 0.  0.
         25    1    4    4    0    0 -0.24776806319E+02 -0.38408881544E+02  0.22070343160E+03  0.25777246775E+03  0.12509000000E+03 0.  0.
         25    1    4    4    0    0 -0.44550285466E+02  0.35020187258E+02  0.28774126044E+03  0.31883174640E+03  0.12509000000E+03 0.  0.
         25    1    3    3    0    0  0.69327091785E+02  0.33886942862E+01  0.73225089456E+02  0.16070827835E+03  0.12509000000E+03 0.  0.
<mgrwt>
<rscale>  2 0.45308937E+03</rscale>
<asrwt>0</asrwt>
<pdfrwt beam="1">  1       21 0.96983988E-01 0.45308937E+03</pdfrwt>
<pdfrwt beam="2">  1       21 0.11444317E-01 0.45308937E+03</pdfrwt>
<totfact> 0.51695697E+04</totfact>
</mgrwt>
</event>
<event>
 7    0  0.4766352E-002  0.4560138E+03  0.7546771E-02  0.1025944E+00
         21   -1    0    0  502  501  0.00000000000E+00  0.00000000000E+00  0.14162875181E+03  0.14162875181E+03  0.00000000000E+00 0.  1.
         21   -1    0    0  501  502 -0.00000000000E+00 -0.00000000000E+00 -0.36706626781E+03  0.36706626781E+03  0.00000000000E+00 0.  1.
      99926    2    1    2    0    0  0.71054273576E-14 -0.35527136788E-14 -0.22543751600E+03  0.50869501961E+03  0.45601376005E+03 0.  0.
      99925    2    3    3    0    0 -0.60089622916E+02  0.27256013275E+02 -0.24555232726E+03  0.36584626472E+03  0.26304731693E+03 0.  0.
         25    1    4    4    0    0 -0.66452533014E+02 -0.50630401741E+01 -0.13349570521E+03  0.19470537982E+03  0.12509000000E+03 0.  0.
         25    1    4    4    0    0  0.63629100978E+01  0.32319053449E+02 -0.11205662205E+03  0.17114088491E+03  0.12509000000E+03 0.  0.
         25    1    3    3    0    0  0.60089622916E+02 -0.27256013275E+02  0.20114811261E+02  0.14284875489E+03  0.12509000000E+03 0.  0.
<mgrwt>
<rscale>  2 0.45601376E+03</rscale>
<asrwt>0</asrwt>
<pdfrwt beam="1">  1       21 0.20827758E-01 0.45601376E+03</pdfrwt>
<pdfrwt beam="2">  1       21 0.53980333E-01 0.45601376E+03</pdfrwt>
<totfact> 0.64146354E+04</totfact>
</mgrwt>
</event>
<event>
 7    0  0.4766352E-002  0.4428958E+03  0.7546771E-02  0.1029862E+00
         21   -1    0    0  502  501  0.00000000000E+00  0.00000000000E+00  0.26410272104E+03  0.26410272104E+03  0.00000000000E+00 0.  1.
         21   -1    0    0  501  502 -0.00000000000E+00 -0.00000000000E+00 -0.18568218833E+03  0.18568218833E+03  0.00000000000E+00 0.  1.
      99926    2    1    2    0    0  0.00000000000E+00  0.14210854715E-13  0.78420532710E+02  0.44978490936E+03  0.44289579445E+03 0.  0.
      99925    2    3    3    0    0 -0.39339705612E+02  0.79085895535E+02  0.10021795393E+03  0.29510838567E+03  0.26314089323E+03 0.  0.
         25    1    4    4    0    0 -0.40870991763E+02  0.65206354712E+02  0.81180987636E+02  0.16780991483E+03  0.12509000000E+03 0.  0.
         25    1    3    3    0    0  0.39339705612E+02 -0.79085895535E+02 -0.21797421223E+02  0.15467652369E+03  0.12509000000E+03 0.  0.
         25    1    4    4    0    0  0.15312861516E+01  0.13879540823E+02  0.19036966298E+02  0.12729847083E+03  0.12509000000E+03 0.  0.
<mgrwt>
<rscale>  2 0.44289579E+03</rscale>
<asrwt>0</asrwt>
<pdfrwt beam="1">  1       21 0.38838635E-01 0.44289579E+03</pdfrwt>
<pdfrwt beam="2">  1       21 0.27306204E-01 0.44289579E+03</pdfrwt>
<totfact> 0.76007022E+04</totfact>
</mgrwt>
</event>
<event>
 7    0  0.4766352E-002  0.4581152E+03  0.7546771E-02  0.1025329E+00
         21   -1    0    0  502  501  0.00000000000E+00  0.00000000000E+00  0.18406543062E+03  0.18406543062E+03  0.00000000000E+00 0. -1.
         21   -1    0    0  501  502 -0.00000000000E+00 -0.00000000000E+00 -0.28504750807E+03  0.28504750807E+03  0.00000000000E+00 0. -1.
      99926    2    1    2    0    0  0.00000000000E+00 -0.13322676296E-14 -0.10098207745E+03  0.46911293869E+03  0.45811523581E+03 0.  0.
      99925    2    3    3    0    0  0.54591186084E+02 -0.81905563712E+00 -0.16847189430E+03  0.31685246474E+03  0.26273910404E+03 0.  0.
         25    1    3    3    0    0 -0.54591186084E+02  0.81905563712E+00  0.67489816857E+02  0.15226047396E+03  0.12509000000E+03 0.  0.
         25    1    4    4    0    0  0.48434766561E+02  0.97269191428E+01 -0.12570246147E+03  0.18409007710E+03  0.12509000000E+03 0.  0.
         25    1    4    4    0    0  0.61564195239E+01 -0.10545974780E+02 -0.42769432829E+02  0.13276238763E+03  0.12509000000E+03 0.  0.
<mgrwt>
<rscale>  2 0.45811524E+03</rscale>
<asrwt>0</asrwt>
<pdfrwt beam="1">  1       21 0.27068446E-01 0.45811524E+03</pdfrwt>
<pdfrwt beam="2">  1       21 0.41918751E-01 0.45811524E+03</pdfrwt>
<totfact> 0.65859597E+04</totfact>
</mgrwt>
</event>
<event>
 7    0  0.4766352E-002  0.4613092E+03  0.7546771E-02  0.1024402E+00
         21   -1    0    0  502  501  0.00000000000E+00  0.00000000000E+00  0.30600304930E+02  0.30600304930E+02  0.00000000000E+00 0.  1.
         21   -1    0    0  501  502 -0.00000000000E+00 -0.00000000000E+00 -0.17385951046E+04  0.17385951046E+04  0.00000000000E+00 0.  1.
      99926    2    1    2    0    0  0.00000000000E+00  0.35527136788E-14 -0.17079947997E+04  0.17691954095E+04  0.46130918200E+03 0.  0.
      99925    2    3    3    0    0  0.80938904901E+02 -0.23853939943E+02 -0.13906593561E+04  0.14178132691E+04  0.26294658109E+03 0.  0.
         25    1    4    4    0    0  0.52105413145E+02 -0.15293352653E+02 -0.91312320337E+03  0.92324988673E+03  0.12509000000E+03 0.  0.
         25    1    4    4    0    0  0.28833491756E+02 -0.85605872901E+01 -0.47753615273E+03  0.49456338235E+03  0.12509000000E+03 0.  0.
         25    1    3    3    0    0 -0.80938904901E+02  0.23853939943E+02 -0.31733544356E+03  0.35138214043E+03  0.12509000000E+03 0.  0.
<mgrwt>
<rscale>  2 0.46130918E+03</rscale>
<asrwt>0</asrwt>
<pdfrwt beam="1">  1       21 0.45000451E-02 0.46130918E+03</pdfrwt>
<pdfrwt beam="2">  1       21 0.25567574E+00 0.46130918E+03</pdfrwt>
<totfact> 0.17010370E+04</totfact>
</mgrwt>
</event>
<event>
 7    0  0.4766352E-002  0.4547926E+03  0.7546771E-02  0.1026302E+00
         21   -1    0    0  502  501  0.00000000000E+00  0.00000000000E+00  0.72551827327E+02  0.72551827327E+02  0.00000000000E+00 0. -1.
         21   -1    0    0  501  502 -0.00000000000E+00 -0.00000000000E+00 -0.71271905204E+03  0.71271905204E+03  0.00000000000E+00 0. -1.
      99926    2    1    2    0    0  0.00000000000E+00  0.71054273576E-14 -0.64016722471E+03  0.78527087937E+03  0.45479256633E+03 0.  0.
      99925    2    3    3    0    0 -0.92032597833E+02  0.44282444158E+02 -0.48632652821E+03  0.56223410679E+03  0.26298814586E+03 0.  0.
         25    1    4    4    0    0 -0.53873815187E+02 -0.17009323252E+02 -0.22135943172E+03  0.26045961520E+03  0.12509000000E+03 0.  0.
         25    1    3    3    0    0  0.92032597833E+02 -0.44282444158E+02 -0.15384069650E+03  0.22303677258E+03  0.12509000000E+03 0.  0.
         25    1    4    4    0    0 -0.38158782646E+02  0.61291767411E+02 -0.26496709649E+03  0.30177449158E+03  0.12509000000E+03 0.  0.
<mgrwt>
<rscale>  2 0.45479257E+03</rscale>
<asrwt>0</asrwt>
<pdfrwt beam="1">  1       21 0.10669386E-01 0.45479257E+03</pdfrwt>
<pdfrwt beam="2">  1       21 0.10481162E+00 0.45479257E+03</pdfrwt>
<totfact> 0.48564545E+04</totfact>
</mgrwt>
</event>
<event>
 7    0  0.4766352E-002  0.4601169E+03  0.7546771E-02  0.1024747E+00
         21   -1    0    0  502  501  0.00000000000E+00  0.00000000000E+00  0.15949785187E+04  0.15949785187E+04  0.00000000000E+00 0.  1.
         21   -1    0    0  501  502 -0.00000000000E+00 -0.00000000000E+00 -0.33183455875E+02  0.33183455875E+02  0.00000000000E+00 0.  1.
      99926    2    1    2    0    0 -0.44408920985E-14  0.00000000000E+00  0.15617950628E+04  0.16281619746E+04  0.46011693860E+03 0.  0.
      99925    2    3    3    0    0 -0.48915839618E+01  0.11456444011E+03  0.88194427911E+03  0.92745266627E+03  0.26304714060E+03 0.  0.
         25    1    4    4    0    0  0.32952118948E+02  0.38130121010E+02  0.38342822370E+03  0.40645351407E+03  0.12509000000E+03 0.  0.
         25    1    4    4    0    0 -0.37843702910E+02  0.76434319101E+02  0.49851605542E+03  0.52099915220E+03  0.12509000000E+03 0.  0.
         25    1    3    3    0    0  0.48915839618E+01 -0.11456444011E+03  0.67985078369E+03  0.70070930829E+03  0.12509000000E+03 0.  0.
<mgrwt>
<rscale>  2 0.46011694E+03</rscale>
<asrwt>0</asrwt>
<pdfrwt beam="1">  1       21 0.23455561E+00 0.46011694E+03</pdfrwt>
<pdfrwt beam="2">  1       21 0.48799211E-02 0.46011694E+03</pdfrwt>
<totfact> 0.19994538E+04</totfact>
</mgrwt>
</event>
<event>
 7    0  0.4766352E-002  0.4529616E+03  0.7546771E-02  0.1026843E+00
         21   -1    0    0  502  501  0.00000000000E+00  0.00000000000E+00  0.24402087162E+03  0.24402087162E+03  0.00000000000E+00 0.  1.
         21   -1    0    0  501  502 -0.00000000000E+00 -0.00000000000E+00 -0.21020146434E+03  0.21020146434E+03  0.00000000000E+00 0.  1.
      99926    2    1    2    0    0  0.00000000000E+00 -0.71054273576E-14  0.33819407287E+02  0.45422233596E+03  0.45296156368E+03 0.  0.
      99925    2    3    3    0    0  0.85461352542E+02  0.52198162648E+02 -0.27211866550E+02  0.28275625929E+03  0.26302533248E+03 0.  0.
         25    1    3    3    0    0 -0.85461352542E+02 -0.52198162648E+02  0.61031273837E+02  0.17146607667E+03  0.12509000000E+03 0.  0.
         25    1    4    4    0    0  0.68985624615E+02  0.11220459372E+02 -0.41889433620E+02  0.14928880688E+03  0.12509000000E+03 0.  0.
         25    1    4    4    0    0  0.16475727927E+02  0.40977703275E+02  0.14677567070E+02  0.13346745241E+03  0.12509000000E+03 0.  0.
<mgrwt>
<rscale>  2 0.45296156E+03</rscale>
<asrwt>0</asrwt>
<pdfrwt beam="1">  1       21 0.35885423E-01 0.45296156E+03</pdfrwt>
<pdfrwt beam="2">  1       21 0.30911980E-01 0.45296156E+03</pdfrwt>
<totfact> 0.69730054E+04</totfact>
</mgrwt>
</event>
<event>
 7    0  0.4766352E-002  0.4574338E+03  0.7546771E-02  0.1025528E+00
         21   -1    0    0  502  501  0.00000000000E+00  0.00000000000E+00  0.58010131582E+03  0.58010131582E+03  0.00000000000E+00 0. -1.
         21   -1    0    0  501  502 -0.00000000000E+00 -0.00000000000E+00 -0.90176344745E+02  0.90176344745E+02  0.00000000000E+00 0. -1.
      99926    2    1    2    0    0  0.17763568394E-14  0.00000000000E+00  0.48992497108E+03  0.67027766057E+03  0.45743378206E+03 0.  0.
      99925    2    3    3    0    0 -0.11679902324E+02  0.54170420463E+02  0.15923865117E+03  0.31240644791E+03  0.26300187471E+03 0.  0.
         25    1    4    4    0    0  0.31617402608E+02  0.12897619916E+02  0.86022705998E+02  0.15560662838E+03  0.12509000000E+03 0.  0.
         25    1    3    3    0    0  0.11679902324E+02 -0.54170420463E+02  0.33068631991E+03  0.35787121266E+03  0.12509000000E+03 0.  0.
         25    1    4    4    0    0 -0.43297304932E+02  0.41272800547E+02  0.73215945167E+02  0.15679981953E+03  0.12509000000E+03 0.  0.
<mgrwt>
<rscale>  2 0.45743378E+03</rscale>
<asrwt>0</asrwt>
<pdfrwt beam="1">  1       21 0.85309015E-01 0.45743378E+03</pdfrwt>
<pdfrwt beam="2">  1       21 0.13261227E-01 0.45743378E+03</pdfrwt>
<totfact> 0.53512582E+04</totfact>
</mgrwt>
</event>
<event>
 6    0  0.4766352E-002  0.4443790E+03  0.7546771E-02  0.1029412E+00
         21   -1    0    0  502  501  0.00000000000E+00  0.00000000000E+00  0.10897178867E+04  0.10897178867E+04  0.00000000000E+00 0.  1.
         21   -1    0    0  501  502 -0.00000000000E+00 -0.00000000000E+00 -0.45303624658E+02  0.45303624658E+02  0.00000000000E+00 0.  1.
      99926    2    1    2    0    0 -0.71054273576E-14  0.00000000000E+00  0.10444142620E+04  0.11350215114E+04  0.44437898295E+03 0.  0.
         25    1    3    3    0    0 -0.30786163238E+02  0.74378017771E+02  0.23496492492E+03  0.27809333221E+03  0.12509000000E+03 0.  0.
         25    1    3    3    0    0  0.30123411574E+00 -0.81684551131E+02  0.49526333022E+03  0.51730622555E+03  0.12509000000E+03 0.  0.
         25    1    3    3    0    0  0.30484929123E+02  0.73065333594E+01  0.31418600689E+03  0.33962195359E+03  0.12509000000E+03 0.  0.
<mgrwt>
<rscale>  2 0.44437898E+03</rscale>
<asrwt>0</asrwt>
<pdfrwt beam="1">  1       21 0.16025261E+00 0.44437898E+03</pdfrwt>
<pdfrwt beam="2">  1       21 0.66622985E-02 0.44437898E+03</pdfrwt>
<totfact> 0.37278373E+04</totfact>
</mgrwt>
</event>
<event>
 7    0  0.4766352E-002  0.4609122E+03  0.7546771E-02  0.1024517E+00
         21   -1    0    0  502  501  0.00000000000E+00  0.00000000000E+00  0.54016219001E+02  0.54016219001E+02  0.00000000000E+00 0.  1.
         21   -1    0    0  501  502 -0.00000000000E+00 -0.00000000000E+00 -0.98322327722E+03  0.98322327722E+03  0.00000000000E+00 0.  1.
      99926    2    1    2    0    0  0.00000000000E+00  0.14210854715E-13 -0.92920705822E+03  0.10372394962E+04  0.46091215592E+03 0.  0.
      99925    2    3    3    0    0  0.16235428451E+02 -0.98409619561E+02 -0.43695157291E+03  0.51963828556E+03  0.26296240871E+03 0.  0.
         25    1    4    4    0    0  0.33544018050E+02 -0.83414943821E+02 -0.24283838229E+03  0.28757823634E+03  0.12509000000E+03 0.  0.
         25    1    3    3    0    0 -0.16235428451E+02  0.98409619561E+02 -0.49225548531E+03  0.51760121066E+03  0.12509000000E+03 0.  0.
         25    1    4    4    0    0 -0.17308589599E+02 -0.14994675740E+02 -0.19411319061E+03  0.23206004922E+03  0.12509000000E+03 0.  0.
<mgrwt>
<rscale>  2 0.46091216E+03</rscale>
<asrwt>0</asrwt>
<pdfrwt beam="1">  1       21 0.79435615E-02 0.46091216E+03</pdfrwt>
<pdfrwt beam="2">  1       21 0.14459166E+00 0.46091216E+03</pdfrwt>
<totfact> 0.36056084E+04</totfact>
</mgrwt>
</event>
<event>
 7    0  0.4766352E-002  0.4545052E+03  0.7546771E-02  0.1026387E+00
         21   -1    0    0  502  501  0.00000000000E+00  0.00000000000E+00  0.78754046543E+02  0.78754046543E+02  0.00000000000E+00 0. -1.
         21   -1    0    0  501  502 -0.00000000000E+00 -0.00000000000E+00 -0.65575990966E+03  0.65575990966E+03  0.00000000000E+00 0. -1.
      99926    2    1    2    0    0  0.35527136788E-14  0.00000000000E+00 -0.57700586312E+03  0.73451395621E+03  0.45450520986E+03 0.  0.
      99925    2    3    3    0    0  0.19419557942E+02  0.43264110419E+02 -0.19637976149E+03  0.33106304243E+03  0.26227623770E+03 0.  0.
         25    1    3    3    0    0 -0.19419557942E+02 -0.43264110419E+02 -0.38062610163E+03  0.40345091377E+03  0.12509000000E+03 0.  0.
         25    1    4    4    0    0  0.44619567509E+02  0.29408085422E+02 -0.12196435278E+03  0.18269798232E+03  0.12509000000E+03 0.  0.
         25    1    4    4    0    0 -0.25200009567E+02  0.13856024996E+02 -0.74415408707E+02  0.14836506012E+03  0.12509000000E+03 0.  0.
<mgrwt>
<rscale>  2 0.45450521E+03</rscale>
<asrwt>0</asrwt>
<pdfrwt beam="1">  1       21 0.11581478E-01 0.45450521E+03</pdfrwt>
<pdfrwt beam="2">  1       21 0.96435278E-01 0.45450521E+03</pdfrwt>
<totfact> 0.51267992E+04</totfact>
</mgrwt>
</event>
<event>
 7    0  0.4766352E-002  0.4291379E+03  0.7546771E-02  0.1034133E+00
         21   -1    0    0  502  501  0.00000000000E+00  0.00000000000E+00  0.13619960528E+03  0.13619960528E+03  0.00000000000E+00 0. -1.
         21   -1    0    0  501  502 -0.00000000000E+00 -0.00000000000E+00 -0.33803202575E+03  0.33803202575E+03  0.00000000000E+00 0. -1.
      99926    2    1    2    0    0  0.00000000000E+00  0.35527136788E-14 -0.20183242047E+03  0.47423163103E+03  0.42913787286E+03 0.  0.
      99925    2    3    3    0    0  0.73989821638E+02  0.30286720530E+02 -0.93213380762E+02  0.29028222757E+03  0.26302710534E+03 0.  0.
         25    1    4    4    0    0  0.42281029250E+02 -0.25219680333E+02 -0.44971661894E+02  0.14175216465E+03  0.12509000000E+03 0.  0.
         25    1    4    4    0    0  0.31708792387E+02  0.55506400863E+02 -0.48241718868E+02  0.14853006292E+03  0.12509000000E+03 0.  0.
         25    1    3    3    0    0 -0.73989821638E+02 -0.30286720530E+02 -0.10861903970E+03  0.18394940346E+03  0.12509000000E+03 0.  0.
<mgrwt>
<rscale>  2 0.42913787E+03</rscale>
<asrwt>0</asrwt>
<pdfrwt beam="1">  1       21 0.20029354E-01 0.42913787E+03</pdfrwt>
<pdfrwt beam="2">  1       21 0.49710591E-01 0.42913787E+03</pdfrwt>
<totfact> 0.82873659E+04</totfact>
</mgrwt>
</event>
<event>
 7    0  0.4766352E-002  0.4473376E+03  0.7546771E-02  0.1028519E+00
         21   -1    0    0  502  501  0.00000000000E+00  0.00000000000E+00  0.20559826288E+03  0.20559826288E+03  0.00000000000E+00 0. -1.
         21   -1    0    0  501  502 -0.00000000000E+00 -0.00000000000E+00 -0.24332756350E+03  0.24332756350E+03  0.00000000000E+00 0. -1.
      99926    2    1    2    0    0  0.00000000000E+00  0.14210854715E-13 -0.37729300620E+02  0.44892582638E+03  0.44733756545E+03 0.  0.
      99925    2    3    3    0    0 -0.73164248101E+02 -0.76262773261E+02 -0.17806780987E+02  0.28396088261E+03  0.26295947143E+03 0.  0.
         25    1    4    4    0    0 -0.58430029685E+02 -0.75537048904E+02 -0.67889217383E+01  0.15752305128E+03  0.12509000000E+03 0.  0.
         25    1    3    3    0    0  0.73164248101E+02  0.76262773261E+02 -0.19922519633E+02  0.16496494377E+03  0.12509000000E+03 0.  0.
         25    1    4    4    0    0 -0.14734218416E+02 -0.72572435659E+00 -0.11017859249E+02  0.12643783133E+03  0.12509000000E+03 0.  0.
<mgrwt>
<rscale>  2 0.44733757E+03</rscale>
<asrwt>0</asrwt>
<pdfrwt beam="1">  1       21 0.30235039E-01 0.44733757E+03</pdfrwt>
<pdfrwt beam="2">  1       21 0.35783465E-01 0.44733757E+03</pdfrwt>
<totfact> 0.73377564E+04</totfact>
</mgrwt>
</event>
<event>
 7    0  0.4766352E-002  0.4570011E+03  0.7546771E-02  0.1025655E+00
         21   -1    0    0  502  501  0.00000000000E+00  0.00000000000E+00  0.68795959780E+02  0.68795959780E+02  0.00000000000E+00 0. -1.
         21   -1    0    0  501  502 -0.00000000000E+00 -0.00000000000E+00 -0.75894733963E+03  0.75894733963E+03  0.00000000000E+00 0. -1.
      99926    2    1    2    0    0  0.00000000000E+00  0.14210854715E-13 -0.69015137985E+03  0.82774329941E+03  0.45700114071E+03 0.  0.
      99925    2    3    3    0    0  0.47037358401E+02 -0.10483059087E+03 -0.44322330941E+03  0.52803853479E+03  0.26301297752E+03 0.  0.
         25    1    4    4    0    0  0.44846738230E+02 -0.74476782900E+02 -0.18618445893E+03  0.24056222057E+03  0.12509000000E+03 0.  0.
         25    1    3    3    0    0 -0.47037358401E+02  0.10483059087E+03 -0.24692807044E+03  0.29970476462E+03  0.12509000000E+03 0.  0.
         25    1    4    4    0    0  0.21906201713E+01 -0.30353807972E+02 -0.25703885049E+03  0.28747631421E+03  0.12509000000E+03 0.  0.
<mgrwt>
<rscale>  2 0.45700114E+03</rscale>
<asrwt>0</asrwt>
<pdfrwt beam="1">  1       21 0.10117053E-01 0.45700114E+03</pdfrwt>
<pdfrwt beam="2">  1       21 0.11160990E+00 0.45700114E+03</pdfrwt>
<totfact> 0.45729739E+04</totfact>
</mgrwt>
</event>
<event>
 7    0  0.4766352E-002  0.4587628E+03  0.7546771E-02  0.1025141E+00
         21   -1    0    0  502  501  0.00000000000E+00  0.00000000000E+00  0.35707238472E+02  0.35707238472E+02  0.00000000000E+00 0.  1.
         21   -1    0    0  501  502 -0.00000000000E+00 -0.00000000000E+00 -0.14735339527E+04  0.14735339527E+04  0.00000000000E+00 0.  1.
      99926    2    1    2    0    0  0.00000000000E+00  0.71054273576E-14 -0.14378267142E+04  0.15092411912E+04  0.45876280689E+03 0.  0.
      99925    2    3    3    0    0 -0.57729503276E+02  0.37882781473E+02 -0.12135261932E+04  0.12432975270E+04  0.26148636369E+03 0.  0.
         25    1    4    4    0    0 -0.37635766801E+02  0.54269135625E+02 -0.69692095967E+03  0.71113143803E+03  0.12509000000E+03 0.  0.
         25    1    3    3    0    0  0.57729503276E+02 -0.37882781473E+02 -0.22430052109E+03  0.26594366423E+03  0.12509000000E+03 0.  0.
         25    1    4    4    0    0 -0.20093736474E+02 -0.16386354152E+02 -0.51660523349E+03  0.53216608894E+03  0.12509000000E+03 0.  0.
<mgrwt>
<rscale>  2 0.45876281E+03</rscale>
<asrwt>0</asrwt>
<pdfrwt beam="1">  1       21 0.52510631E-02 0.45876281E+03</pdfrwt>
<pdfrwt beam="2">  1       21 0.21669623E+00 0.45876281E+03</pdfrwt>
<totfact> 0.22877567E+04</totfact>
</mgrwt>
</event>
<event>
 7    0  0.4766352E-002  0.4463608E+03  0.7546771E-02  0.1028813E+00
         21   -1    0    0  502  501  0.00000000000E+00  0.00000000000E+00  0.16104697103E+03  0.16104697103E+03  0.00000000000E+00 0. -1.
         21   -1    0    0  501  502 -0.00000000000E+00 -0.00000000000E+00 -0.30928547027E+03  0.30928547027E+03  0.00000000000E+00 0. -1.
      99926    2    1    2    0    0  0.00000000000E+00 -0.35527136788E-14 -0.14823849924E+03  0.47033244130E+03  0.44636078757E+03 0.  0.
      99925    2    3    3    0    0 -0.24220053515E+02  0.17130705585E+02 -0.20006375194E+03  0.33171989864E+03  0.26293062630E+03 0.  0.
         25    1    3    3    0    0  0.24220053515E+02 -0.17130705585E+02  0.51825252703E+02  0.13861254266E+03  0.12509000000E+03 0.  0.
         25    1    4    4    0    0 -0.38329740158E+02 -0.15790578723E+01 -0.13786335200E+03  0.19006702588E+03  0.12509000000E+03 0.  0.
         25    1    4    4    0    0  0.14109686643E+02  0.18709763457E+02 -0.62200399942E+02  0.14165287275E+03  0.12509000000E+03 0.  0.
<mgrwt>
<rscale>  2 0.44636079E+03</rscale>
<asrwt>0</asrwt>
<pdfrwt beam="1">  1       21 0.23683378E-01 0.44636079E+03</pdfrwt>
<pdfrwt beam="2">  1       21 0.45483157E-01 0.44636079E+03</pdfrwt>
<totfact> 0.72237906E+04</totfact>
</mgrwt>
</event>
<event>
 7    0  0.4766352E-002  0.4554009E+03  0.7546771E-02  0.1026124E+00
         21   -1    0    0  502  501  0.00000000000E+00  0.00000000000E+00  0.21241030547E+02  0.21241030547E+02  0.00000000000E+00 0.  1.
         21   -1    0    0  501  502 -0.00000000000E+00 -0.00000000000E+00 -0.24409122209E+04  0.24409122209E+04  0.00000000000E+00 0.  1.
      99926    2    1    2    0    0  0.00000000000E+00  0.00000000000E+00 -0.24196711903E+04  0.24621532514E+04  0.45540088295E+03 0.  0.
      99925    2    3    3    0    0  0.28621330705E+02 -0.10550680508E+03 -0.13566783623E+04  0.13862572867E+04  0.26302513102E+03 0.  0.
         25    1    4    4    0    0  0.13039212939E+02 -0.38963636529E+02 -0.46593911084E+03  0.48418482954E+03  0.12509000000E+03 0.  0.
         25    1    3    3    0    0 -0.28621330705E+02  0.10550680508E+03 -0.10629928280E+04  0.10758959648E+04  0.12509000000E+03 0.  0.
         25    1    4    4    0    0  0.15582117766E+02 -0.66543168549E+02 -0.89073925147E+03  0.90207245712E+03  0.12509000000E+03 0.  0.
<mgrwt>
<rscale>  2 0.45540088E+03</rscale>
<asrwt>0</asrwt>
<pdfrwt beam="1">  1       21 0.31236824E-02 0.45540088E+03</pdfrwt>
<pdfrwt beam="2">  1       21 0.35895752E+00 0.45540088E+03</pdfrwt>
<totfact> 0.75034757E+03</totfact>
</mgrwt>
</event>
<event>
 7    0  0.4766352E-002  0.4444254E+03  0.7546771E-02  0.1029398E+00
         21   -1    0    0  502  501  0.00000000000E+00  0.00000000000E+00  0.25418008043E+03  0.25418008043E+03  0.00000000000E+00 0. -1.
         21   -1    0    0  501  502 -0.00000000000E+00 -0.00000000000E+00 -0.19426577959E+03  0.19426577959E+03  0.00000000000E+00 0. -1.
      99926    2    1    2    0    0 -0.17763568394E-14  0.00000000000E+00  0.59914300844E+02  0.44844586002E+03  0.44442543348E+03 0.  0.
      99925    2    3    3    0    0  0.71124178883E+01 -0.95329545738E+02 -0.32201010779E+00  0.27988064998E+03  0.26304897978E+03 0.  0.
         25    1    4    4    0    0  0.24903346139E+02 -0.43379638703E+02 -0.34481419557E+02  0.13906274159E+03  0.12509000000E+03 0.  0.
         25    1    3    3    0    0 -0.71124178883E+01  0.95329545738E+02  0.60236310952E+02  0.16856521004E+03  0.12509000000E+03 0.  0.
         25    1    4    4    0    0 -0.17790928251E+02 -0.51949907035E+02  0.34159409450E+02  0.14081790839E+03  0.12509000000E+03 0.  0.
<mgrwt>
<rscale>  2 0.44442543E+03</rscale>
<asrwt>0</asrwt>
<pdfrwt beam="1">  1       21 0.37379424E-01 0.44442543E+03</pdfrwt>
<pdfrwt beam="2">  1       21 0.28568497E-01 0.44442543E+03</pdfrwt>
<totfact> 0.75173053E+04</totfact>
</mgrwt>
</event>
<event>
 7    0  0.4766352E-002  0.4492729E+03  0.7546771E-02  0.1027939E+00
         21   -1    0    0  502  501  0.00000000000E+00  0.00000000000E+00  0.34199244240E+03  0.34199244240E+03  0.00000000000E+00 0.  1.
         21   -1    0    0  501  502 -0.00000000000E+00 -0.00000000000E+00 -0.14755158882E+03  0.14755158882E+03  0.00000000000E+00 0.  1.
      99926    2    1    2    0    0  0.14210854715E-13  0.00000000000E+00  0.19444085358E+03  0.48954403123E+03  0.44927287139E+03 0.  0.
      99925    2    3    3    0    0  0.73722483795E+02  0.76874252517E+02  0.13944603736E+03  0.31629105657E+03  0.26315428899E+03 0.  0.
         25    1    4    4    0    0 -0.21162063599E+01  0.30557053675E+02  0.46663904055E+02  0.13697897613E+03  0.12509000000E+03 0.  0.
         25    1    4    4    0    0  0.75838690155E+02  0.46317198842E+02  0.92782133304E+02  0.17931208044E+03  0.12509000000E+03 0.  0.
         25    1    3    3    0    0 -0.73722483795E+02 -0.76874252517E+02  0.54994816221E+02  0.17325297466E+03  0.12509000000E+03 0.  0.
<mgrwt>
<rscale>  2 0.44927287E+03</rscale>
<asrwt>0</asrwt>
<pdfrwt beam="1">  1       21 0.50293006E-01 0.44927287E+03</pdfrwt>
<pdfrwt beam="2">  1       21 0.21698763E-01 0.44927287E+03</pdfrwt>
<totfact> 0.69100302E+04</totfact>
</mgrwt>
</event>
<event>
 7    0  0.4766352E-002  0.4544458E+03  0.7546771E-02  0.1026404E+00
         21   -1    0    0  502  501  0.00000000000E+00  0.00000000000E+00  0.25700660418E+02  0.25700660418E+02  0.00000000000E+00 0. -1.
         21   -1    0    0  501  502 -0.00000000000E+00 -0.00000000000E+00 -0.20089075691E+04  0.20089075691E+04  0.00000000000E+00 0. -1.
      99926    2    1    2    0    0  0.00000000000E+00  0.00000000000E+00 -0.19832069087E+04  0.20346082296E+04  0.45444582184E+03 0.  0.
      99925    2    3    3    0    0  0.67022480699E+02  0.66801401950E+02 -0.97250376767E+03  0.10118067886E+04  0.26274504577E+03 0.  0.
         25    1    3    3    0    0 -0.67022480699E+02 -0.66801401950E+02 -0.10107031410E+04  0.10228014410E+04  0.12509000000E+03 0.  0.
         25    1    4    4    0    0  0.72777463451E+02  0.38659950927E+02 -0.47822098525E+03  0.50113268685E+03  0.12509000000E+03 0.  0.
         25    1    4    4    0    0 -0.57549827518E+01  0.28141451023E+02 -0.49428278242E+03  0.51067410174E+03  0.12509000000E+03 0.  0.
<mgrwt>
<rscale>  2 0.45444582E+03</rscale>
<asrwt>0</asrwt>
<pdfrwt beam="1">  1       21 0.37795075E-02 0.45444582E+03</pdfrwt>
<pdfrwt beam="2">  1       21 0.29542769E+00 0.45444582E+03</pdfrwt>
<totfact> 0.13209575E+04</totfact>
</mgrwt>
</event>
<event>
 7    0  0.4766352E-002  0.4536459E+03  0.7546771E-02  0.1026640E+00
         21   -1    0    0  502  501  0.00000000000E+00  0.00000000000E+00  0.94588868986E+02  0.94588868986E+02  0.00000000000E+00 0.  1.
         21   -1    0    0  501  502 -0.00000000000E+00 -0.00000000000E+00 -0.54391876471E+03  0.54391876471E+03  0.00000000000E+00 0.  1.
      99926    2    1    2    0    0 -0.35527136788E-14  0.00000000000E+00 -0.44932989573E+03  0.63850763370E+03  0.45364594465E+03 0.  0.
      99925    2    3    3    0    0  0.27003244451E+02  0.36808865826E+02 -0.13953511545E+03  0.30130683031E+03  0.26311915502E+03 0.  0.
         25    1    4    4    0    0 -0.18491428987E+02  0.22587703923E+00 -0.87552688022E+02  0.15380170755E+03  0.12509000000E+03 0.  0.
         25    1    3    3    0    0 -0.27003244451E+02 -0.36808865826E+02 -0.30979478028E+03  0.33720080338E+03  0.12509000000E+03 0.  0.
         25    1    4    4    0    0  0.45494673438E+02  0.36582988786E+02 -0.51982427424E+02  0.14750512276E+03  0.12509000000E+03 0.  0.
<mgrwt>
<rscale>  2 0.45364594E+03</rscale>
<asrwt>0</asrwt>
<pdfrwt beam="1">  1       21 0.13910128E-01 0.45364594E+03</pdfrwt>
<pdfrwt beam="2">  1       21 0.79988054E-01 0.45364594E+03</pdfrwt>
<totfact> 0.56974862E+04</totfact>
</mgrwt>
</event>
<event>
 7    0  0.4766352E-002  0.4564397E+03  0.7546771E-02  0.1025819E+00
         21   -1    0    0  502  501  0.00000000000E+00  0.00000000000E+00  0.58327188019E+03  0.58327188019E+03  0.00000000000E+00 0.  1.
         21   -1    0    0  501  502 -0.00000000000E+00 -0.00000000000E+00 -0.89296759153E+02  0.89296759153E+02  0.00000000000E+00 0.  1.
      99926    2    1    2    0    0  0.00000000000E+00  0.00000000000E+00  0.49397512103E+03  0.67256863934E+03  0.45643965036E+03 0.  0.
      99925    2    3    3    0    0  0.35984216575E+02 -0.99697742711E+02  0.24662268662E+03  0.37581076050E+03  0.26301420951E+03 0.  0.
         25    1    4    4    0    0  0.57182450293E+02 -0.43219447520E+02  0.13699158069E+03  0.19887673204E+03  0.12509000000E+03 0.  0.
         25    1    4    4    0    0 -0.21198233718E+02 -0.56478295191E+02  0.10963110593E+03  0.17693402846E+03  0.12509000000E+03 0.  0.
         25    1    3    3    0    0 -0.35984216575E+02  0.99697742711E+02  0.24735243441E+03  0.29675787884E+03  0.12509000000E+03 0.  0.
<mgrwt>
<rscale>  2 0.45643965E+03</rscale>
<asrwt>0</asrwt>
<pdfrwt beam="1">  1       21 0.85775274E-01 0.45643965E+03</pdfrwt>
<pdfrwt beam="2">  1       21 0.13131877E-01 0.45643965E+03</pdfrwt>
<totfact> 0.53804812E+04</totfact>
</mgrwt>
</event>
<event>
 7    0  0.4766352E-002  0.4548201E+03  0.7546771E-02  0.1026294E+00
         21   -1    0    0  502  501  0.00000000000E+00  0.00000000000E+00  0.81260748858E+03  0.81260748858E+03  0.00000000000E+00 0.  1.
         21   -1    0    0  501  502 -0.00000000000E+00 -0.00000000000E+00 -0.63641231875E+02  0.63641231875E+02  0.00000000000E+00 0.  1.
      99926    2    1    2    0    0  0.00000000000E+00  0.00000000000E+00  0.74896625671E+03  0.87624872046E+03  0.45482014733E+03 0.  0.
      99925    2    3    3    0    0 -0.80742550369E+02 -0.71966608572E+02  0.53475125931E+03  0.60563067709E+03  0.26292785228E+03 0.  0.
         25    1    4    4    0    0 -0.30684131932E+02 -0.32877405246E+01  0.29855270654E+03  0.32516695999E+03  0.12509000000E+03 0.  0.
         25    1    3    3    0    0  0.80742550369E+02  0.71966608572E+02  0.21421499739E+03  0.27061804337E+03  0.12509000000E+03 0.  0.
         25    1    4    4    0    0 -0.50058418438E+02 -0.68678868047E+02  0.23619855277E+03  0.28046371709E+03  0.12509000000E+03 0.  0.
<mgrwt>
<rscale>  2 0.45482015E+03</rscale>
<asrwt>0</asrwt>
<pdfrwt beam="1">  1       21 0.11950109E+00 0.45482015E+03</pdfrwt>
<pdfrwt beam="2">  1       21 0.93590052E-02 0.45482015E+03</pdfrwt>
<totfact> 0.44339004E+04</totfact>
</mgrwt>
</event>
<event>
 7    0  0.4766352E-002  0.4431376E+03  0.7546771E-02  0.1029788E+00
         21   -1    0    0  502  501  0.00000000000E+00  0.00000000000E+00  0.14011063917E+04  0.14011063917E+04  0.00000000000E+00 0.  1.
         21   -1    0    0  501  502 -0.00000000000E+00 -0.00000000000E+00 -0.35038548004E+02  0.35038548004E+02  0.00000000000E+00 0.  1.
      99926    2    1    2    0    0  0.00000000000E+00  0.00000000000E+00  0.13660678437E+04  0.14361449397E+04  0.44313760194E+03 0.  0.
      99925    2    3    3    0    0  0.14274489484E+02 -0.97229828825E+02  0.78397160696E+03  0.83270402496E+03  0.26292035296E+03 0.  0.
         25    1    3    3    0    0 -0.14274489484E+02  0.97229828825E+02  0.58209623669E+03  0.60344091470E+03  0.12509000000E+03 0.  0.
         25    1    4    4    0    0  0.25979040604E+02 -0.12387208893E+02  0.38945005878E+03  0.41005756898E+03  0.12509000000E+03 0.  0.
         25    1    4    4    0    0 -0.11704551120E+02 -0.84842619933E+02  0.39452154818E+03  0.42264645598E+03  0.12509000000E+03 0.  0.
<mgrwt>
<rscale>  2 0.44313760E+03</rscale>
<asrwt>0</asrwt>
<pdfrwt beam="1">  1       21 0.20604502E+00 0.44313760E+03</pdfrwt>
<pdfrwt beam="2">  1       21 0.51527286E-02 0.44313760E+03</pdfrwt>
<totfact> 0.27865878E+04</totfact>
</mgrwt>
</event>
<event>
 7    0  0.4766352E-002  0.4562376E+03  0.7546771E-02  0.1025878E+00
         21   -1    0    0  502  501  0.00000000000E+00  0.00000000000E+00  0.16821287813E+03  0.16821287813E+03  0.00000000000E+00 0.  1.
         21   -1    0    0  501  502 -0.00000000000E+00 -0.00000000000E+00 -0.30935905960E+03  0.30935905960E+03  0.00000000000E+00 0.  1.
      99926    2    1    2    0    0  0.00000000000E+00  0.00000000000E+00 -0.14114618147E+03  0.47757193774E+03  0.45623756002E+03 0.  0.
      99925    2    3    3    0    0 -0.27264376028E+02 -0.43175669727E+02 -0.19580400059E+03  0.33182397052E+03  0.26298375636E+03 0.  0.
         25    1    4    4    0    0  0.11558281679E+02 -0.51768236465E+02 -0.11212237811E+03  0.17616038135E+03  0.12509000000E+03 0.  0.
         25    1    4    4    0    0 -0.38822657706E+02  0.85925667379E+01 -0.83681622479E+02  0.15566358918E+03  0.12509000000E+03 0.  0.
         25    1    3    3    0    0  0.27264376028E+02  0.43175669727E+02  0.54657819123E+02  0.14574796722E+03  0.12509000000E+03 0.  0.
<mgrwt>
<rscale>  2 0.45623756E+03</rscale>
<asrwt>0</asrwt>
<pdfrwt beam="1">  1       21 0.24737188E-01 0.45623756E+03</pdfrwt>
<pdfrwt beam="2">  1       21 0.45493979E-01 0.45623756E+03</pdfrwt>
<totfact> 0.66224425E+04</totfact>
</mgrwt>
</event>
<event>
 7    0  0.4766352E-002  0.4672714E+03  0.7546771E-02  0.1022693E+00
         21   -1    0    0  502  501  0.00000000000E+00  0.00000000000E+00  0.15772932150E+03  0.15772932150E+03  0.00000000000E+00 0.  1.
         21   -1    0    0  501  502 -0.00000000000E+00 -0.00000000000E+00 -0.34607167113E+03  0.34607167113E+03  0.00000000000E+00 0.  1.
      99926    2    1    2    0    0 -0.71054273576E-14 -0.71054273576E-14 -0.18834234963E+03  0.50380099263E+03  0.46727144093E+03 0.  0.
      99925    2    3    3    0    0 -0.31336188209E+02 -0.42349963135E+02 -0.23864085926E+03  0.35904974310E+03  0.26304330868E+03 0.  0.
         25    1    4    4    0    0 -0.50136233765E+02 -0.22379042731E+02 -0.15235468371E+03  0.20463118344E+03  0.12509000000E+03 0.  0.
         25    1    3    3    0    0  0.31336188209E+02  0.42349963135E+02  0.50298509631E+02  0.14475124953E+03  0.12509000000E+03 0.  0.
         25    1    4    4    0    0  0.18800045556E+02 -0.19970920404E+02 -0.86286175551E+02  0.15441855966E+03  0.12509000000E+03 0.  0.
<mgrwt>
<rscale>  2 0.46727144E+03</rscale>
<asrwt>0</asrwt>
<pdfrwt beam="1">  1       21 0.23195488E-01 0.46727144E+03</pdfrwt>
<pdfrwt beam="2">  1       21 0.50892893E-01 0.46727144E+03</pdfrwt>
<totfact> 0.59040047E+04</totfact>
</mgrwt>
</event>
<event>
 7    0  0.4766352E-002  0.4610868E+03  0.7546771E-02  0.1024466E+00
         21   -1    0    0  502  501  0.00000000000E+00  0.00000000000E+00  0.18022625733E+03  0.18022625733E+03  0.00000000000E+00 0. -1.
         21   -1    0    0  501  502 -0.00000000000E+00 -0.00000000000E+00 -0.29490848643E+03  0.29490848643E+03  0.00000000000E+00 0. -1.
      99926    2    1    2    0    0  0.00000000000E+00 -0.17763568394E-14 -0.11468222910E+03  0.47513474376E+03  0.46108677172E+03 0.  0.
      99925    2    3    3    0    0  0.11728153720E+03  0.63530461604E+01 -0.53774034496E+02  0.29305608923E+03  0.26304924346E+03 0.  0.
         25    1    4    4    0    0  0.58651609775E+02  0.24908395159E+02 -0.61909576447E+02  0.15342992940E+03  0.12509000000E+03 0.  0.
         25    1    3    3    0    0 -0.11728153720E+03 -0.63530461604E+01 -0.60908194605E+02  0.18207865453E+03  0.12509000000E+03 0.  0.
         25    1    4    4    0    0  0.58629927429E+02 -0.18555348999E+02  0.81355419505E+01  0.13962615983E+03  0.12509000000E+03 0.  0.
<mgrwt>
<rscale>  2 0.46108677E+03</rscale>
<asrwt>0</asrwt>
<pdfrwt beam="1">  1       21 0.26503862E-01 0.46108677E+03</pdfrwt>
<pdfrwt beam="2">  1       21 0.43368895E-01 0.46108677E+03</pdfrwt>
<totfact> 0.63913286E+04</totfact>
</mgrwt>
</event>
<event>
 7    0  0.4766352E-002  0.4564041E+03  0.7546771E-02  0.1025829E+00
         21   -1    0    0  502  501  0.00000000000E+00  0.00000000000E+00  0.46417264755E+03  0.46417264755E+03  0.00000000000E+00 0. -1.
         21   -1    0    0  501  502 -0.00000000000E+00 -0.00000000000E+00 -0.11219139583E+03  0.11219139583E+03  0.00000000000E+00 0. -1.
      99926    2    1    2    0    0 -0.88817841970E-15  0.14210854715E-13  0.35198125172E+03  0.57636404338E+03  0.45640410706E+03 0.  0.
      99925    2    3    3    0    0 -0.79947317764E+01  0.10776278010E+03  0.26876675605E+03  0.39129947923E+03  0.26306459431E+03 0.  0.
         25    1    4    4    0    0 -0.31307255087E+02  0.25374032694E+02  0.10566596992E+03  0.16863211751E+03  0.12509000000E+03 0.  0.
         25    1    3    3    0    0  0.79947317764E+01 -0.10776278010E+03  0.83214495669E+02  0.18506456414E+03  0.12509000000E+03 0.  0.
         25    1    4    4    0    0  0.23312523311E+02  0.82388747409E+02  0.16310078612E+03  0.22266736172E+03  0.12509000000E+03 0.  0.
<mgrwt>
<rscale>  2 0.45640411E+03</rscale>
<asrwt>0</asrwt>
<pdfrwt beam="1">  1       21 0.68260683E-01 0.45640411E+03</pdfrwt>
<pdfrwt beam="2">  1       21 0.16498735E-01 0.45640411E+03</pdfrwt>
<totfact> 0.59493997E+04</totfact>
</mgrwt>
</event>
<event>
 7    0  0.4766352E-002  0.4510453E+03  0.7546771E-02  0.1027411E+00
         21   -1    0    0  502  501  0.00000000000E+00  0.00000000000E+00  0.37852810218E+03  0.37852810218E+03  0.00000000000E+00 0.  1.
         21   -1    0    0  501  502 -0.00000000000E+00 -0.00000000000E+00 -0.13436376751E+03  0.13436376751E+03  0.00000000000E+00 0.  1.
      99926    2    1    2    0    0  0.17763568394E-14  0.00000000000E+00  0.24416433467E+03  0.51289186969E+03  0.45104528339E+03 0.  0.
      99925    2    3    3    0    0 -0.13539865585E+02 -0.10271777548E+03  0.11480737828E+03  0.30525035258E+03  0.26317821773E+03 0.  0.
         25    1    3    3    0    0  0.13539865585E+02  0.10271777548E+03  0.12935695640E+03  0.20764151711E+03  0.12509000000E+03 0.  0.
         25    1    4    4    0    0 -0.35387934632E+02 -0.75462249841E+02  0.82292547082E+02  0.17136635747E+03  0.12509000000E+03 0.  0.
         25    1    4    4    0    0  0.21848069047E+02 -0.27255525640E+02  0.32514831194E+02  0.13388399511E+03  0.12509000000E+03 0.  0.
<mgrwt>
<rscale>  2 0.45104528E+03</rscale>
<asrwt>0</asrwt>
<pdfrwt beam="1">  1       21 0.55665897E-01 0.45104528E+03</pdfrwt>
<pdfrwt beam="2">  1       21 0.19759378E-01 0.45104528E+03</pdfrwt>
<totfact> 0.66434552E+04</totfact>
</mgrwt>
</event>
<event>
 7    0  0.4766352E-002  0.4542466E+03  0.7546771E-02  0.1026463E+00
         21   -1    0    0  502  501  0.00000000000E+00  0.00000000000E+00  0.13372850605E+03  0.13372850605E+03  0.00000000000E+00 0.  1.
         21   -1    0    0  501  502 -0.00000000000E+00 -0.00000000000E+00 -0.38574421263E+03  0.38574421263E+03  0.00000000000E+00 0.  1.
      99926    2    1    2    0    0  0.00000000000E+00  0.00000000000E+00 -0.25201570658E+03  0.51947271868E+03  0.45424661704E+03 0.  0.
      99925    2    3    3    0    0  0.69886828124E+02  0.60373205132E+02 -0.85324988192E+02  0.29152010005E+03  0.26301049880E+03 0.  0.
         25    1    4    4    0    0  0.41030651689E+02  0.67080397105E+02 -0.26334990387E+02  0.15008109099E+03  0.12509000000E+03 0.  0.
         25    1    3    3    0    0 -0.69886828124E+02 -0.60373205132E+02 -0.16669071839E+03  0.22795261863E+03  0.12509000000E+03 0.  0.
         25    1    4    4    0    0  0.28856176435E+02 -0.67071919733E+01 -0.58989997805E+02  0.14143900906E+03  0.12509000000E+03 0.  0.
<mgrwt>
<rscale>  2 0.45424662E+03</rscale>
<asrwt>0</asrwt>
<pdfrwt beam="1">  1       21 0.19665957E-01 0.45424662E+03</pdfrwt>
<pdfrwt beam="2">  1       21 0.56727089E-01 0.45424662E+03</pdfrwt>
<totfact> 0.64306721E+04</totfact>
</mgrwt>
</event>
<event>
 7    0  0.4766352E-002  0.4531666E+03  0.7546771E-02  0.1026782E+00
         21   -1    0    0  502  501  0.00000000000E+00  0.00000000000E+00  0.18613365921E+03  0.18613365921E+03  0.00000000000E+00 0. -1.
         21   -1    0    0  501  502 -0.00000000000E+00 -0.00000000000E+00 -0.27582326242E+03  0.27582326242E+03  0.00000000000E+00 0. -1.
      99926    2    1    2    0    0  0.00000000000E+00  0.00000000000E+00 -0.89689603209E+02  0.46195692164E+03  0.45316660570E+03 0.  0.
      99925    2    3    3    0    0 -0.54387581313E+02 -0.76119510479E+02 -0.11824671794E+03  0.30316395650E+03  0.26300933318E+03 0.  0.
         25    1    4    4    0    0  0.51682822020E+01 -0.62004507081E+02 -0.53748772753E+02  0.14969204625E+03  0.12509000000E+03 0.  0.
         25    1    4    4    0    0 -0.59555863515E+02 -0.14115003398E+02 -0.64497945190E+02  0.15347191024E+03  0.12509000000E+03 0.  0.
         25    1    3    3    0    0  0.54387581313E+02  0.76119510479E+02  0.28557114733E+02  0.15879296514E+03  0.12509000000E+03 0.  0.
<mgrwt>
<rscale>  2 0.45316661E+03</rscale>
<asrwt>0</asrwt>
<pdfrwt beam="1">  1       21 0.27372597E-01 0.45316661E+03</pdfrwt>
<pdfrwt beam="2">  1       21 0.40562244E-01 0.45316661E+03</pdfrwt>
<totfact> 0.69037396E+04</totfact>
</mgrwt>
</event>
<event>
 7    0  0.4766352E-002  0.4615763E+03  0.7546771E-02  0.1024325E+00
         21   -1    0    0  502  501  0.00000000000E+00  0.00000000000E+00  0.31686418957E+03  0.31686418957E+03  0.00000000000E+00 0. -1.
         21   -1    0    0  501  502 -0.00000000000E+00 -0.00000000000E+00 -0.16809464670E+03  0.16809464670E+03  0.00000000000E+00 0. -1.
      99926    2    1    2    0    0  0.00000000000E+00  0.00000000000E+00  0.14876954287E+03  0.48495883627E+03  0.46157631654E+03 0.  0.
      99925    2    3    3    0    0  0.18122300599E+02 -0.76674852920E+02 -0.90384008051E+00  0.27458516749E+03  0.26303753806E+03 0.  0.
         25    1    4    4    0    0  0.10280484396E+02 -0.35924941438E+02  0.40080777898E+02  0.13656597905E+03  0.12509000000E+03 0.  0.
         25    1    3    3    0    0 -0.18122300599E+02  0.76674852920E+02  0.14967338295E+03  0.21037366878E+03  0.12509000000E+03 0.  0.
         25    1    4    4    0    0  0.78418162030E+01 -0.40749911483E+02 -0.40984617978E+02  0.13801918844E+03  0.12509000000E+03 0.  0.
<mgrwt>
<rscale>  2 0.46157632E+03</rscale>
<asrwt>0</asrwt>
<pdfrwt beam="1">  1       21 0.46597675E-01 0.46157632E+03</pdfrwt>
<pdfrwt beam="2">  1       21 0.24719801E-01 0.46157632E+03</pdfrwt>
<totfact> 0.62988070E+04</totfact>
</mgrwt>
</event>
<event>
 7    0  0.4766352E-002  0.4520639E+03  0.7546771E-02  0.1027108E+00
         21   -1    0    0  502  501  0.00000000000E+00  0.00000000000E+00  0.71158691068E+02  0.71158691068E+02  0.00000000000E+00 0. -1.
         21   -1    0    0  501  502 -0.00000000000E+00 -0.00000000000E+00 -0.71797899469E+03  0.71797899469E+03  0.00000000000E+00 0. -1.
      99926    2    1    2    0    0  0.17763568394E-14 -0.35527136788E-14 -0.64682030362E+03  0.78913768576E+03  0.45206391352E+03 0.  0.
      99925    2    3    3    0    0 -0.14037731823E+02  0.24081687888E+02 -0.22128601783E+03  0.34472355221E+03  0.26284946292E+03 0.  0.
         25    1    4    4    0    0 -0.23438275982E+02 -0.28057804612E+01 -0.15418110844E+03  0.19994136012E+03  0.12509000000E+03 0.  0.
         25    1    4    4    0    0  0.94005441591E+01  0.26887468349E+02 -0.67104909381E+02  0.14478219209E+03  0.12509000000E+03 0.  0.
         25    1    3    3    0    0  0.14037731823E+02 -0.24081687888E+02 -0.42553428579E+03  0.44441413354E+03  0.12509000000E+03 0.  0.
<mgrwt>
<rscale>  2 0.45206391E+03</rscale>
<asrwt>0</asrwt>
<pdfrwt beam="1">  1       21 0.10464513E-01 0.45206391E+03</pdfrwt>
<pdfrwt beam="2">  1       21 0.10558515E+00 0.45206391E+03</pdfrwt>
<totfact> 0.49423832E+04</totfact>
</mgrwt>
</event>
<event>
 7    0  0.4766352E-002  0.4542805E+03  0.7546771E-02  0.1026453E+00
         21   -1    0    0  502  501  0.00000000000E+00  0.00000000000E+00  0.13218983801E+04  0.13218983801E+04  0.00000000000E+00 0. -1.
         21   -1    0    0  501  502 -0.00000000000E+00 -0.00000000000E+00 -0.39029240760E+02  0.39029240760E+02  0.00000000000E+00 0. -1.
      99926    2    1    2    0    0  0.00000000000E+00 -0.14210854715E-13  0.12828691394E+04  0.13609276209E+04  0.45428048665E+03 0.  0.
      99925    2    3    3    0    0  0.56949094620E+02  0.78472013677E+02  0.63706573519E+03  0.69601364054E+03  0.26302315594E+03 0.  0.
         25    1    4    4    0    0  0.61854221824E+02  0.66447520293E+02  0.35289619851E+03  0.38525894245E+03  0.12509000000E+03 0.  0.
         25    1    4    4    0    0 -0.49051272041E+01  0.12024493384E+02  0.28416953668E+03  0.31075469810E+03  0.12509000000E+03 0.  0.
         25    1    3    3    0    0 -0.56949094620E+02 -0.78472013677E+02  0.64580340418E+03  0.66491398035E+03  0.12509000000E+03 0.  0.
<mgrwt>
<rscale>  2 0.45428049E+03</rscale>
<asrwt>0</asrwt>
<pdfrwt beam="1">  1       21 0.19439679E+00 0.45428049E+03</pdfrwt>
<pdfrwt beam="2">  1       21 0.57395951E-02 0.45428049E+03</pdfrwt>
<totfact> 0.27545817E+04</totfact>
</mgrwt>
</event>
<event>
 7    0  0.4766352E-002  0.4324276E+03  0.7546771E-02  0.1033096E+00
         21   -1    0    0  502  501  0.00000000000E+00  0.00000000000E+00  0.86841312679E+03  0.86841312679E+03  0.00000000000E+00 0.  1.
         21   -1    0    0  501  502 -0.00000000000E+00 -0.00000000000E+00 -0.53831995880E+02  0.53831995880E+02  0.00000000000E+00 0.  1.
      99926    2    1    2    0    0  0.71054273576E-14 -0.35527136788E-14  0.81458113091E+03  0.92224512267E+03  0.43242762106E+03 0.  0.
      99925    2    3    3    0    0 -0.46886827537E+02  0.29057359961E+02  0.37142910404E+03  0.45848448206E+03  0.26306983140E+03 0.  0.
         25    1    4    4    0    0  0.14127232514E+01  0.10417516800E+02  0.23417123586E+03  0.26569568353E+03  0.12509000000E+03 0.  0.
         25    1    4    4    0    0 -0.48299550788E+02  0.18639843161E+02  0.13725786818E+03  0.19278879853E+03  0.12509000000E+03 0.  0.
         25    1    3    3    0    0  0.46886827537E+02 -0.29057359961E+02  0.44315202687E+03  0.46376064062E+03  0.12509000000E+03 0.  0.
<mgrwt>
<rscale>  2 0.43242762E+03</rscale>
<asrwt>0</asrwt>
<pdfrwt beam="1">  1       21 0.12770780E+00 0.43242762E+03</pdfrwt>
<pdfrwt beam="2">  1       21 0.79164705E-02 0.43242762E+03</pdfrwt>
<totfact> 0.50655371E+04</totfact>
</mgrwt>
</event>
<event>
 7    0  0.4766352E-002  0.4587062E+03  0.7546771E-02  0.1025157E+00
         21   -1    0    0  502  501  0.00000000000E+00  0.00000000000E+00  0.10123718078E+03  0.10123718078E+03  0.00000000000E+00 0.  1.
         21   -1    0    0  501  502 -0.00000000000E+00 -0.00000000000E+00 -0.51960002276E+03  0.51960002276E+03  0.00000000000E+00 0.  1.
      99926    2    1    2    0    0  0.00000000000E+00  0.00000000000E+00 -0.41836284198E+03  0.62083720355E+03  0.45870618675E+03 0.  0.
      99925    2    3    3    0    0  0.60684058245E+02  0.91229661944E+02 -0.31611369762E+03  0.42562500678E+03  0.26310334554E+03 0.  0.
         25    1    4    4    0    0  0.38244062459E+02  0.15780406061E+02 -0.10795305252E+03  0.17033202628E+03  0.12509000000E+03 0.  0.
         25    1    3    3    0    0 -0.60684058245E+02 -0.91229661944E+02 -0.10224914436E+03  0.19521219676E+03  0.12509000000E+03 0.  0.
         25    1    4    4    0    0  0.22439995785E+02  0.75449255883E+02 -0.20816064511E+03  0.25529298050E+03  0.12509000000E+03 0.  0.
<mgrwt>
<rscale>  2 0.45870619E+03</rscale>
<asrwt>0</asrwt>
<pdfrwt beam="1">  1       21 0.14887821E-01 0.45870619E+03</pdfrwt>
<pdfrwt beam="2">  1       21 0.76411767E-01 0.45870619E+03</pdfrwt>
<totfact> 0.55763688E+04</totfact>
</mgrwt>
</event>
<event>
 7    0  0.4766352E-002  0.4583655E+03  0.7546771E-02  0.1025256E+00
         21   -1    0    0  502  501  0.00000000000E+00  0.00000000000E+00  0.26250074508E+03  0.26250074508E+03  0.00000000000E+00 0. -1.
         21   -1    0    0  501  502 -0.00000000000E+00 -0.00000000000E+00 -0.20009366966E+03  0.20009366966E+03  0.00000000000E+00 0. -1.
      99926    2    1    2    0    0  0.00000000000E+00  0.00000000000E+00  0.62407075412E+02  0.46259441474E+03  0.45836551952E+03 0.  0.
      99925    2    3    3    0    0 -0.29823574265E+01 -0.97479569318E+02 -0.24930748358E+02  0.28152380848E+03  0.26291244101E+03 0.  0.
         25    1    3    3    0    0  0.29823574265E+01  0.97479569318E+02  0.87337823770E+02  0.18107060626E+03  0.12509000000E+03 0.  0.
         25    1    4    4    0    0  0.22310438588E+02 -0.83456241406E+02 -0.12474041990E+02  0.15253134013E+03  0.12509000000E+03 0.  0.
         25    1    4    4    0    0 -0.25292796015E+02 -0.14023327912E+02 -0.12456706368E+02  0.12899246834E+03  0.12509000000E+03 0.  0.
<mgrwt>
<rscale>  2 0.45836552E+03</rscale>
<asrwt>0</asrwt>
<pdfrwt beam="1">  1       21 0.38603051E-01 0.45836552E+03</pdfrwt>
<pdfrwt beam="2">  1       21 0.29425539E-01 0.45836552E+03</pdfrwt>
<totfact> 0.66197295E+04</totfact>
</mgrwt>
</event>
<event>
 7    0  0.4766352E-002  0.4635538E+03  0.7546771E-02  0.1023756E+00
         21   -1    0    0  502  501  0.00000000000E+00  0.00000000000E+00  0.10717965051E+04  0.10717965051E+04  0.00000000000E+00 0. -1.
         21   -1    0    0  501  502 -0.00000000000E+00 -0.00000000000E+00 -0.50121942776E+02  0.50121942776E+02  0.00000000000E+00 0. -1.
      99926    2    1    2    0    0  0.00000000000E+00  0.14210854715E-13  0.10216745624E+04  0.11219184479E+04  0.46355376430E+03 0.  0.
      99925    2    3    3    0    0 -0.86228372361E+02 -0.83002822192E+02  0.68205987616E+03  0.74072237779E+03  0.26294327450E+03 0.  0.
         25    1    3    3    0    0  0.86228372361E+02  0.83002822192E+02  0.33961468621E+03  0.38119607013E+03  0.12509000000E+03 0.  0.
         25    1    4    4    0    0 -0.10893051487E+02 -0.28194777951E+02  0.37224132912E+03  0.39385875549E+03  0.12509000000E+03 0.  0.
         25    1    4    4    0    0 -0.75335320874E+02 -0.54808044241E+02  0.30981854704E+03  0.34686362230E+03  0.12509000000E+03 0.  0.
<mgrwt>
<rscale>  2 0.46355376E+03</rscale>
<asrwt>0</asrwt>
<pdfrwt beam="1">  1       21 0.15761712E+00 0.46355376E+03</pdfrwt>
<pdfrwt beam="2">  1       21 0.73708746E-02 0.46355376E+03</pdfrwt>
<totfact> 0.32511156E+04</totfact>
</mgrwt>
</event>
<event>
 7    0  0.4766352E-002  0.4554346E+03  0.7546771E-02  0.1026114E+00
         21   -1    0    0  502  501  0.00000000000E+00  0.00000000000E+00  0.21611130310E+03  0.21611130310E+03  0.00000000000E+00 0.  1.
         21   -1    0    0  501  502 -0.00000000000E+00 -0.00000000000E+00 -0.23994655294E+03  0.23994655294E+03  0.00000000000E+00 0.  1.
      99926    2    1    2    0    0  0.00000000000E+00  0.00000000000E+00 -0.23835249847E+02  0.45605785604E+03  0.45543457150E+03 0.  0.
      99925    2    3    3    0    0  0.97809523744E+01  0.75069929235E+02  0.69778139673E+02  0.28244294855E+03  0.26300925669E+03 0.  0.
         25    1    3    3    0    0 -0.97809523744E+01 -0.75069929235E+02 -0.93613389520E+02  0.17361490749E+03  0.12509000000E+03 0.  0.
         25    1    4    4    0    0  0.22054289966E+02  0.37730070506E+02 -0.28834507817E+01  0.13253592839E+03  0.12509000000E+03 0.  0.
         25    1    4    4    0    0 -0.12273337591E+02  0.37339858729E+02  0.72661590454E+02  0.14990702016E+03  0.12509000000E+03 0.  0.
<mgrwt>
<rscale>  2 0.45543457E+03</rscale>
<asrwt>0</asrwt>
<pdfrwt beam="1">  1       21 0.31781074E-01 0.45543457E+03</pdfrwt>
<pdfrwt beam="2">  1       21 0.35286258E-01 0.45543457E+03</pdfrwt>
<totfact> 0.68231502E+04</totfact>
</mgrwt>
</event>
<event>
 6    0  0.4766352E-002  0.4581469E+03  0.7546771E-02  0.1025320E+00
         21   -1    0    0  502  501  0.00000000000E+00  0.00000000000E+00  0.29711459885E+03  0.29711459885E+03  0.00000000000E+00 0.  1.
         21   -1    0    0  501  502 -0.00000000000E+00 -0.00000000000E+00 -0.17661418892E+03  0.17661418892E+03  0.00000000000E+00 0.  1.
      99926    2    1    2    0    0  0.00000000000E+00  0.00000000000E+00  0.12050040993E+03  0.47372878777E+03  0.45814693666E+03 0.  0.
         25    1    3    3    0    0 -0.26702108091E+02 -0.78198759949E+02  0.70210119936E+02  0.16554460932E+03  0.12509000000E+03 0.  0.
         25    1    3    3    0    0 -0.27156106157E+02 -0.22176090136E+02 -0.55326553321E+01  0.13002827173E+03  0.12509000000E+03 0.  0.
         25    1    3    3    0    0  0.53858214249E+02  0.10037485009E+03  0.55822945327E+02  0.17815590671E+03  0.12509000000E+03 0.  0.
<mgrwt>
<rscale>  2 0.45814694E+03</rscale>
<asrwt>0</asrwt>
<pdfrwt beam="1">  1       21 0.43693324E-01 0.45814694E+03</pdfrwt>
<pdfrwt beam="2">  1       21 0.25972675E-01 0.45814694E+03</pdfrwt>
<totfact> 0.65508561E+04</totfact>
</mgrwt>
</event>
<event>
 7    0  0.4766352E-002  0.4556582E+03  0.7546771E-02  0.1026048E+00
         21   -1    0    0  502  501  0.00000000000E+00  0.00000000000E+00  0.64703801665E+03  0.64703801665E+03  0.00000000000E+00 0. -1.
         21   -1    0    0  501  502 -0.00000000000E+00 -0.00000000000E+00 -0.80221099310E+02  0.80221099310E+02  0.00000000000E+00 0. -1.
      99926    2    1    2    0    0  0.00000000000E+00 -0.14210854715E-13  0.56681691734E+03  0.72725911596E+03  0.45565820959E+03 0.  0.
      99925    2    3    3    0    0 -0.11537360064E+02  0.11140617950E+03  0.32414070388E+03  0.43215964089E+03  0.26296446869E+03 0.  0.
         25    1    4    4    0    0  0.79316769508E+01  0.76874191451E+02  0.12149523713E+03  0.19073844279E+03  0.12509000000E+03 0.  0.
         25    1    4    4    0    0 -0.19469037015E+02  0.34531988048E+02  0.20264546675E+03  0.24142119811E+03  0.12509000000E+03 0.  0.
         25    1    3    3    0    0  0.11537360064E+02 -0.11140617950E+03  0.24267621346E+03  0.29509947507E+03  0.12509000000E+03 0.  0.
<mgrwt>
<rscale>  2 0.45565821E+03</rscale>
<asrwt>0</asrwt>
<pdfrwt beam="1">  1       21 0.95152647E-01 0.45565821E+03</pdfrwt>
<pdfrwt beam="2">  1       21 0.11797221E-01 0.45565821E+03</pdfrwt>
<totfact> 0.51182423E+04</totfact>
</mgrwt>
</event>
<event>
 7    0  0.4766352E-002  0.4555169E+03  0.7546771E-02  0.1026089E+00
         21   -1    0    0  502  501  0.00000000000E+00  0.00000000000E+00  0.21237187299E+03  0.21237187299E+03  0.00000000000E+00 0.  1.
         21   -1    0    0  501  502 -0.00000000000E+00 -0.00000000000E+00 -0.24425984689E+03  0.24425984689E+03  0.00000000000E+00 0.  1.
      99926    2    1    2    0    0  0.00000000000E+00  0.71054273576E-14 -0.31887973904E+02  0.45663171988E+03  0.45551694230E+03 0.  0.
      99925    2    3    3    0    0 -0.84094453254E+02  0.36341386574E+02  0.47370224613E+02  0.28249974815E+03  0.26300113323E+03 0.  0.
         25    1    4    4    0    0 -0.62941925982E+02  0.14762847563E+01 -0.68220578327E+01  0.14020668328E+03  0.12509000000E+03 0.  0.
         25    1    3    3    0    0  0.84094453254E+02 -0.36341386574E+02 -0.79258198516E+02  0.17413197173E+03  0.12509000000E+03 0.  0.
         25    1    4    4    0    0 -0.21152527272E+02  0.34865101818E+02  0.54192282445E+02  0.14229306487E+03  0.12509000000E+03 0.  0.
<mgrwt>
<rscale>  2 0.45551694E+03</rscale>
<asrwt>0</asrwt>
<pdfrwt beam="1">  1       21 0.31231158E-01 0.45551694E+03</pdfrwt>
<pdfrwt beam="2">  1       21 0.35920566E-01 0.45551694E+03</pdfrwt>
<totfact> 0.68144954E+04</totfact>
</mgrwt>
</event>
<event>
 7    0  0.4766352E-002  0.4503807E+03  0.7546771E-02  0.1027609E+00
         21   -1    0    0  502  501  0.00000000000E+00  0.00000000000E+00  0.50618166410E+03  0.50618166410E+03  0.00000000000E+00 0.  1.
         21   -1    0    0  501  502 -0.00000000000E+00 -0.00000000000E+00 -0.10018277637E+03  0.10018277637E+03  0.00000000000E+00 0.  1.
      99926    2    1    2    0    0  0.00000000000E+00  0.00000000000E+00  0.40599888773E+03  0.60636444047E+03  0.45038065880E+03 0.  0.
      99925    2    3    3    0    0  0.44237813393E+02  0.85654892256E+02  0.18746755638E+03  0.33674026577E+03  0.26259508220E+03 0.  0.
         25    1    4    4    0    0 -0.48473950256E+01  0.11033054143E+02  0.92818609103E+02  0.15623068782E+03  0.12509000000E+03 0.  0.
         25    1    3    3    0    0 -0.44237813393E+02 -0.85654892256E+02  0.21853133135E+03  0.26962417470E+03  0.12509000000E+03 0.  0.
         25    1    4    4    0    0  0.49085208418E+02  0.74621838113E+02  0.94648947282E+02  0.18050957795E+03  0.12509000000E+03 0.  0.
<mgrwt>
<rscale>  2 0.45038066E+03</rscale>
<asrwt>0</asrwt>
<pdfrwt beam="1">  1       21 0.74438479E-01 0.45038066E+03</pdfrwt>
<pdfrwt beam="2">  1       21 0.14732761E-01 0.45038066E+03</pdfrwt>
<totfact> 0.60464606E+04</totfact>
</mgrwt>
</event>
<event>
 7    0  0.4766352E-002  0.4563035E+03  0.7546771E-02  0.1025859E+00
         21   -1    0    0  502  501  0.00000000000E+00  0.00000000000E+00  0.12511493874E+03  0.12511493874E+03  0.00000000000E+00 0.  1.
         21   -1    0    0  501  502 -0.00000000000E+00 -0.00000000000E+00 -0.41604321217E+03  0.41604321217E+03  0.00000000000E+00 0.  1.
      99926    2    1    2    0    0  0.35527136788E-14 -0.71054273576E-14 -0.29092827344E+03  0.54115815091E+03  0.45630349989E+03 0.  0.
      99925    2    3    3    0    0  0.24942388763E+02 -0.33205049170E+02 -0.30855982577E+03  0.40818041674E+03  0.26396474856E+03 0.  0.
         25    1    4    4    0    0  0.19816076188E+02  0.24595059917E+02 -0.15885841681E+03  0.20464871986E+03  0.12509000000E+03 0.  0.
         25    1    4    4    0    0  0.51263125746E+01 -0.57800109087E+02 -0.14970140895E+03  0.20353169688E+03  0.12509000000E+03 0.  0.
         25    1    3    3    0    0 -0.24942388763E+02  0.33205049170E+02  0.17631552331E+02  0.13297773417E+03  0.12509000000E+03 0.  0.
<mgrwt>
<rscale>  2 0.45630350E+03</rscale>
<asrwt>0</asrwt>
<pdfrwt beam="1">  1       21 0.18399256E-01 0.45630350E+03</pdfrwt>
<pdfrwt beam="2">  1       21 0.61182825E-01 0.45630350E+03</pdfrwt>
<totfact> 0.61814477E+04</totfact>
</mgrwt>
</event>
<event>
 7    0  0.4766352E-002  0.4507619E+03  0.7546771E-02  0.1027495E+00
         21   -1    0    0  502  501  0.00000000000E+00  0.00000000000E+00  0.73321884745E+03  0.73321884745E+03  0.00000000000E+00 0.  1.
         21   -1    0    0  501  502 -0.00000000000E+00 -0.00000000000E+00 -0.69278861102E+02  0.69278861102E+02  0.00000000000E+00 0.  1.
      99926    2    1    2    0    0  0.00000000000E+00  0.00000000000E+00  0.66393998635E+03  0.80249770855E+03  0.45076187368E+03 0.  0.
      99925    2    3    3    0    0  0.36334946101E+02  0.69901240303E+02  0.55387878028E+03  0.61819526992E+03  0.26301573490E+03 0.  0.
         25    1    4    4    0    0 -0.11130278203E+02  0.51463030853E+02  0.22645744126E+03  0.26401289256E+03  0.12509000000E+03 0.  0.
         25    1    3    3    0    0 -0.36334946101E+02 -0.69901240303E+02  0.11006120607E+03  0.18430243863E+03  0.12509000000E+03 0.  0.
         25    1    4    4    0    0  0.47465224304E+02  0.18438209449E+02  0.32742133902E+03  0.35418237736E+03  0.12509000000E+03 0.  0.
<mgrwt>
<rscale>  2 0.45076187E+03</rscale>
<asrwt>0</asrwt>
<pdfrwt beam="1">  1       21 0.10782630E+00 0.45076187E+03</pdfrwt>
<pdfrwt beam="2">  1       21 0.10188068E-01 0.45076187E+03</pdfrwt>
<totfact> 0.49262351E+04</totfact>
</mgrwt>
</event>
<event>
 7    0  0.4766352E-002  0.4447343E+03  0.7546771E-02  0.1029304E+00
         21   -1    0    0  502  501  0.00000000000E+00  0.00000000000E+00  0.50289094585E+03  0.50289094585E+03  0.00000000000E+00 0.  1.
         21   -1    0    0  501  502 -0.00000000000E+00 -0.00000000000E+00 -0.98325768397E+02  0.98325768397E+02  0.00000000000E+00 0.  1.
      99926    2    1    2    0    0  0.17763568394E-14  0.00000000000E+00  0.40456517745E+03  0.60121671425E+03  0.44473425175E+03 0.  0.
      99925    2    3    3    0    0  0.14510030821E+02  0.68050220388E+02  0.36010937426E+03  0.45133275905E+03  0.26302304931E+03 0.  0.
         25    1    4    4    0    0 -0.31058153216E+02  0.47138167312E+02  0.18679109678E+03  0.23178662091E+03  0.12509000000E+03 0.  0.
         25    1    4    4    0    0  0.45568184038E+02  0.20912053076E+02  0.17331827748E+03  0.21954613813E+03  0.12509000000E+03 0.  0.
         25    1    3    3    0    0 -0.14510030821E+02 -0.68050220388E+02  0.44455803195E+02  0.14988395520E+03  0.12509000000E+03 0.  0.
<mgrwt>
<rscale>  2 0.44473425E+03</rscale>
<asrwt>0</asrwt>
<pdfrwt beam="1">  1       21 0.73954550E-01 0.44473425E+03</pdfrwt>
<pdfrwt beam="2">  1       21 0.14459672E-01 0.44473425E+03</pdfrwt>
<totfact> 0.63607488E+04</totfact>
</mgrwt>
</event>
<event>
 7    0  0.4766352E-002  0.4473107E+03  0.7546771E-02  0.1028527E+00
         21   -1    0    0  502  501  0.00000000000E+00  0.00000000000E+00  0.22823229128E+03  0.22823229128E+03  0.00000000000E+00 0. -1.
         21   -1    0    0  501  502 -0.00000000000E+00 -0.00000000000E+00 -0.21917020745E+03  0.21917020745E+03  0.00000000000E+00 0. -1.
      99926    2    1    2    0    0  0.17763568394E-14 -0.14210854715E-13  0.90620838308E+01  0.44740249873E+03  0.44731071360E+03 0.  0.
      99925    2    3    3    0    0  0.12199858810E+02 -0.94651668911E+02 -0.39504930003E+02  0.28273909078E+03  0.26319760443E+03 0.  0.
         25    1    4    4    0    0  0.15065588262E+02 -0.48580781323E+02 -0.60130227475E+02  0.14781818772E+03  0.12509000000E+03 0.  0.
         25    1    4    4    0    0 -0.28657294514E+01 -0.46070887589E+02  0.20625297472E+02  0.13492090307E+03  0.12509000000E+03 0.  0.
         25    1    3    3    0    0 -0.12199858810E+02  0.94651668911E+02  0.48567013834E+02  0.16466340794E+03  0.12509000000E+03 0.  0.
<mgrwt>
<rscale>  2 0.44731071E+03</rscale>
<asrwt>0</asrwt>
<pdfrwt beam="1">  1       21 0.33563572E-01 0.44731071E+03</pdfrwt>
<pdfrwt beam="2">  1       21 0.32230913E-01 0.44731071E+03</pdfrwt>
<totfact> 0.73513779E+04</totfact>
</mgrwt>
</event>
<event>
 7    0  0.4766352E-002  0.4490060E+03  0.7546771E-02  0.1028019E+00
         21   -1    0    0  502  501  0.00000000000E+00  0.00000000000E+00  0.19898933554E+03  0.19898933554E+03  0.00000000000E+00 0. -1.
         21   -1    0    0  501  502 -0.00000000000E+00 -0.00000000000E+00 -0.25328798306E+03  0.25328798306E+03  0.00000000000E+00 0. -1.
      99926    2    1    2    0    0  0.66613381478E-15  0.00000000000E+00 -0.54298647521E+02  0.45227731861E+03  0.44900604651E+03 0.  0.
      99925    2    3    3    0    0  0.14412000451E+01 -0.10194981742E+03 -0.19235634520E+00  0.28206908974E+03  0.26299637270E+03 0.  0.
         25    1    3    3    0    0 -0.14412000451E+01  0.10194981742E+03 -0.54106291176E+02  0.17020822887E+03  0.12509000000E+03 0.  0.
         25    1    4    4    0    0 -0.45623005815E+01 -0.78455886624E+01  0.16041717526E+00  0.12541890480E+03  0.12509000000E+03 0.  0.
         25    1    4    4    0    0  0.60035006266E+01 -0.94104228761E+02 -0.35277352046E+00  0.15665018493E+03  0.12509000000E+03 0.  0.
<mgrwt>
<rscale>  2 0.44900605E+03</rscale>
<asrwt>0</asrwt>
<pdfrwt beam="1">  1       21 0.29263138E-01 0.44900605E+03</pdfrwt>
<pdfrwt beam="2">  1       21 0.37248232E-01 0.44900605E+03</pdfrwt>
<totfact> 0.72133948E+04</totfact>
</mgrwt>
</event>
<event>
 7    0  0.4766352E-002  0.4569532E+03  0.7546771E-02  0.1025669E+00
         21   -1    0    0  502  501  0.00000000000E+00  0.00000000000E+00  0.10602590013E+04  0.10602590013E+04  0.00000000000E+00 0.  1.
         21   -1    0    0  501  502 -0.00000000000E+00 -0.00000000000E+00 -0.49234726394E+02  0.49234726394E+02  0.00000000000E+00 0.  1.
      99926    2    1    2    0    0  0.00000000000E+00  0.71054273576E-14  0.10110242749E+04  0.11094937276E+04  0.45695322226E+03 0.  0.
      99925    2    3    3    0    0 -0.69816557988E+02 -0.58504333210E+02  0.80550058052E+03  0.85223003839E+03  0.26299761282E+03 0.  0.
         25    1    3    3    0    0  0.69816557988E+02  0.58504333210E+02  0.20552369433E+03  0.25726368925E+03  0.12509000000E+03 0.  0.
         25    1    4    4    0    0 -0.47658336982E+02 -0.35151928332E+02  0.29832647954E+03  0.32886649517E+03  0.12509000000E+03 0.  0.
         25    1    4    4    0    0 -0.22158221005E+02 -0.23352404879E+02  0.50717410098E+03  0.52336354322E+03  0.12509000000E+03 0.  0.
<mgrwt>
<rscale>  2 0.45695322E+03</rscale>
<asrwt>0</asrwt>
<pdfrwt beam="1">  1       21 0.15592043E+00 0.45695322E+03</pdfrwt>
<pdfrwt beam="2">  1       21 0.72404016E-02 0.45695322E+03</pdfrwt>
<totfact> 0.34633363E+04</totfact>
</mgrwt>
</event>
<event>
 7    0  0.4766352E-002  0.4417507E+03  0.7546771E-02  0.1030211E+00
         21   -1    0    0  502  501  0.00000000000E+00  0.00000000000E+00  0.31752641193E+02  0.31752641193E+02  0.00000000000E+00 0. -1.
         21   -1    0    0  501  502 -0.00000000000E+00 -0.00000000000E+00 -0.15364367851E+04  0.15364367851E+04  0.00000000000E+00 0. -1.
      99926    2    1    2    0    0  0.00000000000E+00 -0.26645352591E-14 -0.15046841439E+04  0.15681894263E+04  0.44175072588E+03 0.  0.
      99925    2    3    3    0    0 -0.44486667489E+02  0.58256064383E+01 -0.64066725668E+03  0.69401227561E+03  0.26303137385E+03 0.  0.
         25    1    4    4    0    0  0.42946990603E+01  0.32549303234E+02 -0.33460694659E+03  0.35873000765E+03  0.12509000000E+03 0.  0.
         25    1    3    3    0    0  0.44486667489E+02 -0.58256064383E+01 -0.86401688722E+03  0.87417715068E+03  0.12509000000E+03 0.  0.
         25    1    4    4    0    0 -0.48781366550E+02 -0.26723696796E+02 -0.30606031009E+03  0.33528226796E+03  0.12509000000E+03 0.  0.
<mgrwt>
<rscale>  2 0.44175073E+03</rscale>
<asrwt>0</asrwt>
<pdfrwt beam="1">  1       21 0.46695049E-02 0.44175073E+03</pdfrwt>
<pdfrwt beam="2">  1       21 0.22594664E+00 0.44175073E+03</pdfrwt>
<totfact> 0.24591005E+04</totfact>
</mgrwt>
</event>
<event>
 7    0  0.4766352E-002  0.4527224E+03  0.7546771E-02  0.1026913E+00
         21   -1    0    0  502  501  0.00000000000E+00  0.00000000000E+00  0.22683444683E+03  0.22683444683E+03  0.00000000000E+00 0.  1.
         21   -1    0    0  501  502 -0.00000000000E+00 -0.00000000000E+00 -0.22588894128E+03  0.22588894128E+03  0.00000000000E+00 0.  1.
      99926    2    1    2    0    0  0.17763568394E-14  0.14210854715E-13  0.94550554812E+00  0.45272338811E+03  0.45272240078E+03 0.  0.
      99925    2    3    3    0    0  0.12247386668E+02  0.10677600777E+03  0.28088934982E+02  0.28558455906E+03  0.26309397140E+03 0.  0.
         25    1    3    3    0    0 -0.12247386668E+02 -0.10677600777E+03 -0.27143429434E+02  0.16713882905E+03  0.12509000000E+03 0.  0.
         25    1    4    4    0    0 -0.34096206561E+02  0.45685917005E+02  0.14837324375E+02  0.13826571740E+03  0.12509000000E+03 0.  0.
         25    1    4    4    0    0  0.46343593229E+02  0.61090090767E+02  0.13251610607E+02  0.14731884166E+03  0.12509000000E+03 0.  0.
<mgrwt>
<rscale>  2 0.45272240E+03</rscale>
<asrwt>0</asrwt>
<pdfrwt beam="1">  1       21 0.33358007E-01 0.45272240E+03</pdfrwt>
<pdfrwt beam="2">  1       21 0.33218962E-01 0.45272240E+03</pdfrwt>
<totfact> 0.69975939E+04</totfact>
</mgrwt>
</event>
<event>
 7    0  0.4766352E-002  0.4530898E+03  0.7546771E-02  0.1026805E+00
         21   -1    0    0  502  501  0.00000000000E+00  0.00000000000E+00  0.14144842733E+03  0.14144842733E+03  0.00000000000E+00 0. -1.
         21   -1    0    0  501  502 -0.00000000000E+00 -0.00000000000E+00 -0.36283601211E+03  0.36283601211E+03  0.00000000000E+00 0. -1.
      99926    2    1    2    0    0  0.00000000000E+00 -0.14210854715E-13 -0.22138758478E+03  0.50428443943E+03  0.45308976281E+03 0.  0.
      99925    2    3    3    0    0  0.23658484201E+02 -0.92758942254E+02 -0.76284906940E+02  0.29012038909E+03  0.26303328287E+03 0.  0.
         25    1    4    4    0    0  0.19289798288E+02 -0.29733445856E+02  0.11335348197E+01  0.13001910291E+03  0.12509000000E+03 0.  0.
         25    1    4    4    0    0  0.43686859124E+01 -0.63025496399E+02 -0.77418441760E+02  0.16010128618E+03  0.12509000000E+03 0.  0.
         25    1    3    3    0    0 -0.23658484201E+02  0.92758942254E+02 -0.14510267784E+03  0.21416405034E+03  0.12509000000E+03 0.  0.
<mgrwt>
<rscale>  2 0.45308976E+03</rscale>
<asrwt>0</asrwt>
<pdfrwt beam="1">  1       21 0.20801239E-01 0.45308976E+03</pdfrwt>
<pdfrwt beam="2">  1       21 0.53358237E-01 0.45308976E+03</pdfrwt>
<totfact> 0.65965207E+04</totfact>
</mgrwt>
</event>
<event>
 7    0  0.4766352E-002  0.4522384E+03  0.7546771E-02  0.1027057E+00
         21   -1    0    0  502  501  0.00000000000E+00  0.00000000000E+00  0.10323035172E+03  0.10323035172E+03  0.00000000000E+00 0.  1.
         21   -1    0    0  501  502 -0.00000000000E+00 -0.00000000000E+00 -0.49529896488E+03  0.49529896488E+03  0.00000000000E+00 0.  1.
      99926    2    1    2    0    0 -0.71054273576E-14  0.00000000000E+00 -0.39206861316E+03  0.59852931660E+03  0.45223837232E+03 0.  0.
      99925    2    3    3    0    0 -0.58451182696E+02 -0.73697204497E+02 -0.32402203346E+03  0.42786689010E+03  0.26311970425E+03 0.  0.
         25    1    4    4    0    0  0.56303483359E+01 -0.12044911191E+02 -0.13884067583E+03  0.18735266764E+03  0.12509000000E+03 0.  0.
         25    1    3    3    0    0  0.58451182696E+02  0.73697204497E+02 -0.68046579705E+02  0.17066242650E+03  0.12509000000E+03 0.  0.
         25    1    4    4    0    0 -0.64081531032E+02 -0.61652293306E+02 -0.18518135763E+03  0.24051422246E+03  0.12509000000E+03 0.  0.
<mgrwt>
<rscale>  2 0.45223837E+03</rscale>
<asrwt>0</asrwt>
<pdfrwt beam="1">  1       21 0.15180934E-01 0.45223837E+03</pdfrwt>
<pdfrwt beam="2">  1       21 0.72838082E-01 0.45223837E+03</pdfrwt>
<totfact> 0.60068955E+04</totfact>
</mgrwt>
</event>
<event>
 7    0  0.4766352E-002  0.4536587E+03  0.7546771E-02  0.1026637E+00
         21   -1    0    0  502  501  0.00000000000E+00  0.00000000000E+00  0.20630051806E+04  0.20630051806E+04  0.00000000000E+00 0. -1.
         21   -1    0    0  501  502 -0.00000000000E+00 -0.00000000000E+00 -0.24940103780E+02  0.24940103780E+02  0.00000000000E+00 0. -1.
      99926    2    1    2    0    0  0.00000000000E+00  0.00000000000E+00  0.20380650768E+04  0.20879452844E+04  0.45365874092E+03 0.  0.
      99925    2    3    3    0    0  0.74098316940E+02 -0.75217618237E+02  0.14482286823E+04  0.14758156159E+04  0.26366108008E+03 0.  0.
         25    1    3    3    0    0 -0.74098316940E+02  0.75217618237E+02  0.58983639452E+03  0.61212966851E+03  0.12509000000E+03 0.  0.
         25    1    4    4    0    0  0.14245785083E+02 -0.15042038370E+02  0.51227716013E+03  0.52773535243E+03  0.12509000000E+03 0.  0.
         25    1    4    4    0    0  0.59852531857E+02 -0.60175579867E+02  0.93595152219E+03  0.94808026347E+03  0.12509000000E+03 0.  0.
<mgrwt>
<rscale>  2 0.45365874E+03</rscale>
<asrwt>0</asrwt>
<pdfrwt beam="1">  1       21 0.30338300E+00 0.45365874E+03</pdfrwt>
<pdfrwt beam="2">  1       21 0.36676637E-02 0.45365874E+03</pdfrwt>
<totfact> 0.12455845E+04</totfact>
</mgrwt>
</event>
<event>
 7    0  0.4766352E-002  0.4587882E+03  0.7546771E-02  0.1025133E+00
         21   -1    0    0  502  501  0.00000000000E+00  0.00000000000E+00  0.10948159654E+04  0.10948159654E+04  0.00000000000E+00 0.  1.
         21   -1    0    0  501  502 -0.00000000000E+00 -0.00000000000E+00 -0.48064372481E+02  0.48064372481E+02  0.00000000000E+00 0.  1.
      99926    2    1    2    0    0  0.35527136788E-14  0.00000000000E+00  0.10467515929E+04  0.11428803379E+04  0.45878815311E+03 0.  0.
      99925    2    3    3    0    0  0.27388036533E+02 -0.79863719886E+02  0.85713617617E+03  0.90053795060E+03  0.26297881603E+03 0.  0.
         25    1    4    4    0    0 -0.22102210457E+02 -0.33827834434E+02  0.47320975758E+03  0.49112912035E+03  0.12509000000E+03 0.  0.
         25    1    4    4    0    0  0.49490246990E+02 -0.46035885451E+02  0.38392641859E+03  0.40940883025E+03  0.12509000000E+03 0.  0.
         25    1    3    3    0    0 -0.27388036533E+02  0.79863719886E+02  0.18961541672E+03  0.24234238725E+03  0.12509000000E+03 0.  0.
<mgrwt>
<rscale>  2 0.45878815E+03</rscale>
<asrwt>0</asrwt>
<pdfrwt beam="1">  1       21 0.16100233E+00 0.45878815E+03</pdfrwt>
<pdfrwt beam="2">  1       21 0.70682908E-02 0.45878815E+03</pdfrwt>
<totfact> 0.33034762E+04</totfact>
</mgrwt>
</event>
<event>
 7    0  0.4766352E-002  0.4549637E+03  0.7546771E-02  0.1026252E+00
         21   -1    0    0  502  501  0.00000000000E+00  0.00000000000E+00  0.70550989523E+03  0.70550989523E+03  0.00000000000E+00 0.  1.
         21   -1    0    0  501  502 -0.00000000000E+00 -0.00000000000E+00 -0.73348370863E+02  0.73348370863E+02  0.00000000000E+00 0.  1.
      99926    2    1    2    0    0  0.00000000000E+00 -0.88817841970E-15  0.63216152437E+03  0.77885826610E+03  0.45496374116E+03 0.  0.
      99925    2    3    3    0    0 -0.84912065779E+02 -0.62684119318E+01  0.52526639097E+03  0.59359243129E+03  0.26305482526E+03 0.  0.
         25    1    4    4    0    0 -0.77578023737E+02  0.12709782753E+02  0.31811426495E+03  0.35074788953E+03  0.12509000000E+03 0.  0.
         25    1    3    3    0    0  0.84912065779E+02  0.62684119318E+01  0.10689513340E+03  0.18526583481E+03  0.12509000000E+03 0.  0.
         25    1    4    4    0    0 -0.73340420421E+01 -0.18978194685E+02  0.20715212603E+03  0.24284454176E+03  0.12509000000E+03 0.  0.
<mgrwt>
<rscale>  2 0.45496374E+03</rscale>
<asrwt>0</asrwt>
<pdfrwt beam="1">  1       21 0.10375145E+00 0.45496374E+03</pdfrwt>
<pdfrwt beam="2">  1       21 0.10786526E-01 0.45496374E+03</pdfrwt>
<totfact> 0.48818340E+04</totfact>
</mgrwt>
</event>
<event>
 7    0  0.4766352E-002  0.4573956E+03  0.7546771E-02  0.1025539E+00
         21   -1    0    0  502  501  0.00000000000E+00  0.00000000000E+00  0.22214964155E+03  0.22214964155E+03  0.00000000000E+00 0.  1.
         21   -1    0    0  501  502 -0.00000000000E+00 -0.00000000000E+00 -0.23543898752E+03  0.23543898752E+03  0.00000000000E+00 0.  1.
      99926    2    1    2    0    0  0.71054273576E-14  0.00000000000E+00 -0.13289345961E+02  0.45758862907E+03  0.45739561294E+03 0.  0.
      99925    2    3    3    0    0  0.39004633066E+02  0.83588419841E+02  0.61037540771E+02  0.28530868385E+03  0.26299634668E+03 0.  0.
         25    1    4    4    0    0 -0.32211572874E+01  0.30647542461E+02 -0.40216362161E+01  0.12889270488E+03  0.12509000000E+03 0.  0.
         25    1    3    3    0    0 -0.39004633066E+02 -0.83588419841E+02 -0.74326886732E+02  0.17227994522E+03  0.12509000000E+03 0.  0.
         25    1    4    4    0    0  0.42225790354E+02  0.52940877380E+02  0.65059176987E+02  0.15641597898E+03  0.12509000000E+03 0.  0.
<mgrwt>
<rscale>  2 0.45739561E+03</rscale>
<asrwt>0</asrwt>
<pdfrwt beam="1">  1       21 0.32669065E-01 0.45739561E+03</pdfrwt>
<pdfrwt beam="2">  1       21 0.34623380E-01 0.45739561E+03</pdfrwt>
<totfact> 0.67065462E+04</totfact>
</mgrwt>
</event>
<event>
 7    0  0.4766352E-002  0.4508663E+03  0.7546771E-02  0.1027464E+00
         21   -1    0    0  502  501  0.00000000000E+00  0.00000000000E+00  0.92948109279E+03  0.92948109279E+03  0.00000000000E+00 0. -1.
         21   -1    0    0  501  502 -0.00000000000E+00 -0.00000000000E+00 -0.54675782699E+02  0.54675782699E+02  0.00000000000E+00 0. -1.
      99926    2    1    2    0    0  0.00000000000E+00  0.00000000000E+00  0.87480531009E+03  0.98415687549E+03  0.45086630503E+03 0.  0.
      99925    2    3    3    0    0  0.60161863411E+02 -0.79969736106E+02  0.45706705471E+03  0.53675619756E+03  0.26302531174E+03 0.  0.
         25    1    4    4    0    0  0.28394964076E+02 -0.28879320537E+02  0.29753151029E+03  0.32528878993E+03  0.12509000000E+03 0.  0.
         25    1    4    4    0    0  0.31766899334E+02 -0.51090415569E+02  0.15953554442E+03  0.21146740763E+03  0.12509000000E+03 0.  0.
         25    1    3    3    0    0 -0.60161863411E+02  0.79969736106E+02  0.41773825538E+03  0.44740067792E+03  0.12509000000E+03 0.  0.
<mgrwt>
<rscale>  2 0.45086631E+03</rscale>
<asrwt>0</asrwt>
<pdfrwt beam="1">  1       21 0.13668839E+00 0.45086631E+03</pdfrwt>
<pdfrwt beam="2">  1       21 0.80405568E-02 0.45086631E+03</pdfrwt>
<totfact> 0.41099483E+04</totfact>
</mgrwt>
</event>
<event>
 7    0  0.4766352E-002  0.4504218E+03  0.7546771E-02  0.1027596E+00
         21   -1    0    0  502  501  0.00000000000E+00  0.00000000000E+00  0.13639461358E+04  0.13639461358E+04  0.00000000000E+00 0.  1.
         21   -1    0    0  501  502 -0.00000000000E+00 -0.00000000000E+00 -0.37186185543E+02  0.37186185543E+02  0.00000000000E+00 0.  1.
      99926    2    1    2    0    0 -0.71054273576E-14  0.00000000000E+00  0.13267599502E+04  0.14011323213E+04  0.45042182042E+03 0.  0.
      99925    2    3    3    0    0  0.47097557280E+02 -0.34963434687E+02  0.11234437400E+04  0.11553161072E+04  0.26303773305E+03 0.  0.
         25    1    4    4    0    0 -0.18979322320E+01 -0.12081276913E+02  0.67579328132E+03  0.68738171825E+03  0.12509000000E+03 0.  0.
         25    1    4    4    0    0  0.48995489512E+02 -0.22882157774E+02  0.44765045869E+03  0.46793438900E+03  0.12509000000E+03 0.  0.
         25    1    3    3    0    0 -0.47097557280E+02  0.34963434687E+02  0.20331621022E+03  0.24581621408E+03  0.12509000000E+03 0.  0.
<mgrwt>
<rscale>  2 0.45042182E+03</rscale>
<asrwt>0</asrwt>
<pdfrwt beam="1">  1       21 0.20058028E+00 0.45042182E+03</pdfrwt>
<pdfrwt beam="2">  1       21 0.54685576E-02 0.45042182E+03</pdfrwt>
<totfact> 0.27258837E+04</totfact>
</mgrwt>
</event>
<event>
 7    0  0.4766352E-002  0.4704478E+03  0.7546771E-02  0.1021794E+00
         21   -1    0    0  502  501  0.00000000000E+00  0.00000000000E+00  0.16207630381E+03  0.16207630381E+03  0.00000000000E+00 0. -1.
         21   -1    0    0  501  502 -0.00000000000E+00 -0.00000000000E+00 -0.34138409733E+03  0.34138409733E+03  0.00000000000E+00 0. -1.
      99926    2    1    2    0    0 -0.17763568394E-14  0.00000000000E+00 -0.17930779352E+03  0.50346040115E+03  0.47044775555E+03 0.  0.
      99925    2    3    3    0    0  0.13570045491E+02 -0.65636995347E+02  0.42366415100E+01  0.27145085603E+03  0.26301189482E+03 0.  0.
         25    1    3    3    0    0 -0.13570045491E+02  0.65636995347E+02 -0.18354443503E+03  0.23200954511E+03  0.12509000000E+03 0.  0.
         25    1    4    4    0    0 -0.32486881232E+02 -0.38206286663E+02 -0.65781908980E+01  0.13492923511E+03  0.12509000000E+03 0.  0.
         25    1    4    4    0    0  0.46056926724E+02 -0.27430708685E+02  0.10814832408E+02  0.13652162092E+03  0.12509000000E+03 0.  0.
<mgrwt>
<rscale>  2 0.47044776E+03</rscale>
<asrwt>0</asrwt>
<pdfrwt beam="1">  1       21 0.23834751E-01 0.47044776E+03</pdfrwt>
<pdfrwt beam="2">  1       21 0.50203543E-01 0.47044776E+03</pdfrwt>
<totfact> 0.57630088E+04</totfact>
</mgrwt>
</event>
<event>
 7    0  0.4766352E-002  0.4519420E+03  0.7546771E-02  0.1027145E+00
         21   -1    0    0  502  501  0.00000000000E+00  0.00000000000E+00  0.42647831129E+03  0.42647831129E+03  0.00000000000E+00 0.  1.
         21   -1    0    0  501  502 -0.00000000000E+00 -0.00000000000E+00 -0.11973150232E+03  0.11973150232E+03  0.00000000000E+00 0.  1.
      99926    2    1    2    0    0  0.00000000000E+00 -0.13322676296E-14  0.30674680897E+03  0.54620981361E+03  0.45194198263E+03 0.  0.
      99925    2    3    3    0    0 -0.54009260674E+02 -0.17495428738E+01  0.30978157216E+03  0.40991315544E+03  0.26295267905E+03 0.  0.
         25    1    3    3    0    0  0.54009260674E+02  0.17495428738E+01 -0.30347631868E+01  0.13629665816E+03  0.12509000000E+03 0.  0.
         25    1    4    4    0    0 -0.13293009237E+02 -0.28481374041E+02  0.19217149069E+03  0.23144174795E+03  0.12509000000E+03 0.  0.
         25    1    4    4    0    0 -0.40716251437E+02  0.26731831167E+02  0.11761008147E+03  0.17847140749E+03  0.12509000000E+03 0.  0.
<mgrwt>
<rscale>  2 0.45194198E+03</rscale>
<asrwt>0</asrwt>
<pdfrwt beam="1">  1       21 0.62717398E-01 0.45194198E+03</pdfrwt>
<pdfrwt beam="2">  1       21 0.17607574E-01 0.45194198E+03</pdfrwt>
<totfact> 0.63643727E+04</totfact>
</mgrwt>
</event>
<event>
 7    0  0.4766352E-002  0.4455503E+03  0.7546771E-02  0.1029057E+00
         21   -1    0    0  502  501  0.00000000000E+00  0.00000000000E+00  0.67567830107E+03  0.67567830107E+03  0.00000000000E+00 0.  1.
         21   -1    0    0  501  502 -0.00000000000E+00 -0.00000000000E+00 -0.73450282412E+02  0.73450282412E+02  0.00000000000E+00 0.  1.
      99926    2    1    2    0    0  0.00000000000E+00 -0.27478019859E-14  0.60222801866E+03  0.74912858348E+03  0.44555027565E+03 0.  0.
      99925    2    3    3    0    0  0.68980929793E+02  0.16524120687E+00  0.51328970474E+03  0.58085521137E+03  0.26299821217E+03 0.  0.
         25    1    3    3    0    0 -0.68980929793E+02 -0.16524120687E+00  0.88938313918E+02  0.16827337211E+03  0.12509000000E+03 0.  0.
         25    1    4    4    0    0  0.18685753756E+02  0.37623068266E+02  0.24665613852E+03  0.27973453743E+03  0.12509000000E+03 0.  0.
         25    1    4    4    0    0  0.50295176037E+02 -0.37457827059E+02  0.26663356622E+03  0.30112067394E+03  0.12509000000E+03 0.  0.
<mgrwt>
<rscale>  2 0.44555028E+03</rscale>
<asrwt>0</asrwt>
<pdfrwt beam="1">  1       21 0.99364452E-01 0.44555028E+03</pdfrwt>
<pdfrwt beam="2">  1       21 0.10801513E-01 0.44555028E+03</pdfrwt>
<totfact> 0.54232475E+04</totfact>
</mgrwt>
</event>
<event>
 7    0  0.4766352E-002  0.4546056E+03  0.7546771E-02  0.1026357E+00
         21   -1    0    0  502  501  0.00000000000E+00  0.00000000000E+00  0.17228563161E+03  0.17228563161E+03  0.00000000000E+00 0.  1.
         21   -1    0    0  501  502 -0.00000000000E+00 -0.00000000000E+00 -0.29988904209E+03  0.29988904209E+03  0.00000000000E+00 0.  1.
      99926    2    1    2    0    0  0.00000000000E+00  0.00000000000E+00 -0.12760341048E+03  0.47217467371E+03  0.45460564462E+03 0.  0.
      99925    2    3    3    0    0 -0.77668444798E+02 -0.36202963513E+02 -0.15628906221E+03  0.31785871018E+03  0.26318215514E+03 0.  0.
         25    1    3    3    0    0  0.77668444798E+02  0.36202963513E+02  0.28685651729E+02  0.15431596353E+03  0.12509000000E+03 0.  0.
         25    1    4    4    0    0 -0.44275294559E+02 -0.58857562729E+02 -0.87766787145E+02  0.16963204716E+03  0.12509000000E+03 0.  0.
         25    1    4    4    0    0 -0.33393150240E+02  0.22654599216E+02 -0.68522275066E+02  0.14822666302E+03  0.12509000000E+03 0.  0.
<mgrwt>
<rscale>  2 0.45460564E+03</rscale>
<asrwt>0</asrwt>
<pdfrwt beam="1">  1       21 0.25336122E-01 0.45460564E+03</pdfrwt>
<pdfrwt beam="2">  1       21 0.44101330E-01 0.45460564E+03</pdfrwt>
<totfact> 0.67485264E+04</totfact>
</mgrwt>
</event>
<event>
 7    0  0.4766352E-002  0.4571858E+03  0.7546771E-02  0.1025601E+00
         21   -1    0    0  502  501  0.00000000000E+00  0.00000000000E+00  0.26684616528E+03  0.26684616528E+03  0.00000000000E+00 0.  1.
         21   -1    0    0  501  502 -0.00000000000E+00 -0.00000000000E+00 -0.19582335742E+03  0.19582335742E+03  0.00000000000E+00 0.  1.
      99926    2    1    2    0    0 -0.17763568394E-14  0.00000000000E+00  0.71022807863E+02  0.46266952270E+03  0.45718579156E+03 0.  0.
      99925    2    3    3    0    0 -0.50949501678E+01 -0.40875764920E+02  0.15346062394E+03  0.30729807007E+03  0.26303070941E+03 0.  0.
         25    1    3    3    0    0  0.50949501678E+01  0.40875764920E+02 -0.82437816073E+02  0.15537145264E+03  0.12509000000E+03 0.  0.
         25    1    4    4    0    0 -0.35513603740E+02  0.32342212456E+01  0.78768906327E+02  0.15206487083E+03  0.12509000000E+03 0.  0.
         25    1    4    4    0    0  0.30418653572E+02 -0.44109986166E+02  0.74691717609E+02  0.15523319923E+03  0.12509000000E+03 0.  0.
<mgrwt>
<rscale>  2 0.45718579E+03</rscale>
<asrwt>0</asrwt>
<pdfrwt beam="1">  1       21 0.39242083E-01 0.45718579E+03</pdfrwt>
<pdfrwt beam="2">  1       21 0.28797553E-01 0.45718579E+03</pdfrwt>
<totfact> 0.66814197E+04</totfact>
</mgrwt>
</event>
<event>
 7    0  0.4766352E-002  0.4634782E+03  0.7546771E-02  0.1023777E+00
         21   -1    0    0  502  501  0.00000000000E+00  0.00000000000E+00  0.40651918354E+02  0.40651918354E+02  0.00000000000E+00 0. -1.
         21   -1    0    0  501  502 -0.00000000000E+00 -0.00000000000E+00 -0.13210448971E+04  0.13210448971E+04  0.00000000000E+00 0. -1.
      99926    2    1    2    0    0  0.14210854715E-13 -0.88817841970E-15 -0.12803929788E+04  0.13616968155E+04  0.46347819496E+03 0.  0.
      99925    2    3    3    0    0  0.11995645604E+03 -0.67265191818E+01 -0.84137612451E+03  0.88966068992E+03  0.26295924188E+03 0.  0.
         25    1    4    4    0    0  0.98921611424E+02 -0.11407862046E+02 -0.41275960664E+03  0.44264390371E+03  0.12509000000E+03 0.  0.
         25    1    3    3    0    0 -0.11995645604E+03  0.67265191818E+01 -0.43901685426E+03  0.47203612556E+03  0.12509000000E+03 0.  0.
         25    1    4    4    0    0  0.21034844615E+02  0.46813428640E+01 -0.42861651787E+03  0.44701678621E+03  0.12509000000E+03 0.  0.
<mgrwt>
<rscale>  2 0.46347819E+03</rscale>
<asrwt>0</asrwt>
<pdfrwt beam="1">  1       21 0.59782238E-02 0.46347819E+03</pdfrwt>
<pdfrwt beam="2">  1       21 0.19427129E+00 0.46347819E+03</pdfrwt>
<totfact> 0.25639173E+04</totfact>
</mgrwt>
</event>
<event>
 7    0  0.4766352E-002  0.4561769E+03  0.7546771E-02  0.1025896E+00
         21   -1    0    0  502  501  0.00000000000E+00  0.00000000000E+00  0.15299704064E+04  0.15299704064E+04  0.00000000000E+00 0.  1.
         21   -1    0    0  501  502 -0.00000000000E+00 -0.00000000000E+00 -0.34003491889E+02  0.34003491889E+02  0.00000000000E+00 0.  1.
      99926    2    1    2    0    0  0.00000000000E+00  0.35527136788E-14  0.14959669145E+04  0.15639738983E+04  0.45617687931E+03 0.  0.
      99925    2    3    3    0    0 -0.65891225248E+02 -0.28577498894E+02  0.12449742980E+04  0.12744861980E+04  0.26305082979E+03 0.  0.
         25    1    3    3    0    0  0.65891225248E+02  0.28577498894E+02  0.25099261648E+03  0.28948770032E+03  0.12509000000E+03 0.  0.
         25    1    4    4    0    0 -0.50428727392E+02 -0.44002791301E+02  0.54975040580E+03  0.56776079379E+03  0.12509000000E+03 0.  0.
         25    1    4    4    0    0 -0.15462497856E+02  0.15425292407E+02  0.69522389222E+03  0.70672540417E+03  0.12509000000E+03 0.  0.
<mgrwt>
<rscale>  2 0.45617688E+03</rscale>
<asrwt>0</asrwt>
<pdfrwt beam="1">  1       21 0.22499560E+00 0.45617688E+03</pdfrwt>
<pdfrwt beam="2">  1       21 0.50005145E-02 0.45617688E+03</pdfrwt>
<totfact> 0.22051672E+04</totfact>
</mgrwt>
</event>
<event>
 7    0  0.4766352E-002  0.4636987E+03  0.7546771E-02  0.1023714E+00
         21   -1    0    0  502  501  0.00000000000E+00  0.00000000000E+00  0.10499184391E+04  0.10499184391E+04  0.00000000000E+00 0. -1.
         21   -1    0    0  501  502 -0.00000000000E+00 -0.00000000000E+00 -0.51198370697E+02  0.51198370697E+02  0.00000000000E+00 0. -1.
      99926    2    1    2    0    0  0.00000000000E+00  0.00000000000E+00  0.99872006838E+03  0.11011168098E+04  0.46369866701E+03 0.  0.
      99925    2    3    3    0    0 -0.19084444360E+02 -0.10667476305E+03  0.75215056197E+03  0.80415258519E+03  0.26303458197E+03 0.  0.
         25    1    4    4    0    0 -0.79828521540E+00 -0.74776006073E+02  0.29914182837E+03  0.33275430865E+03  0.12509000000E+03 0.  0.
         25    1    3    3    0    0  0.19084444360E+02  0.10667476305E+03  0.24656950642E+03  0.29696422459E+03  0.12509000000E+03 0.  0.
         25    1    4    4    0    0 -0.18286159144E+02 -0.31898756981E+02  0.45300873360E+03  0.47139827654E+03  0.12509000000E+03 0.  0.
<mgrwt>
<rscale>  2 0.46369867E+03</rscale>
<asrwt>0</asrwt>
<pdfrwt beam="1">  1       21 0.15439976E+00 0.46369867E+03</pdfrwt>
<pdfrwt beam="2">  1       21 0.75291728E-02 0.46369867E+03</pdfrwt>
<totfact> 0.33148353E+04</totfact>
</mgrwt>
</event>
<event>
 7    0  0.4766352E-002  0.4539530E+03  0.7546771E-02  0.1026550E+00
         21   -1    0    0  502  501  0.00000000000E+00  0.00000000000E+00  0.23001076848E+03  0.23001076848E+03  0.00000000000E+00 0. -1.
         21   -1    0    0  501  502 -0.00000000000E+00 -0.00000000000E+00 -0.22398223081E+03  0.22398223081E+03  0.00000000000E+00 0. -1.
      99926    2    1    2    0    0  0.00000000000E+00  0.00000000000E+00  0.60285376662E+01  0.45399299929E+03  0.45395297129E+03 0.  0.
      99925    2    3    3    0    0 -0.70041621566E+02  0.33989063548E+02  0.84568514319E+02  0.28702856828E+03  0.26300661627E+03 0.  0.
         25    1    4    4    0    0 -0.46439538531E+02 -0.21173408081E+02  0.33503683485E+02  0.13919392536E+03  0.12509000000E+03 0.  0.
         25    1    4    4    0    0 -0.23602083034E+02  0.55162471628E+02  0.51064830834E+02  0.14783464292E+03  0.12509000000E+03 0.  0.
         25    1    3    3    0    0  0.70041621566E+02 -0.33989063548E+02 -0.78539976653E+02  0.16696443102E+03  0.12509000000E+03 0.  0.
<mgrwt>
<rscale>  2 0.45395297E+03</rscale>
<asrwt>0</asrwt>
<pdfrwt beam="1">  1       21 0.33825113E-01 0.45395297E+03</pdfrwt>
<pdfrwt beam="2">  1       21 0.32938563E-01 0.45395297E+03</pdfrwt>
<totfact> 0.69195899E+04</totfact>
</mgrwt>
</event>
<event>
 7    0  0.4766352E-002  0.4554305E+03  0.7546771E-02  0.1026115E+00
         21   -1    0    0  502  501  0.00000000000E+00  0.00000000000E+00  0.10911284893E+03  0.10911284893E+03  0.00000000000E+00 0.  1.
         21   -1    0    0  501  502 -0.00000000000E+00 -0.00000000000E+00 -0.47523492957E+03  0.47523492957E+03  0.00000000000E+00 0.  1.
      99926    2    1    2    0    0  0.00000000000E+00  0.17763568394E-14 -0.36612208064E+03  0.58434777850E+03  0.45543050876E+03 0.  0.
      99925    2    3    3    0    0  0.10158237799E+03 -0.95462547887E+01 -0.16671224249E+03  0.32778998355E+03  0.26314100977E+03 0.  0.
         25    1    3    3    0    0 -0.10158237799E+03  0.95462547887E+01 -0.19940983815E+03  0.25655779495E+03  0.12509000000E+03 0.  0.
         25    1    4    4    0    0  0.16564737075E+02 -0.23448535068E+02 -0.95875209314E+02  0.16019921402E+03  0.12509000000E+03 0.  0.
         25    1    4    4    0    0  0.85017640915E+02  0.13902280279E+02 -0.70837033176E+02  0.16759076953E+03  0.12509000000E+03 0.  0.
<mgrwt>
<rscale>  2 0.45543051E+03</rscale>
<asrwt>0</asrwt>
<pdfrwt beam="1">  1       21 0.16046008E-01 0.45543051E+03</pdfrwt>
<pdfrwt beam="2">  1       21 0.69887488E-01 0.45543051E+03</pdfrwt>
<totfact> 0.59449625E+04</totfact>
</mgrwt>
</event>
<event>
 7    0  0.4766352E-002  0.4455404E+03  0.7546771E-02  0.1029060E+00
         21   -1    0    0  502  501  0.00000000000E+00  0.00000000000E+00  0.37911702313E+02  0.37911702313E+02  0.00000000000E+00 0. -1.
         21   -1    0    0  501  502 -0.00000000000E+00 -0.00000000000E+00 -0.13090039149E+04  0.13090039149E+04  0.00000000000E+00 0. -1.
      99926    2    1    2    0    0  0.35527136788E-14  0.00000000000E+00 -0.12710922126E+04  0.13469156173E+04  0.44554042128E+03 0.  0.
      99925    2    3    3    0    0  0.23462368386E+02 -0.92870791999E+02 -0.92966752519E+03  0.97089195839E+03  0.26300954493E+03 0.  0.
         25    1    3    3    0    0 -0.23462368386E+02  0.92870791999E+02 -0.34142468744E+03  0.37602365887E+03  0.12509000000E+03 0.  0.
         25    1    4    4    0    0  0.43935113784E+02 -0.22313324623E+02 -0.42145561887E+03  0.44238052111E+03  0.12509000000E+03 0.  0.
         25    1    4    4    0    0 -0.20472745398E+02 -0.70557467376E+02 -0.50821190632E+03  0.52851143728E+03  0.12509000000E+03 0.  0.
<mgrwt>
<rscale>  2 0.44554042E+03</rscale>
<asrwt>0</asrwt>
<pdfrwt beam="1">  1       21 0.55752501E-02 0.44554042E+03</pdfrwt>
<pdfrwt beam="2">  1       21 0.19250059E+00 0.44554042E+03</pdfrwt>
<totfact> 0.29922103E+04</totfact>
</mgrwt>
</event>
<event>
 7    0  0.4766352E-002  0.4577698E+03  0.7546771E-02  0.1025430E+00
         21   -1    0    0  502  501  0.00000000000E+00  0.00000000000E+00  0.95983368594E+03  0.95983368594E+03  0.00000000000E+00 0.  1.
         21   -1    0    0  501  502 -0.00000000000E+00 -0.00000000000E+00 -0.54580608308E+02  0.54580608308E+02  0.00000000000E+00 0.  1.
      99926    2    1    2    0    0  0.00000000000E+00  0.00000000000E+00  0.90525307763E+03  0.10144142942E+04  0.45776983934E+03 0.  0.
      99925    2    3    3    0    0 -0.57453632878E+02  0.66711729003E+02  0.73465544763E+03  0.78528019774E+03  0.26304940129E+03 0.  0.
         25    1    4    4    0    0 -0.28411069136E+02  0.23308758726E+02  0.24907273183E+03  0.28113203468E+03  0.12509000000E+03 0.  0.
         25    1    3    3    0    0  0.57453632878E+02 -0.66711729003E+02  0.17059763000E+03  0.22913409650E+03  0.12509000000E+03 0.  0.
         25    1    4    4    0    0 -0.29042563742E+02  0.43402970277E+02  0.48558271579E+03  0.50414816306E+03  0.12509000000E+03 0.  0.
<mgrwt>
<rscale>  2 0.45776984E+03</rscale>
<asrwt>0</asrwt>
<pdfrwt beam="1">  1       21 0.14115200E+00 0.45776984E+03</pdfrwt>
<pdfrwt beam="2">  1       21 0.80265607E-02 0.45776984E+03</pdfrwt>
<totfact> 0.37786876E+04</totfact>
</mgrwt>
</event>
<event>
 7    0  0.4766352E-002  0.4490868E+03  0.7546771E-02  0.1027995E+00
         21   -1    0    0  502  501  0.00000000000E+00  0.00000000000E+00  0.84020931084E+02  0.84020931084E+02  0.00000000000E+00 0.  1.
         21   -1    0    0  501  502 -0.00000000000E+00 -0.00000000000E+00 -0.60008545064E+03  0.60008545064E+03  0.00000000000E+00 0.  1.
      99926    2    1    2    0    0  0.00000000000E+00  0.00000000000E+00 -0.51606451955E+03  0.68410638172E+03  0.44908679915E+03 0.  0.
      99925    2    3    3    0    0 -0.93018237031E+02  0.53583361308E+02 -0.33645678834E+03  0.44032366240E+03  0.26297944448E+03 0.  0.
         25    1    4    4    0    0 -0.88292176299E+02  0.32988323815E+02 -0.19954643499E+03  0.25367306858E+03  0.12509000000E+03 0.  0.
         25    1    3    3    0    0  0.93018237031E+02 -0.53583361308E+02 -0.17960773121E+03  0.24378271932E+03  0.12509000000E+03 0.  0.
         25    1    4    4    0    0 -0.47260607322E+01  0.20595037493E+02 -0.13691035335E+03  0.18665059382E+03  0.12509000000E+03 0.  0.
<mgrwt>
<rscale>  2 0.44908680E+03</rscale>
<asrwt>0</asrwt>
<pdfrwt beam="1">  1       21 0.12356019E-01 0.44908680E+03</pdfrwt>
<pdfrwt beam="2">  1       21 0.88247862E-01 0.44908680E+03</pdfrwt>
<totfact> 0.56352710E+04</totfact>
</mgrwt>
</event>
<event>
 7    0  0.4766352E-002  0.4523531E+03  0.7546771E-02  0.1027023E+00
         21   -1    0    0  502  501  0.00000000000E+00  0.00000000000E+00  0.13442159861E+03  0.13442159861E+03  0.00000000000E+00 0. -1.
         21   -1    0    0  501  502 -0.00000000000E+00 -0.00000000000E+00 -0.38056258941E+03  0.38056258941E+03  0.00000000000E+00 0. -1.
      99926    2    1    2    0    0  0.00000000000E+00  0.00000000000E+00 -0.24614099080E+03  0.51498418802E+03  0.45235309942E+03 0.  0.
      99925    2    3    3    0    0 -0.78076849352E+02  0.20611734770E+02 -0.69295056274E+02  0.28380713321E+03  0.26310424934E+03 0.  0.
         25    1    4    4    0    0 -0.79623851688E+02  0.15392775149E+01 -0.29923463659E+02  0.15127871268E+03  0.12509000000E+03 0.  0.
         25    1    4    4    0    0  0.15470023362E+01  0.19072457255E+02 -0.39371592614E+02  0.13252842053E+03  0.12509000000E+03 0.  0.
         25    1    3    3    0    0  0.78076849352E+02 -0.20611734770E+02 -0.17684593452E+03  0.23117705481E+03  0.12509000000E+03 0.  0.
<mgrwt>
<rscale>  2 0.45235310E+03</rscale>
<asrwt>0</asrwt>
<pdfrwt beam="1">  1       21 0.19767882E-01 0.45235310E+03</pdfrwt>
<pdfrwt beam="2">  1       21 0.55965086E-01 0.45235310E+03</pdfrwt>
<totfact> 0.65597195E+04</totfact>
</mgrwt>
</event>
<event>
 7    0  0.4766352E-002  0.4599505E+03  0.7546771E-02  0.1024796E+00
         21   -1    0    0  502  501  0.00000000000E+00  0.00000000000E+00  0.52042979525E+03  0.52042979525E+03  0.00000000000E+00 0.  1.
         21   -1    0    0  501  502 -0.00000000000E+00 -0.00000000000E+00 -0.10162489669E+03  0.10162489669E+03  0.00000000000E+00 0.  1.
      99926    2    1    2    0    0  0.00000000000E+00  0.00000000000E+00  0.41880489855E+03  0.62205469194E+03  0.45995053725E+03 0.  0.
      99925    2    3    3    0    0  0.99302894134E+02 -0.41205061842E+02  0.19749089477E+03  0.34603600004E+03  0.26301965308E+03 0.  0.
         25    1    4    4    0    0  0.52739900442E+02 -0.74998083713E+01  0.51534414116E+02  0.14539961541E+03  0.12509000000E+03 0.  0.
         25    1    4    4    0    0  0.46562993691E+02 -0.33705253471E+02  0.14595648065E+03  0.20063638463E+03  0.12509000000E+03 0.  0.
         25    1    3    3    0    0 -0.99302894134E+02  0.41205061842E+02  0.22131400379E+03  0.27601869190E+03  0.12509000000E+03 0.  0.
<mgrwt>
<rscale>  2 0.45995054E+03</rscale>
<asrwt>0</asrwt>
<pdfrwt beam="1">  1       21 0.76533792E-01 0.45995054E+03</pdfrwt>
<pdfrwt beam="2">  1       21 0.14944838E-01 0.45995054E+03</pdfrwt>
<totfact> 0.55153066E+04</totfact>
</mgrwt>
</event>
<event>
 7    0  0.4766352E-002  0.4592385E+03  0.7546771E-02  0.1025002E+00
         21   -1    0    0  502  501  0.00000000000E+00  0.00000000000E+00  0.38288726060E+03  0.38288726060E+03  0.00000000000E+00 0.  1.
         21   -1    0    0  501  502 -0.00000000000E+00 -0.00000000000E+00 -0.13770372661E+03  0.13770372661E+03  0.00000000000E+00 0.  1.
      99926    2    1    2    0    0 -0.17763568394E-14  0.00000000000E+00  0.24518353399E+03  0.52059098722E+03  0.45923851170E+03 0.  0.
      99925    2    3    3    0    0 -0.11014899601E+02  0.14411015234E+02  0.22289567920E+02  0.26435236096E+03  0.26278573123E+03 0.  0.
         25    1    3    3    0    0  0.11014899601E+02 -0.14411015234E+02  0.22289396607E+03  0.25623862625E+03  0.12509000000E+03 0.  0.
         25    1    4    4    0    0 -0.34321984365E+02 -0.95563976853E+01 -0.11392770973E+02  0.13056273082E+03  0.12509000000E+03 0.  0.
         25    1    4    4    0    0  0.23307084764E+02  0.23967412919E+02  0.33682338893E+02  0.13378963015E+03  0.12509000000E+03 0.  0.
<mgrwt>
<rscale>  2 0.45923851E+03</rscale>
<asrwt>0</asrwt>
<pdfrwt beam="1">  1       21 0.56306950E-01 0.45923851E+03</pdfrwt>
<pdfrwt beam="2">  1       21 0.20250548E-01 0.45923851E+03</pdfrwt>
<totfact> 0.61744313E+04</totfact>
</mgrwt>
</event>
<event>
 7    0  0.4766352E-002  0.4625202E+03  0.7546771E-02  0.1024053E+00
         21   -1    0    0  502  501  0.00000000000E+00  0.00000000000E+00  0.35994701493E+02  0.35994701493E+02  0.00000000000E+00 0. -1.
         21   -1    0    0  501  502 -0.00000000000E+00 -0.00000000000E+00 -0.14858086459E+04  0.14858086459E+04  0.00000000000E+00 0. -1.
      99926    2    1    2    0    0  0.35527136788E-14  0.00000000000E+00 -0.14498139444E+04  0.15218033474E+04  0.46252022091E+03 0.  0.
      99925    2    3    3    0    0  0.19959525155E+02 -0.10702454800E+03 -0.10731486869E+04  0.11102491458E+04  0.26296848688E+03 0.  0.
         25    1    4    4    0    0 -0.18824935047E+02 -0.33633891236E+02 -0.58851225005E+03  0.60289285398E+03  0.12509000000E+03 0.  0.
         25    1    3    3    0    0 -0.19959525155E+02  0.10702454800E+03 -0.37666525757E+03  0.41155420163E+03  0.12509000000E+03 0.  0.
         25    1    4    4    0    0  0.38784460202E+02 -0.73390656765E+02 -0.48463643682E+03  0.50735629182E+03  0.12509000000E+03 0.  0.
<mgrwt>
<rscale>  2 0.46252022E+03</rscale>
<asrwt>0</asrwt>
<pdfrwt beam="1">  1       21 0.52933404E-02 0.46252022E+03</pdfrwt>
<pdfrwt beam="2">  1       21 0.21850119E+00 0.46252022E+03</pdfrwt>
<totfact> 0.21940070E+04</totfact>
</mgrwt>
</event>
<event>
 7    0  0.4766352E-002  0.4149961E+03  0.7546771E-02  0.1038707E+00
         21   -1    0    0  502  501  0.00000000000E+00  0.00000000000E+00  0.84575743843E+02  0.84575743843E+02  0.00000000000E+00 0.  1.
         21   -1    0    0  501  502 -0.00000000000E+00 -0.00000000000E+00 -0.50907544425E+03  0.50907544425E+03  0.00000000000E+00 0.  1.
      99926    2    1    2    0    0  0.00000000000E+00  0.00000000000E+00 -0.42449970041E+03  0.59365118809E+03  0.41499606923E+03 0.  0.
      99925    2    3    3    0    0 -0.57472519758E+02 -0.32393640086E+02 -0.24781001237E+03  0.36733461246E+03  0.26300660988E+03 0.  0.
         25    1    3    3    0    0  0.57472519758E+02  0.32393640086E+02 -0.17668968804E+03  0.22631657563E+03  0.12509000000E+03 0.  0.
         25    1    4    4    0    0 -0.37129397295E+02  0.16130327348E+02 -0.90682713059E+02  0.15971738212E+03  0.12509000000E+03 0.  0.
         25    1    4    4    0    0 -0.20343122463E+02 -0.48523967434E+02 -0.15712729931E+03  0.20761723034E+03  0.12509000000E+03 0.  0.
<mgrwt>
<rscale>  2 0.41499607E+03</rscale>
<asrwt>0</asrwt>
<pdfrwt beam="1">  1       21 0.12437609E-01 0.41499607E+03</pdfrwt>
<pdfrwt beam="2">  1       21 0.74864036E-01 0.41499607E+03</pdfrwt>
<totfact> 0.82101201E+04</totfact>
</mgrwt>
</event>
<event>
 7    0  0.4766352E-002  0.4536178E+03  0.7546771E-02  0.1026649E+00
         21   -1    0    0  502  501  0.00000000000E+00  0.00000000000E+00  0.11020056515E+04  0.11020056515E+04  0.00000000000E+00 0.  1.
         21   -1    0    0  501  502 -0.00000000000E+00 -0.00000000000E+00 -0.46680591264E+02  0.46680591264E+02  0.00000000000E+00 0.  1.
      99926    2    1    2    0    0 -0.35527136788E-14  0.00000000000E+00  0.10553250602E+04  0.11486862428E+04  0.45361779237E+03 0.  0.
      99925    2    3    3    0    0 -0.30156433976E+02  0.56787529378E+02  0.43205736038E+03  0.50974620819E+03  0.26274207904E+03 0.  0.
         25    1    4    4    0    0  0.17537703096E+02  0.34253698345E+01  0.19890244518E+03  0.23564591019E+03  0.12509000000E+03 0.  0.
         25    1    4    4    0    0 -0.47694137072E+02  0.53362159544E+02  0.23315491520E+03  0.27410029800E+03  0.12509000000E+03 0.  0.
         25    1    3    3    0    0  0.30156433976E+02 -0.56787529378E+02  0.62326769985E+03  0.63894003457E+03  0.12509000000E+03 0.  0.
<mgrwt>
<rscale>  2 0.45361779E+03</rscale>
<asrwt>0</asrwt>
<pdfrwt beam="1">  1       21 0.16205964E+00 0.45361779E+03</pdfrwt>
<pdfrwt beam="2">  1       21 0.68647936E-02 0.45361779E+03</pdfrwt>
<totfact> 0.34193129E+04</totfact>
</mgrwt>
</event>
<event>
 7    0  0.4766352E-002  0.4528453E+03  0.7546771E-02  0.1026877E+00
         21   -1    0    0  502  501  0.00000000000E+00  0.00000000000E+00  0.67556733722E+02  0.67556733722E+02  0.00000000000E+00 0. -1.
         21   -1    0    0  501  502 -0.00000000000E+00 -0.00000000000E+00 -0.75887649590E+03  0.75887649590E+03  0.00000000000E+00 0. -1.
      99926    2    1    2    0    0  0.00000000000E+00  0.88817841970E-15 -0.69131976218E+03  0.82643322962E+03  0.45284530410E+03 0.  0.
      99925    2    3    3    0    0 -0.10467215969E+03  0.52676468750E+01 -0.49619649779E+03  0.57206222985E+03  0.26468891417E+03 0.  0.
         25    1    3    3    0    0  0.10467215969E+03 -0.52676468750E+01 -0.19512326439E+03  0.25437099977E+03  0.12509000000E+03 0.  0.
         25    1    4    4    0    0 -0.69800000011E+02 -0.12674806406E+02 -0.18453075864E+03  0.23394828425E+03  0.12509000000E+03 0.  0.
         25    1    4    4    0    0 -0.34872159683E+02  0.17942453281E+02 -0.31166573915E+03  0.33811394561E+03  0.12509000000E+03 0.  0.
<mgrwt>
<rscale>  2 0.45284530E+03</rscale>
<asrwt>0</asrwt>
<pdfrwt beam="1">  1       21 0.99348142E-02 0.45284530E+03</pdfrwt>
<pdfrwt beam="2">  1       21 0.11159948E+00 0.45284530E+03</pdfrwt>
<totfact> 0.47307438E+04</totfact>
</mgrwt>
</event>
<event>
 7    0  0.4766352E-002  0.4512376E+03  0.7546771E-02  0.1027354E+00
         21   -1    0    0  502  501  0.00000000000E+00  0.00000000000E+00  0.20338230148E+02  0.20338230148E+02  0.00000000000E+00 0. -1.
         21   -1    0    0  501  502 -0.00000000000E+00 -0.00000000000E+00 -0.25028644068E+04  0.25028644068E+04  0.00000000000E+00 0. -1.
      99926    2    1    2    0    0  0.17763568394E-14  0.00000000000E+00 -0.24825261766E+04  0.25232026369E+04  0.45123755311E+03 0.  0.
      99925    2    3    3    0    0 -0.11869075558E+02  0.66414314853E+02 -0.20504461747E+04  0.20683484050E+04  0.26302827372E+03 0.  0.
         25    1    3    3    0    0  0.11869075558E+02 -0.66414314853E+02 -0.43208000195E+03  0.45485423199E+03  0.12509000000E+03 0.  0.
         25    1    4    4    0    0  0.11195761825E+02  0.56070371483E+02 -0.12846154161E+04  0.12919572389E+04  0.12509000000E+03 0.  0.
         25    1    4    4    0    0 -0.23064837383E+02  0.10343943371E+02 -0.76583075857E+03  0.77639116607E+03  0.12509000000E+03 0.  0.
<mgrwt>
<rscale>  2 0.45123755E+03</rscale>
<asrwt>0</asrwt>
<pdfrwt beam="1">  1       21 0.29909183E-02 0.45123755E+03</pdfrwt>
<pdfrwt beam="2">  1       21 0.36806803E+00 0.45123755E+03</pdfrwt>
<totfact> 0.71028151E+03</totfact>
</mgrwt>
</event>
<event>
 7    0  0.4766352E-002  0.4539021E+03  0.7546771E-02  0.1026565E+00
         21   -1    0    0  502  501  0.00000000000E+00  0.00000000000E+00  0.68331481244E+03  0.68331481244E+03  0.00000000000E+00 0. -1.
         21   -1    0    0  501  502 -0.00000000000E+00 -0.00000000000E+00 -0.75377827143E+02  0.75377827143E+02  0.00000000000E+00 0. -1.
      99926    2    1    2    0    0  0.00000000000E+00 -0.35527136788E-14  0.60793698530E+03  0.75869263958E+03  0.45390212961E+03 0.  0.
      99925    2    3    3    0    0  0.10291590818E+03 -0.31179034234E+02  0.43844639894E+03  0.52217967314E+03  0.26243580161E+03 0.  0.
         25    1    3    3    0    0 -0.10291590818E+03  0.31179034234E+02  0.16949058635E+03  0.23651296644E+03  0.12509000000E+03 0.  0.
         25    1    4    4    0    0  0.69417151347E+02 -0.36762835288E+02  0.28745264473E+03  0.32318226750E+03  0.12509000000E+03 0.  0.
         25    1    4    4    0    0  0.33498756833E+02  0.55838010543E+01  0.15099375421E+03  0.19899740565E+03  0.12509000000E+03 0.  0.
<mgrwt>
<rscale>  2 0.45390213E+03</rscale>
<asrwt>0</asrwt>
<pdfrwt beam="1">  1       21 0.10048747E+00 0.45390213E+03</pdfrwt>
<pdfrwt beam="2">  1       21 0.11084975E-01 0.45390213E+03</pdfrwt>
<totfact> 0.50258980E+04</totfact>
</mgrwt>
</event>
<event>
 7    0  0.4766352E-002  0.4687418E+03  0.7546771E-02  0.1022276E+00
         21   -1    0    0  502  501  0.00000000000E+00  0.00000000000E+00  0.53593244529E+03  0.53593244529E+03  0.00000000000E+00 0. -1.
         21   -1    0    0  501  502 -0.00000000000E+00 -0.00000000000E+00 -0.10249372590E+03  0.10249372590E+03  0.00000000000E+00 0. -1.
      99926    2    1    2    0    0 -0.14210854715E-13  0.53290705182E-14  0.43343871939E+03  0.63842617119E+03  0.46874177603E+03 0.  0.
      99925    2    3    3    0    0  0.12189837389E+03  0.10183267308E+02  0.30828602702E+03  0.42331313812E+03  0.26304149095E+03 0.  0.
         25    1    4    4    0    0  0.50377117748E+02  0.42605496869E+02  0.16814327724E+03  0.21971060998E+03  0.12509000000E+03 0.  0.
         25    1    3    3    0    0 -0.12189837389E+03 -0.10183267308E+02  0.12515269237E+03  0.21511303307E+03  0.12509000000E+03 0.  0.
         25    1    4    4    0    0  0.71521256140E+02 -0.32422229560E+02  0.14014274978E+03  0.20360252814E+03  0.12509000000E+03 0.  0.
<mgrwt>
<rscale>  2 0.46874178E+03</rscale>
<asrwt>0</asrwt>
<pdfrwt beam="1">  1       21 0.78813593E-01 0.46874178E+03</pdfrwt>
<pdfrwt beam="2">  1       21 0.15072607E-01 0.46874178E+03</pdfrwt>
<totfact> 0.50651842E+04</totfact>
</mgrwt>
</event>
<event>
 7    0  0.4766352E-002  0.4480740E+03  0.7546771E-02  0.1028298E+00
         21   -1    0    0  502  501  0.00000000000E+00  0.00000000000E+00  0.78969901899E+02  0.78969901899E+02  0.00000000000E+00 0.  1.
         21   -1    0    0  501  502 -0.00000000000E+00 -0.00000000000E+00 -0.63559131737E+03  0.63559131737E+03  0.00000000000E+00 0.  1.
      99926    2    1    2    0    0 -0.14210854715E-13  0.71054273576E-14 -0.55662141547E+03  0.71456121927E+03  0.44807402951E+03 0.  0.
      99925    2    3    3    0    0 -0.83509625752E+02  0.57506350012E+02 -0.40653115561E+03  0.49443527330E+03  0.26252203929E+03 0.  0.
         25    1    4    4    0    0 -0.58907939727E+02  0.66852275176E+02 -0.21941216210E+03  0.26782191291E+03  0.12509000000E+03 0.  0.
         25    1    4    4    0    0 -0.24601686025E+02 -0.93459251644E+01 -0.18711899352E+03  0.22661336039E+03  0.12509000000E+03 0.  0.
         25    1    3    3    0    0  0.83509625752E+02 -0.57506350012E+02 -0.15009025986E+03  0.22012594597E+03  0.12509000000E+03 0.  0.
<mgrwt>
<rscale>  2 0.44807403E+03</rscale>
<asrwt>0</asrwt>
<pdfrwt beam="1">  1       21 0.11613221E-01 0.44807403E+03</pdfrwt>
<pdfrwt beam="2">  1       21 0.93469314E-01 0.44807403E+03</pdfrwt>
<totfact> 0.55058569E+04</totfact>
</mgrwt>
</event>
<event>
 7    0  0.4766352E-002  0.4309256E+03  0.7546771E-02  0.1033568E+00
         21   -1    0    0  502  501  0.00000000000E+00  0.00000000000E+00  0.13983531722E+03  0.13983531722E+03  0.00000000000E+00 0. -1.
         21   -1    0    0  501  502 -0.00000000000E+00 -0.00000000000E+00 -0.33199206407E+03  0.33199206407E+03  0.00000000000E+00 0. -1.
      99926    2    1    2    0    0  0.00000000000E+00 -0.71054273576E-14 -0.19215674685E+03  0.47182738129E+03  0.43092558798E+03 0.  0.
      99925    2    3    3    0    0 -0.75116571215E+02 -0.26913641580E+02 -0.81370778763E+02  0.28665750740E+03  0.26302942713E+03 0.  0.
         25    1    4    4    0    0 -0.13358407597E+02  0.17795342736E+02 -0.51808057814E+02  0.13721043776E+03  0.12509000000E+03 0.  0.
         25    1    4    4    0    0 -0.61758163618E+02 -0.44708984316E+02 -0.29562720949E+02  0.14944706963E+03  0.12509000000E+03 0.  0.
         25    1    3    3    0    0  0.75116571215E+02  0.26913641580E+02 -0.11078596808E+03  0.18516987389E+03  0.12509000000E+03 0.  0.
<mgrwt>
<rscale>  2 0.43092559E+03</rscale>
<asrwt>0</asrwt>
<pdfrwt beam="1">  1       21 0.20564018E-01 0.43092559E+03</pdfrwt>
<pdfrwt beam="2">  1       21 0.48822361E-01 0.43092559E+03</pdfrwt>
<totfact> 0.81860445E+04</totfact>
</mgrwt>
</event>
<event>
 6    0  0.4766352E-002  0.4679382E+03  0.7546771E-02  0.1022504E+00
         21   -1    0    0  502  501  0.00000000000E+00  0.00000000000E+00  0.78400281070E+03  0.78400281070E+03  0.00000000000E+00 0.  1.
         21   -1    0    0  501  502 -0.00000000000E+00 -0.00000000000E+00 -0.69823144743E+02  0.69823144743E+02  0.00000000000E+00 0.  1.
      99926    2    1    2    0    0 -0.14210854715E-13  0.00000000000E+00  0.71417966596E+03  0.85382595544E+03  0.46793820844E+03 0.  0.
         25    1    3    3    0    0  0.74158578634E+02  0.50310907641E+02  0.22769579590E+03  0.27481551227E+03  0.12509000000E+03 0.  0.
         25    1    3    3    0    0 -0.37562064797E+02  0.38675964044E+02  0.12624725772E+03  0.18572188102E+03  0.12509000000E+03 0.  0.
         25    1    3    3    0    0 -0.36596513837E+02 -0.88986871685E+02  0.36023661234E+03  0.39328856216E+03  0.12509000000E+03 0.  0.
<mgrwt>
<rscale>  2 0.46793821E+03</rscale>
<asrwt>0</asrwt>
<pdfrwt beam="1">  1       21 0.11529453E+00 0.46793821E+03</pdfrwt>
<pdfrwt beam="2">  1       21 0.10268110E-01 0.46793821E+03</pdfrwt>
<totfact> 0.40951461E+04</totfact>
</mgrwt>
</event>
<event>
 7    0  0.4766352E-002  0.4296090E+03  0.7546771E-02  0.1033984E+00
         21   -1    0    0  502  501  0.00000000000E+00  0.00000000000E+00  0.12937536414E+04  0.12937536414E+04  0.00000000000E+00 0. -1.
         21   -1    0    0  501  502 -0.00000000000E+00 -0.00000000000E+00 -0.35664416491E+02  0.35664416491E+02  0.00000000000E+00 0. -1.
      99926    2    1    2    0    0  0.00000000000E+00  0.00000000000E+00  0.12580892250E+04  0.13294180579E+04  0.42960897898E+03 0.  0.
      99925    2    3    3    0    0 -0.38959124269E+02 -0.77193985889E+02  0.77646391863E+03  0.82435650861E+03  0.26304127342E+03 0.  0.
         25    1    3    3    0    0  0.38959124269E+02  0.77193985889E+02  0.48162530632E+03  0.50506154933E+03  0.12509000000E+03 0.  0.
         25    1    4    4    0    0 -0.58775612882E+02 -0.28834119601E+02  0.40892954371E+03  0.43261629528E+03  0.12509000000E+03 0.  0.
         25    1    4    4    0    0  0.19816488613E+02 -0.48359866288E+02  0.36753437492E+03  0.39174021333E+03  0.12509000000E+03 0.  0.
<mgrwt>
<rscale>  2 0.42960898E+03</rscale>
<asrwt>0</asrwt>
<pdfrwt beam="1">  1       21 0.19025786E+00 0.42960898E+03</pdfrwt>
<pdfrwt beam="2">  1       21 0.52447680E-02 0.42960898E+03</pdfrwt>
<totfact> 0.34619129E+04</totfact>
</mgrwt>
</event>
<event>
 7    0  0.4766352E-002  0.4521156E+03  0.7546771E-02  0.1027093E+00
         21   -1    0    0  502  501  0.00000000000E+00  0.00000000000E+00  0.89117060026E+03  0.89117060026E+03  0.00000000000E+00 0. -1.
         21   -1    0    0  501  502 -0.00000000000E+00 -0.00000000000E+00 -0.57342704176E+02  0.57342704176E+02  0.00000000000E+00 0. -1.
      99926    2    1    2    0    0  0.00000000000E+00  0.00000000000E+00  0.83382789608E+03  0.94851330443E+03  0.45211561398E+03 0.  0.
      99925    2    3    3    0    0  0.28356332212E+02 -0.81659733997E+02  0.38148156201E+03  0.47129521196E+03  0.26290416682E+03 0.  0.
         25    1    4    4    0    0 -0.21873192093E+02 -0.57169179578E+02  0.17838249709E+03  0.22630637418E+03  0.12509000000E+03 0.  0.
         25    1    4    4    0    0  0.50229524305E+02 -0.24490554419E+02  0.20309906491E+03  0.24498883778E+03  0.12509000000E+03 0.  0.
         25    1    3    3    0    0 -0.28356332212E+02  0.81659733997E+02  0.45234633408E+03  0.47721809248E+03  0.12509000000E+03 0.  0.
<mgrwt>
<rscale>  2 0.45211561E+03</rscale>
<asrwt>0</asrwt>
<pdfrwt beam="1">  1       21 0.13105449E+00 0.45211561E+03</pdfrwt>
<pdfrwt beam="2">  1       21 0.84327512E-02 0.45211561E+03</pdfrwt>
<totfact> 0.42143637E+04</totfact>
</mgrwt>
</event>
<event>
 7    0  0.4766352E-002  0.4484680E+03  0.7546771E-02  0.1028180E+00
         21   -1    0    0  502  501  0.00000000000E+00  0.00000000000E+00  0.29528703277E+03  0.29528703277E+03  0.00000000000E+00 0. -1.
         21   -1    0    0  501  502 -0.00000000000E+00 -0.00000000000E+00 -0.17027803649E+03  0.17027803649E+03  0.00000000000E+00 0. -1.
      99926    2    1    2    0    0  0.00000000000E+00  0.00000000000E+00  0.12500899628E+03  0.46556506927E+03  0.44846804186E+03 0.  0.
      99925    2    3    3    0    0  0.70621565289E+02 -0.70876592410E+02  0.39532304016E+02  0.28400331709E+03  0.26283870381E+03 0.  0.
         25    1    4    4    0    0  0.25631317892E+02 -0.69605417319E+02  0.42190921439E+00  0.14542889907E+03  0.12509000000E+03 0.  0.
         25    1    3    3    0    0 -0.70621565289E+02  0.70876592410E+02  0.85476692263E+02  0.18156175218E+03  0.12509000000E+03 0.  0.
         25    1    4    4    0    0  0.44990247396E+02 -0.12711750910E+01  0.39110394801E+02  0.13857441802E+03  0.12509000000E+03 0.  0.
<mgrwt>
<rscale>  2 0.44846804E+03</rscale>
<asrwt>0</asrwt>
<pdfrwt beam="1">  1       21 0.43424564E-01 0.44846804E+03</pdfrwt>
<pdfrwt beam="2">  1       21 0.25040888E-01 0.44846804E+03</pdfrwt>
<totfact> 0.71395537E+04</totfact>
</mgrwt>
</event>
<event>
 7    0  0.4766352E-002  0.4547433E+03  0.7546771E-02  0.1026317E+00
         21   -1    0    0  502  501  0.00000000000E+00  0.00000000000E+00  0.23770578387E+03  0.23770578387E+03  0.00000000000E+00 0.  1.
         21   -1    0    0  501  502 -0.00000000000E+00 -0.00000000000E+00 -0.21748681665E+03  0.21748681665E+03  0.00000000000E+00 0.  1.
      99926    2    1    2    0    0 -0.88817841970E-15  0.71054273576E-14  0.20218967226E+02  0.45519260052E+03  0.45474333083E+03 0.  0.
      99925    2    3    3    0    0 -0.79923833969E+01 -0.57534499117E+02 -0.84157711652E+02  0.28222989941E+03  0.26305341456E+03 0.  0.
         25    1    4    4    0    0 -0.37147359815E+02 -0.35358682286E+02 -0.66601991345E+02  0.15070997348E+03  0.12509000000E+03 0.  0.
         25    1    3    3    0    0  0.79923833969E+01  0.57534499117E+02  0.10437667888E+03  0.17296270111E+03  0.12509000000E+03 0.  0.
         25    1    4    4    0    0  0.29154976418E+02 -0.22175816831E+02 -0.17555720307E+02  0.13151992593E+03  0.12509000000E+03 0.  0.
<mgrwt>
<rscale>  2 0.45474333E+03</rscale>
<asrwt>0</asrwt>
<pdfrwt beam="1">  1       21 0.34956733E-01 0.45474333E+03</pdfrwt>
<pdfrwt beam="2">  1       21 0.31983355E-01 0.45474333E+03</pdfrwt>
<totfact> 0.68672236E+04</totfact>
</mgrwt>
</event>
<event>
 7    0  0.4766352E-002  0.4541459E+03  0.7546771E-02  0.1026493E+00
         21   -1    0    0  502  501  0.00000000000E+00  0.00000000000E+00  0.76115888432E+02  0.76115888432E+02  0.00000000000E+00 0.  1.
         21   -1    0    0  501  502 -0.00000000000E+00 -0.00000000000E+00 -0.67741597256E+03  0.67741597256E+03  0.00000000000E+00 0.  1.
      99926    2    1    2    0    0  0.00000000000E+00  0.00000000000E+00 -0.60130008412E+03  0.75353186099E+03  0.45414587343E+03 0.  0.
      99925    2    3    3    0    0  0.87833841544E+02 -0.51080403332E+02 -0.29933987911E+03  0.41125789932E+03  0.26306787185E+03 0.  0.
         25    1    4    4    0    0  0.84500997359E+02 -0.16312118614E+02 -0.15188920094E+03  0.21476578226E+03  0.12509000000E+03 0.  0.
         25    1    3    3    0    0 -0.87833841544E+02  0.51080403332E+02 -0.30196020501E+03  0.34227396167E+03  0.12509000000E+03 0.  0.
         25    1    4    4    0    0  0.33328441848E+01 -0.34768284718E+02 -0.14745067817E+03  0.19649211706E+03  0.12509000000E+03 0.  0.
<mgrwt>
<rscale>  2 0.45414587E+03</rscale>
<asrwt>0</asrwt>
<pdfrwt beam="1">  1       21 0.11193513E-01 0.45414587E+03</pdfrwt>
<pdfrwt beam="2">  1       21 0.99619996E-01 0.45414587E+03</pdfrwt>
<totfact> 0.50428691E+04</totfact>
</mgrwt>
</event>
<event>
 6    0  0.4766352E-002  0.4571424E+03  0.7546771E-02  0.1025613E+00
         21   -1    0    0  502  501  0.00000000000E+00  0.00000000000E+00  0.92022230210E+03  0.92022230210E+03  0.00000000000E+00 0. -1.
         21   -1    0    0  501  502 -0.00000000000E+00 -0.00000000000E+00 -0.56774088571E+02  0.56774088571E+02  0.00000000000E+00 0. -1.
      99926    2    1    2    0    0 -0.71054273576E-14  0.00000000000E+00  0.86344821352E+03  0.97699639067E+03  0.45714235194E+03 0.  0.
         25    1    3    3    0    0 -0.13450618045E+02 -0.29969372094E+02  0.18230367012E+03  0.22352006315E+03  0.12509000000E+03 0.  0.
         25    1    3    3    0    0 -0.25428910807E+02  0.56149951672E+02  0.14594863559E+03  0.20186123677E+03  0.12509000000E+03 0.  0.
         25    1    3    3    0    0  0.38879528853E+02 -0.26180579579E+02  0.53519590781E+03  0.55161509075E+03  0.12509000000E+03 0.  0.
<mgrwt>
<rscale>  2 0.45714235E+03</rscale>
<asrwt>0</asrwt>
<pdfrwt beam="1">  1       21 0.13532680E+00 0.45714235E+03</pdfrwt>
<pdfrwt beam="2">  1       21 0.83491312E-02 0.45714235E+03</pdfrwt>
<totfact> 0.39402444E+04</totfact>
</mgrwt>
</event>
<event>
 7    0  0.4766352E-002  0.4471555E+03  0.7546771E-02  0.1028574E+00
         21   -1    0    0  502  501  0.00000000000E+00  0.00000000000E+00  0.41477672306E+03  0.41477672306E+03  0.00000000000E+00 0.  1.
         21   -1    0    0  501  502 -0.00000000000E+00 -0.00000000000E+00 -0.12051545874E+03  0.12051545874E+03  0.00000000000E+00 0.  1.
      99926    2    1    2    0    0  0.35527136788E-14  0.00000000000E+00  0.29426126432E+03  0.53529218181E+03  0.44715548551E+03 0.  0.
      99925    2    3    3    0    0  0.23412022948E+02  0.57255404202E+02  0.84479024427E+02  0.28333504179E+03  0.26327881839E+03 0.  0.
         25    1    3    3    0    0 -0.23412022948E+02 -0.57255404202E+02  0.20978223989E+03  0.25195714001E+03  0.12509000000E+03 0.  0.
         25    1    4    4    0    0  0.45637895513E+02  0.23608910026E+02  0.66446861991E+02  0.15067478790E+03  0.12509000000E+03 0.  0.
         25    1    4    4    0    0 -0.22225872566E+02  0.33646494176E+02  0.18032162436E+02  0.13266025390E+03  0.12509000000E+03 0.  0.
<mgrwt>
<rscale>  2 0.44715549E+03</rscale>
<asrwt>0</asrwt>
<pdfrwt beam="1">  1       21 0.60996576E-01 0.44715549E+03</pdfrwt>
<pdfrwt beam="2">  1       21 0.17722862E-01 0.44715549E+03</pdfrwt>
<totfact> 0.66907352E+04</totfact>
</mgrwt>
</event>
<event>
 7    0  0.4766352E-002  0.5494105E+03  0.7546771E-02  0.1001630E+00
         21   -1    0    0  502  501  0.00000000000E+00  0.00000000000E+00  0.18745739134E+03  0.18745739134E+03  0.00000000000E+00 0. -1.
         21   -1    0    0  501  502 -0.00000000000E+00 -0.00000000000E+00 -0.40256068629E+03  0.40256068629E+03  0.00000000000E+00 0. -1.
      99926    2    1    2    0    0  0.00000000000E+00  0.00000000000E+00 -0.21510329494E+03  0.59001807763E+03  0.54941050630E+03 0.  0.
      99925    2    3    3    0    0 -0.18555301519E+03  0.28709733229E+02 -0.11639501836E+03  0.34375601763E+03  0.26337469342E+03 0.  0.
         25    1    3    3    0    0  0.18555301519E+03 -0.28709733229E+02 -0.98708276587E+02  0.24626206000E+03  0.12509000000E+03 0.  0.
         25    1    4    4    0    0 -0.13711686125E+03  0.41182590399E+01 -0.51088858980E+02  0.19255018387E+03  0.12509000000E+03 0.  0.
         25    1    4    4    0    0 -0.48436153942E+02  0.24591474189E+02 -0.65306159377E+02  0.15120583376E+03  0.12509000000E+03 0.  0.
<mgrwt>
<rscale>  2 0.54941051E+03</rscale>
<asrwt>0</asrwt>
<pdfrwt beam="1">  1       21 0.27567264E-01 0.54941051E+03</pdfrwt>
<pdfrwt beam="2">  1       21 0.59200100E-01 0.54941051E+03</pdfrwt>
<totfact> 0.29884875E+04</totfact>
</mgrwt>
</event>
<event>
 7    0  0.4766352E-002  0.4557309E+03  0.7546771E-02  0.1026027E+00
         21   -1    0    0  502  501  0.00000000000E+00  0.00000000000E+00  0.24956978485E+02  0.24956978485E+02  0.00000000000E+00 0.  1.
         21   -1    0    0  501  502 -0.00000000000E+00 -0.00000000000E+00 -0.20804863565E+04  0.20804863565E+04  0.00000000000E+00 0.  1.
      99926    2    1    2    0    0  0.00000000000E+00  0.00000000000E+00 -0.20555293780E+04  0.21054433350E+04  0.45573085582E+03 0.  0.
      99925    2    3    3    0    0  0.73317297042E+02 -0.45908357893E+02 -0.94986470115E+03  0.98936767038E+03  0.26291145529E+03 0.  0.
         25    1    3    3    0    0 -0.73317297042E+02  0.45908357893E+02 -0.11056646769E+04  0.11160756646E+04  0.12509000000E+03 0.  0.
         25    1    4    4    0    0  0.48583352666E+02  0.13356498933E+02 -0.51314694056E+03  0.53057141737E+03  0.12509000000E+03 0.  0.
         25    1    4    4    0    0  0.24733944376E+02 -0.59264856826E+02 -0.43671776059E+03  0.45879625301E+03  0.12509000000E+03 0.  0.
<mgrwt>
<rscale>  2 0.45573086E+03</rscale>
<asrwt>0</asrwt>
<pdfrwt beam="1">  1       21 0.36701442E-02 0.45573086E+03</pdfrwt>
<pdfrwt beam="2">  1       21 0.30595385E+00 0.45573086E+03</pdfrwt>
<totfact> 0.11995317E+04</totfact>
</mgrwt>
</event>
<event>
 7    0  0.4766352E-002  0.4535179E+03  0.7546771E-02  0.1026678E+00
         21   -1    0    0  502  501  0.00000000000E+00  0.00000000000E+00  0.21411669818E+04  0.21411669818E+04  0.00000000000E+00 0.  1.
         21   -1    0    0  501  502 -0.00000000000E+00 -0.00000000000E+00 -0.24014765241E+02  0.24014765241E+02  0.00000000000E+00 0.  1.
      99926    2    1    2    0    0  0.13877787808E-16  0.14210854715E-13  0.21171522166E+04  0.21651817471E+04  0.45351790444E+03 0.  0.
      99925    2    3    3    0    0  0.77042759461E-01  0.10238829524E+03  0.15480270445E+04  0.15735447481E+04  0.26300565556E+03 0.  0.
         25    1    3    3    0    0 -0.77042759461E-01 -0.10238829524E+03  0.56912517208E+03  0.59163699896E+03  0.12509000000E+03 0.  0.
         25    1    4    4    0    0  0.20193904004E+02  0.14267667854E+02  0.74191122720E+03  0.75278890617E+03  0.12509000000E+03 0.  0.
         25    1    4    4    0    0 -0.20116861244E+02  0.88120627383E+02  0.80611581729E+03  0.82075584193E+03  0.12509000000E+03 0.  0.
<mgrwt>
<rscale>  2 0.45351790E+03</rscale>
<asrwt>0</asrwt>
<pdfrwt beam="1">  1       21 0.31487737E+00 0.45351790E+03</pdfrwt>
<pdfrwt beam="2">  1       21 0.35315846E-02 0.45351790E+03</pdfrwt>
<totfact> 0.11325378E+04</totfact>
</mgrwt>
</event>
<event>
 6    0  0.7292838E-002  0.4348357E+03  0.7546771E-02  0.1032343E+00
         21   -1    0    0  502  501  0.00000000000E+00  0.00000000000E+00  0.46946183967E+03  0.46946183967E+03  0.00000000000E+00 0. -1.
         21   -1    0    0  501  502 -0.00000000000E+00 -0.00000000000E+00 -0.10069086897E+03  0.10069086897E+03  0.00000000000E+00 0. -1.
      99926    2    1    2    0    0  0.53290705182E-14  0.00000000000E+00  0.36877097070E+03  0.57015270863E+03  0.43483569579E+03 0.  0.
         25    1    3    3    0    0 -0.64259212129E+02  0.41902462870E+01  0.13479932239E+03  0.19484652916E+03  0.12509000000E+03 0.  0.
         25    1    3    3    0    0  0.53527550310E+02 -0.18937198884E+01  0.20563076247E+03  0.24657717533E+03  0.12509000000E+03 0.  0.
         25    1    3    3    0    0  0.10731661818E+02 -0.22965263986E+01  0.28340885836E+02  0.12872900415E+03  0.12509000000E+03 0.  0.
<mgrwt>
<rscale>  2 0.43483570E+03</rscale>
<asrwt>0</asrwt>
<pdfrwt beam="1">  1       21 0.69038505E-01 0.43483570E+03</pdfrwt>
<pdfrwt beam="2">  1       21 0.14807481E-01 0.43483570E+03</pdfrwt>
<totfact> 0.71253696E+04</totfact>
</mgrwt>
</event>
<event>
 7    0  0.4766352E-002  0.4547652E+03  0.7546771E-02  0.1026310E+00
         21   -1    0    0  502  501  0.00000000000E+00  0.00000000000E+00  0.69698021488E+03  0.69698021488E+03  0.00000000000E+00 0.  1.
         21   -1    0    0  501  502 -0.00000000000E+00 -0.00000000000E+00 -0.74181215816E+02  0.74181215816E+02  0.00000000000E+00 0.  1.
      99926    2    1    2    0    0 -0.14210854715E-13  0.00000000000E+00  0.62279899906E+03  0.77116143069E+03  0.45476516902E+03 0.  0.
      99925    2    3    3    0    0 -0.65090943084E+02  0.58883186858E+02  0.27133315182E+03  0.38791241185E+03  0.26296444517E+03 0.  0.
         25    1    4    4    0    0  0.20410355965E+01  0.47857932403E+02  0.11606665886E+03  0.17723861013E+03  0.12509000000E+03 0.  0.
         25    1    3    3    0    0  0.65090943084E+02 -0.58883186858E+02  0.35146584724E+03  0.38324901884E+03  0.12509000000E+03 0.  0.
         25    1    4    4    0    0 -0.67131978681E+02  0.11025254456E+02  0.15526649295E+03  0.21067380172E+03  0.12509000000E+03 0.  0.
<mgrwt>
<rscale>  2 0.45476517E+03</rscale>
<asrwt>0</asrwt>
<pdfrwt beam="1">  1       21 0.10249709E+00 0.45476517E+03</pdfrwt>
<pdfrwt beam="2">  1       21 0.10909003E-01 0.45476517E+03</pdfrwt>
<totfact> 0.49282082E+04</totfact>
</mgrwt>
</event>
<event>
 7    0  0.4766352E-002  0.4570557E+03  0.7546771E-02  0.1025639E+00
         21   -1    0    0  502  501  0.00000000000E+00  0.00000000000E+00  0.60619633595E+03  0.60619633595E+03  0.00000000000E+00 0. -1.
         21   -1    0    0  501  502 -0.00000000000E+00 -0.00000000000E+00 -0.86151925474E+02  0.86151925474E+02  0.00000000000E+00 0. -1.
      99926    2    1    2    0    0  0.35527136788E-14  0.00000000000E+00  0.52004441048E+03  0.69234826142E+03  0.45705571458E+03 0.  0.
      99925    2    3    3    0    0  0.18589005931E+02 -0.10401283873E+03  0.39574067568E+03  0.48676823237E+03  0.26299887432E+03 0.  0.
         25    1    4    4    0    0 -0.22185554581E+02 -0.50693154764E+02  0.15024820538E+03  0.20318470930E+03  0.12509000000E+03 0.  0.
         25    1    3    3    0    0 -0.18589005931E+02  0.10401283873E+03  0.12430373480E+03  0.20558002906E+03  0.12509000000E+03 0.  0.
         25    1    4    4    0    0  0.40774560512E+02 -0.53319683968E+02  0.24549247030E+03  0.28358352307E+03  0.12509000000E+03 0.  0.
<mgrwt>
<rscale>  2 0.45705571E+03</rscale>
<asrwt>0</asrwt>
<pdfrwt beam="1">  1       21 0.89146518E-01 0.45705571E+03</pdfrwt>
<pdfrwt beam="2">  1       21 0.12669401E-01 0.45705571E+03</pdfrwt>
<totfact> 0.52466278E+04</totfact>
</mgrwt>
</event>
<event>
 7    0  0.4766352E-002  0.4511100E+03  0.7546771E-02  0.1027392E+00
         21   -1    0    0  502  501  0.00000000000E+00  0.00000000000E+00  0.14355547999E+03  0.14355547999E+03  0.00000000000E+00 0. -1.
         21   -1    0    0  501  502 -0.00000000000E+00 -0.00000000000E+00 -0.35439293454E+03  0.35439293454E+03  0.00000000000E+00 0. -1.
      99926    2    1    2    0    0  0.00000000000E+00  0.00000000000E+00 -0.21083745455E+03  0.49794841453E+03  0.45110995477E+03 0.  0.
      99925    2    3    3    0    0  0.95381065183E+02 -0.53147281420E+02 -0.12361706001E+03  0.31039285891E+03  0.26294556133E+03 0.  0.
         25    1    4    4    0    0  0.41923222149E+02 -0.32417548603E+02 -0.18234428088E+02  0.13707099066E+03  0.12509000000E+03 0.  0.
         25    1    3    3    0    0 -0.95381065183E+02  0.53147281420E+02 -0.87220394544E+02  0.18755555562E+03  0.12509000000E+03 0.  0.
         25    1    4    4    0    0  0.53457843034E+02 -0.20729732817E+02 -0.10538263192E+03  0.17332186825E+03  0.12509000000E+03 0.  0.
<mgrwt>
<rscale>  2 0.45110995E+03</rscale>
<asrwt>0</asrwt>
<pdfrwt beam="1">  1       21 0.21111100E-01 0.45110995E+03</pdfrwt>
<pdfrwt beam="2">  1       21 0.52116607E-01 0.45110995E+03</pdfrwt>
<totfact> 0.67474652E+04</totfact>
</mgrwt>
</event>
<event>
 7    0  0.4766352E-002  0.4530943E+03  0.7546771E-02  0.1026803E+00
         21   -1    0    0  502  501  0.00000000000E+00  0.00000000000E+00  0.66428811303E+03  0.66428811303E+03  0.00000000000E+00 0.  1.
         21   -1    0    0  501  502 -0.00000000000E+00 -0.00000000000E+00 -0.77261076028E+02  0.77261076028E+02  0.00000000000E+00 0.  1.
      99926    2    1    2    0    0 -0.35527136788E-14  0.00000000000E+00  0.58702703700E+03  0.74154918906E+03  0.45309431427E+03 0.  0.
      99925    2    3    3    0    0  0.29025198544E+02  0.11559062365E+02  0.19560761840E+03  0.32944150479E+03  0.26323618792E+03 0.  0.
         25    1    4    4    0    0  0.31847409777E+02  0.72002792269E+01  0.14536963233E+03  0.19454032907E+03  0.12509000000E+03 0.  0.
         25    1    3    3    0    0 -0.29025198544E+02 -0.11559062365E+02  0.39141941861E+03  0.41210768427E+03  0.12509000000E+03 0.  0.
         25    1    4    4    0    0 -0.28222112326E+01  0.43587831380E+01  0.50237986069E+02  0.13490117572E+03  0.12509000000E+03 0.  0.
<mgrwt>
<rscale>  2 0.45309431E+03</rscale>
<asrwt>0</asrwt>
<pdfrwt beam="1">  1       21 0.97689425E-01 0.45309431E+03</pdfrwt>
<pdfrwt beam="2">  1       21 0.11361923E-01 0.45309431E+03</pdfrwt>
<totfact> 0.51471242E+04</totfact>
</mgrwt>
</event>
<event>
 7    0  0.4766352E-002  0.4515397E+03  0.7546771E-02  0.1027264E+00
         21   -1    0    0  502  501  0.00000000000E+00  0.00000000000E+00  0.14251873417E+03  0.14251873417E+03  0.00000000000E+00 0.  1.
         21   -1    0    0  501  502 -0.00000000000E+00 -0.00000000000E+00 -0.35765132825E+03  0.35765132825E+03  0.00000000000E+00 0.  1.
      99926    2    1    2    0    0  0.00000000000E+00  0.35527136788E-14 -0.21513259408E+03  0.50017006242E+03  0.45153965308E+03 0.  0.
      99925    2    3    3    0    0 -0.10303346856E+03 -0.18711779597E+02 -0.17277072503E+03  0.33162314792E+03  0.26297939551E+03 0.  0.
         25    1    4    4    0    0 -0.67674171320E+02 -0.44656387135E+02 -0.10806377477E+03  0.18411755455E+03  0.12509000000E+03 0.  0.
         25    1    4    4    0    0 -0.35359297243E+02  0.25944607537E+02 -0.64706950260E+02  0.14750559336E+03  0.12509000000E+03 0.  0.
         25    1    3    3    0    0  0.10303346856E+03  0.18711779597E+02 -0.42361869043E+02  0.16854691450E+03  0.12509000000E+03 0.  0.
<mgrwt>
<rscale>  2 0.45153965E+03</rscale>
<asrwt>0</asrwt>
<pdfrwt beam="1">  1       21 0.20958638E-01 0.45153965E+03</pdfrwt>
<pdfrwt beam="2">  1       21 0.52595783E-01 0.45153965E+03</pdfrwt>
<totfact> 0.67082446E+04</totfact>
</mgrwt>
</event>
<event>
 7    0  0.4766352E-002  0.4558053E+03  0.7546771E-02  0.1026005E+00
         21   -1    0    0  502  501  0.00000000000E+00  0.00000000000E+00  0.81099943202E+03  0.81099943202E+03  0.00000000000E+00 0.  1.
         21   -1    0    0  501  502 -0.00000000000E+00 -0.00000000000E+00 -0.64043967305E+02  0.64043967305E+02  0.00000000000E+00 0.  1.
      99926    2    1    2    0    0  0.00000000000E+00 -0.71054273576E-14  0.74695546471E+03  0.87504339932E+03  0.45580531418E+03 0.  0.
      99925    2    3    3    0    0  0.99270577578E+02  0.50256807202E+02  0.51694626379E+03  0.59055766180E+03  0.26295345220E+03 0.  0.
         25    1    4    4    0    0  0.55368890893E+02  0.53260737184E+02  0.21030240864E+03  0.25647033236E+03  0.12509000000E+03 0.  0.
         25    1    3    3    0    0 -0.99270577578E+02 -0.50256807202E+02  0.23000920093E+03  0.28448573752E+03  0.12509000000E+03 0.  0.
         25    1    4    4    0    0  0.43901686685E+02 -0.30039299814E+01  0.30664385515E+03  0.33408732944E+03  0.12509000000E+03 0.  0.
<mgrwt>
<rscale>  2 0.45580531E+03</rscale>
<asrwt>0</asrwt>
<pdfrwt beam="1">  1       21 0.11926462E+00 0.45580531E+03</pdfrwt>
<pdfrwt beam="2">  1       21 0.94182310E-02 0.45580531E+03</pdfrwt>
<totfact> 0.44051826E+04</totfact>
</mgrwt>
</event>
<event>
 7    0  0.4766352E-002  0.4540757E+03  0.7546771E-02  0.1026514E+00
         21   -1    0    0  502  501  0.00000000000E+00  0.00000000000E+00  0.23202721417E+03  0.23202721417E+03  0.00000000000E+00 0.  1.
         21   -1    0    0  501  502 -0.00000000000E+00 -0.00000000000E+00 -0.22215576631E+03  0.22215576631E+03  0.00000000000E+00 0.  1.
      99926    2    1    2    0    0  0.00000000000E+00  0.00000000000E+00  0.98714478680E+01  0.45418298048E+03  0.45407569223E+03 0.  0.
      99925    2    3    3    0    0 -0.32862017450E+02  0.43352232140E+02 -0.91850830621E+02  0.28402347219E+03  0.26319846019E+03 0.  0.
         25    1    4    4    0    0 -0.46857885628E+02  0.21832760271E+02 -0.18089949464E+02  0.13655433072E+03  0.12509000000E+03 0.  0.
         25    1    3    3    0    0  0.32862017450E+02 -0.43352232140E+02  0.10172227849E+03  0.17015950830E+03  0.12509000000E+03 0.  0.
         25    1    4    4    0    0  0.13995868178E+02  0.21519471868E+02 -0.73760881157E+02  0.14746914147E+03  0.12509000000E+03 0.  0.
<mgrwt>
<rscale>  2 0.45407569E+03</rscale>
<asrwt>0</asrwt>
<pdfrwt beam="1">  1       21 0.34121649E-01 0.45407569E+03</pdfrwt>
<pdfrwt beam="2">  1       21 0.32669965E-01 0.45407569E+03</pdfrwt>
<totfact> 0.69114003E+04</totfact>
</mgrwt>
</event>
<event>
 7    0  0.4766352E-002  0.4569125E+03  0.7546771E-02  0.1025680E+00
         21   -1    0    0  502  501  0.00000000000E+00  0.00000000000E+00  0.34338350175E+03  0.34338350175E+03  0.00000000000E+00 0.  1.
         21   -1    0    0  501  502 -0.00000000000E+00 -0.00000000000E+00 -0.15199410916E+03  0.15199410916E+03  0.00000000000E+00 0.  1.
      99926    2    1    2    0    0  0.00000000000E+00  0.00000000000E+00  0.19138939259E+03  0.49537761091E+03  0.45691254939E+03 0.  0.
      99925    2    3    3    0    0  0.33731412653E+02  0.93154480272E+02  0.18331863679E+03  0.33560211030E+03  0.26307316178E+03 0.  0.
         25    1    4    4    0    0  0.57176183997E+01  0.97601302067E+01  0.60246376508E+02  0.13930213668E+03  0.12509000000E+03 0.  0.
         25    1    3    3    0    0 -0.33731412653E+02 -0.93154480272E+02  0.80707557972E+01  0.15977550060E+03  0.12509000000E+03 0.  0.
         25    1    4    4    0    0  0.28013794254E+02  0.83394350066E+02  0.12307226029E+03  0.19629997362E+03  0.12509000000E+03 0.  0.
<mgrwt>
<rscale>  2 0.45691255E+03</rscale>
<asrwt>0</asrwt>
<pdfrwt beam="1">  1       21 0.50497574E-01 0.45691255E+03</pdfrwt>
<pdfrwt beam="2">  1       21 0.22352075E-01 0.45691255E+03</pdfrwt>
<totfact> 0.64610073E+04</totfact>
</mgrwt>
</event>
<event>
 7    0  0.4766352E-002  0.4407813E+03  0.7546771E-02  0.1030507E+00
         21   -1    0    0  502  501  0.00000000000E+00  0.00000000000E+00  0.42897201027E+03  0.42897201027E+03  0.00000000000E+00 0.  1.
         21   -1    0    0  501  502 -0.00000000000E+00 -0.00000000000E+00 -0.11322893342E+03  0.11322893342E+03  0.00000000000E+00 0.  1.
      99926    2    1    2    0    0  0.14210854715E-13 -0.35527136788E-14  0.31574307685E+03  0.54220094370E+03  0.44078132080E+03 0.  0.
      99925    2    3    3    0    0  0.97845406392E+02 -0.11181907665E+02  0.18626941362E+03  0.33699447162E+03  0.26300232099E+03 0.  0.
         25    1    3    3    0    0 -0.97845406392E+02  0.11181907665E+02  0.12947366323E+03  0.20520647208E+03  0.12509000000E+03 0.  0.
         25    1    4    4    0    0  0.14957360108E+02  0.19307291153E+02  0.91824432815E+02  0.15708510010E+03  0.12509000000E+03 0.  0.
         25    1    4    4    0    0  0.82888046285E+02 -0.30489198819E+02  0.94444980803E+02  0.17990937152E+03  0.12509000000E+03 0.  0.
<mgrwt>
<rscale>  2 0.44078132E+03</rscale>
<asrwt>0</asrwt>
<pdfrwt beam="1">  1       21 0.63084119E-01 0.44078132E+03</pdfrwt>
<pdfrwt beam="2">  1       21 0.16651314E-01 0.44078132E+03</pdfrwt>
<totfact> 0.69926909E+04</totfact>
</mgrwt>
</event>
<event>
 7    0  0.4766352E-002  0.4636682E+03  0.7546771E-02  0.1023723E+00
         21   -1    0    0  502  501  0.00000000000E+00  0.00000000000E+00  0.66247450244E+02  0.66247450244E+02  0.00000000000E+00 0. -1.
         21   -1    0    0  501  502 -0.00000000000E+00 -0.00000000000E+00 -0.81130761523E+03  0.81130761523E+03  0.00000000000E+00 0. -1.
      99926    2    1    2    0    0  0.00000000000E+00  0.00000000000E+00 -0.74506016499E+03  0.87755506548E+03  0.46366824723E+03 0.  0.
      99925    2    3    3    0    0  0.94940978189E+02 -0.20689149537E+02 -0.32818972931E+03  0.43160630330E+03  0.26293282863E+03 0.  0.
         25    1    3    3    0    0 -0.94940978189E+02  0.20689149537E+02 -0.41687043568E+03  0.44594876218E+03  0.12509000000E+03 0.  0.
         25    1    4    4    0    0  0.52055760985E+02 -0.23859007400E+02 -0.22548418961E+03  0.26413951304E+03  0.12509000000E+03 0.  0.
         25    1    4    4    0    0  0.42885217204E+02  0.31698578631E+01 -0.10270553971E+03  0.16746679026E+03  0.12509000000E+03 0.  0.
<mgrwt>
<rscale>  2 0.46366825E+03</rscale>
<asrwt>0</asrwt>
<pdfrwt beam="1">  1       21 0.97422720E-02 0.46366825E+03</pdfrwt>
<pdfrwt beam="2">  1       21 0.11930994E+00 0.46366825E+03</pdfrwt>
<totfact> 0.41339478E+04</totfact>
</mgrwt>
</event>
<event>
 6    0  0.4766352E-002  0.4644807E+03  0.7546771E-02  0.1023490E+00
         21   -1    0    0  502  501  0.00000000000E+00  0.00000000000E+00  0.20247388521E+02  0.20247388521E+02  0.00000000000E+00 0.  1.
         21   -1    0    0  501  502 -0.00000000000E+00 -0.00000000000E+00 -0.26638293355E+04  0.26638293355E+04  0.00000000000E+00 0.  1.
      99926    2    1    2    0    0 -0.71054273576E-14  0.00000000000E+00 -0.26435819470E+04  0.26840767240E+04  0.46448073161E+03 0.  0.
         25    1    3    3    0    0  0.72748421260E+02 -0.72474734864E+02 -0.82814561411E+03  0.84381134518E+03  0.12509000000E+03 0.  0.
         25    1    3    3    0    0 -0.57979206360E+02  0.99390002424E+02 -0.11481359222E+04  0.11606479074E+04  0.12509000000E+03 0.  0.
         25    1    3    3    0    0 -0.14769214900E+02 -0.26915267561E+02 -0.66730041062E+03  0.67961747141E+03  0.12509000000E+03 0.  0.
<mgrwt>
<rscale>  2 0.46448073E+03</rscale>
<asrwt>0</asrwt>
<pdfrwt beam="1">  1       21 0.29775544E-02 0.46448073E+03</pdfrwt>
<pdfrwt beam="2">  1       21 0.39173997E+00 0.46448073E+03</pdfrwt>
<totfact> 0.50437198E+03</totfact>
</mgrwt>
</event>
<event>
 7    0  0.4766352E-002  0.4528133E+03  0.7546771E-02  0.1026886E+00
         21   -1    0    0  502  501  0.00000000000E+00  0.00000000000E+00  0.12582431427E+03  0.12582431427E+03  0.00000000000E+00 0. -1.
         21   -1    0    0  501  502 -0.00000000000E+00 -0.00000000000E+00 -0.40739313643E+03  0.40739313643E+03  0.00000000000E+00 0. -1.
      99926    2    1    2    0    0  0.00000000000E+00  0.00000000000E+00 -0.28156882216E+03  0.53321745069E+03  0.45281325965E+03 0.  0.
      99925    2    3    3    0    0 -0.58346441122E+02 -0.87791988435E+02 -0.13664947628E+03  0.31467485682E+03  0.26312629235E+03 0.  0.
         25    1    3    3    0    0  0.58346441122E+02  0.87791988435E+02 -0.14491934588E+03  0.21854259387E+03  0.12509000000E+03 0.  0.
         25    1    4    4    0    0 -0.16050681269E+01 -0.72645904492E+02 -0.80130252923E+02  0.16537342355E+03  0.12509000000E+03 0.  0.
         25    1    4    4    0    0 -0.56741372995E+02 -0.15146083943E+02 -0.56519223353E+02  0.14930143327E+03  0.12509000000E+03 0.  0.
<mgrwt>
<rscale>  2 0.45281326E+03</rscale>
<asrwt>0</asrwt>
<pdfrwt beam="1">  1       21 0.18503576E-01 0.45281326E+03</pdfrwt>
<pdfrwt beam="2">  1       21 0.59910755E-01 0.45281326E+03</pdfrwt>
<totfact> 0.64091476E+04</totfact>
</mgrwt>
</event>
<event>
 7    0  0.4766352E-002  0.4727077E+03  0.7546771E-02  0.1021159E+00
         21   -1    0    0  502  501  0.00000000000E+00  0.00000000000E+00  0.61156243015E+03  0.61156243015E+03  0.00000000000E+00 0.  1.
         21   -1    0    0  501  502 -0.00000000000E+00 -0.00000000000E+00 -0.91344940048E+02  0.91344940048E+02  0.00000000000E+00 0.  1.
      99926    2    1    2    0    0  0.00000000000E+00  0.35527136788E-14  0.52021749011E+03  0.70290737020E+03  0.47270766238E+03 0.  0.
      99925    2    3    3    0    0  0.12519848527E+03 -0.30992797069E+02  0.31641458667E+03  0.43121205237E+03  0.26304073689E+03 0.  0.
         25    1    4    4    0    0  0.10051805421E+03  0.26683772987E+01  0.18730875761E+03  0.24666389731E+03  0.12509000000E+03 0.  0.
         25    1    3    3    0    0 -0.12519848527E+03  0.30992797069E+02  0.20380290344E+03  0.27169531784E+03  0.12509000000E+03 0.  0.
         25    1    4    4    0    0  0.24680431062E+02 -0.33661174367E+02  0.12910582906E+03  0.18454815505E+03  0.12509000000E+03 0.  0.
<mgrwt>
<rscale>  2 0.47270766E+03</rscale>
<asrwt>0</asrwt>
<pdfrwt beam="1">  1       21 0.89935649E-01 0.47270766E+03</pdfrwt>
<pdfrwt beam="2">  1       21 0.13433080E-01 0.47270766E+03</pdfrwt>
<totfact> 0.45990672E+04</totfact>
</mgrwt>
</event>
<event>
 7    0  0.4766352E-002  0.4512506E+03  0.7546771E-02  0.1027350E+00
         21   -1    0    0  502  501  0.00000000000E+00  0.00000000000E+00  0.92713976230E+03  0.92713976230E+03  0.00000000000E+00 0.  1.
         21   -1    0    0  501  502 -0.00000000000E+00 -0.00000000000E+00 -0.54907347430E+02  0.54907347430E+02  0.00000000000E+00 0.  1.
      99926    2    1    2    0    0  0.00000000000E+00  0.00000000000E+00  0.87223241487E+03  0.98204710973E+03  0.45125064009E+03 0.  0.
      99925    2    3    3    0    0  0.46138659504E+02  0.94367310820E+02  0.61866981611E+03  0.68042571652E+03  0.26304533655E+03 0.  0.
         25    1    4    4    0    0  0.53463143821E+02  0.28110008744E+02  0.35216948360E+03  0.37857540017E+03  0.12509000000E+03 0.  0.
         25    1    3    3    0    0 -0.46138659504E+02 -0.94367310820E+02  0.25356259876E+03  0.30162139321E+03  0.12509000000E+03 0.  0.
         25    1    4    4    0    0 -0.73244843174E+01  0.66257302076E+02  0.26650033251E+03  0.30185031634E+03  0.12509000000E+03 0.  0.
<mgrwt>
<rscale>  2 0.45125064E+03</rscale>
<asrwt>0</asrwt>
<pdfrwt beam="1">  1       21 0.13634407E+00 0.45125064E+03</pdfrwt>
<pdfrwt beam="2">  1       21 0.80746105E-02 0.45125064E+03</pdfrwt>
<totfact> 0.41059673E+04</totfact>
</mgrwt>
</event>
<event>
 7    0  0.4766352E-002  0.4564772E+03  0.7546771E-02  0.1025808E+00
         21   -1    0    0  502  501  0.00000000000E+00  0.00000000000E+00  0.97675013458E+02  0.97675013458E+02  0.00000000000E+00 0.  1.
         21   -1    0    0  501  502 -0.00000000000E+00 -0.00000000000E+00 -0.53332837286E+03  0.53332837286E+03  0.00000000000E+00 0.  1.
      99926    2    1    2    0    0  0.00000000000E+00  0.00000000000E+00 -0.43565335940E+03  0.63100338632E+03  0.45647718890E+03 0.  0.
      99925    2    3    3    0    0 -0.11000584436E+02 -0.68527314378E+02 -0.39978986806E+03  0.48352218825E+03  0.26295391658E+03 0.  0.
         25    1    3    3    0    0  0.11000584436E+02  0.68527314378E+02 -0.35863491337E+02  0.14748119807E+03  0.12509000000E+03 0.  0.
         25    1    4    4    0    0 -0.53194464934E+01  0.59412085511E+00 -0.14718259371E+03  0.19323269258E+03  0.12509000000E+03 0.  0.
         25    1    4    4    0    0 -0.56811379425E+01 -0.69121435234E+02 -0.25260727435E+03  0.29028949566E+03  0.12509000000E+03 0.  0.
<mgrwt>
<rscale>  2 0.45647719E+03</rscale>
<asrwt>0</asrwt>
<pdfrwt beam="1">  1       21 0.14363972E-01 0.45647719E+03</pdfrwt>
<pdfrwt beam="2">  1       21 0.78430645E-01 0.45647719E+03</pdfrwt>
<totfact> 0.56151736E+04</totfact>
</mgrwt>
</event>
<event>
 7    0  0.4766352E-002  0.4590748E+03  0.7546771E-02  0.1025050E+00
         21   -1    0    0  502  501  0.00000000000E+00  0.00000000000E+00  0.41749908981E+02  0.41749908981E+02  0.00000000000E+00 0. -1.
         21   -1    0    0  501  502 -0.00000000000E+00 -0.00000000000E+00 -0.12619766506E+04  0.12619766506E+04  0.00000000000E+00 0. -1.
      99926    2    1    2    0    0  0.00000000000E+00  0.00000000000E+00 -0.12202267416E+04  0.13037265596E+04  0.45907476645E+03 0.  0.
      99925    2    3    3    0    0  0.73316787275E+02  0.31707282959E+02 -0.10075983533E+04  0.10444216373E+04  0.26302359563E+03 0.  0.
         25    1    3    3    0    0 -0.73316787275E+02 -0.31707282959E+02 -0.21262838836E+03  0.25930492229E+03  0.12509000000E+03 0.  0.
         25    1    4    4    0    0  0.23068664587E+02  0.32071075259E+02 -0.36557486874E+03  0.38839826198E+03  0.12509000000E+03 0.  0.
         25    1    4    4    0    0  0.50248122688E+02 -0.36379230035E+00 -0.64202348451E+03  0.65602337530E+03  0.12509000000E+03 0.  0.
<mgrwt>
<rscale>  2 0.45907477E+03</rscale>
<asrwt>0</asrwt>
<pdfrwt beam="1">  1       21 0.61396933E-02 0.45907477E+03</pdfrwt>
<pdfrwt beam="2">  1       21 0.18558478E+00 0.45907477E+03</pdfrwt>
<totfact> 0.28105393E+04</totfact>
</mgrwt>
</event>
<event>
 7    0  0.4766352E-002  0.4523618E+03  0.7546771E-02  0.1027020E+00
         21   -1    0    0  502  501  0.00000000000E+00  0.00000000000E+00  0.68717876948E+03  0.68717876948E+03  0.00000000000E+00 0. -1.
         21   -1    0    0  501  502 -0.00000000000E+00 -0.00000000000E+00 -0.74446144773E+02  0.74446144773E+02  0.00000000000E+00 0. -1.
      99926    2    1    2    0    0  0.00000000000E+00  0.00000000000E+00  0.61273262471E+03  0.76162491426E+03  0.45236184701E+03 0.  0.
      99925    2    3    3    0    0 -0.23912673860E+02  0.39680132643E+02  0.21712076763E+03  0.34412931133E+03  0.26293958676E+03 0.  0.
         25    1    4    4    0    0  0.23923287498E+02  0.23854825460E+01  0.92416387385E+02  0.15737315835E+03  0.12509000000E+03 0.  0.
         25    1    3    3    0    0  0.23912673860E+02 -0.39680132643E+02  0.39561185708E+03  0.41749560292E+03  0.12509000000E+03 0.  0.
         25    1    4    4    0    0 -0.47835961358E+02  0.37294650097E+02  0.12470438024E+03  0.18675615298E+03  0.12509000000E+03 0.  0.
<mgrwt>
<rscale>  2 0.45236185E+03</rscale>
<asrwt>0</asrwt>
<pdfrwt beam="1">  1       21 0.10105570E+00 0.45236185E+03</pdfrwt>
<pdfrwt beam="2">  1       21 0.10947963E-01 0.45236185E+03</pdfrwt>
<totfact> 0.50719006E+04</totfact>
</mgrwt>
</event>
<event>
 7    0  0.4766352E-002  0.4549686E+03  0.7546771E-02  0.1026251E+00
         21   -1    0    0  502  501  0.00000000000E+00  0.00000000000E+00  0.51702109179E+03  0.51702109179E+03  0.00000000000E+00 0. -1.
         21   -1    0    0  501  502 -0.00000000000E+00 -0.00000000000E+00 -0.10009091033E+03  0.10009091033E+03  0.00000000000E+00 0. -1.
      99926    2    1    2    0    0  0.00000000000E+00  0.00000000000E+00  0.41693018145E+03  0.61711200212E+03  0.45496862194E+03 0.  0.
      99925    2    3    3    0    0  0.23186378314E+02 -0.21205524681E+02  0.40965266284E+03  0.48793091684E+03  0.26319953082E+03 0.  0.
         25    1    4    4    0    0 -0.39749601144E+01 -0.37181634824E+02  0.15651977966E+03  0.20382400203E+03  0.12509000000E+03 0.  0.
         25    1    3    3    0    0 -0.23186378314E+02  0.21205524681E+02  0.72775186132E+01  0.12918108528E+03  0.12509000000E+03 0.  0.
         25    1    4    4    0    0  0.27161338429E+02  0.15976110143E+02  0.25313288318E+03  0.28410691482E+03  0.12509000000E+03 0.  0.
<mgrwt>
<rscale>  2 0.45496862E+03</rscale>
<asrwt>0</asrwt>
<pdfrwt beam="1">  1       21 0.76032512E-01 0.45496862E+03</pdfrwt>
<pdfrwt beam="2">  1       21 0.14719252E-01 0.45496862E+03</pdfrwt>
<totfact> 0.57651439E+04</totfact>
</mgrwt>
</event>
<event>
 7    0  0.4766352E-002  0.4552753E+03  0.7546771E-02  0.1026160E+00
         21   -1    0    0  502  501  0.00000000000E+00  0.00000000000E+00  0.13574518699E+04  0.13574518699E+04  0.00000000000E+00 0.  1.
         21   -1    0    0  501  502 -0.00000000000E+00 -0.00000000000E+00 -0.38173654114E+02  0.38173654114E+02  0.00000000000E+00 0.  1.
      99926    2    1    2    0    0 -0.71054273576E-14  0.00000000000E+00  0.13192782158E+04  0.13956255240E+04  0.45527529324E+03 0.  0.
      99925    2    3    3    0    0  0.49373618695E+02  0.67806329321E+02  0.10641269759E+04  0.10993399931E+04  0.26295769064E+03 0.  0.
         25    1    4    4    0    0  0.49848267755E+01 -0.34001126284E+01  0.46512302041E+03  0.48168801260E+03  0.12509000000E+03 0.  0.
         25    1    3    3    0    0 -0.49373618695E+02 -0.67806329321E+02  0.25515123994E+03  0.29628553097E+03  0.12509000000E+03 0.  0.
         25    1    4    4    0    0  0.44388791920E+02  0.71206441950E+02  0.59900395546E+03  0.61765198047E+03  0.12509000000E+03 0.  0.
<mgrwt>
<rscale>  2 0.45527529E+03</rscale>
<asrwt>0</asrwt>
<pdfrwt beam="1">  1       21 0.19962524E+00 0.45527529E+03</pdfrwt>
<pdfrwt beam="2">  1       21 0.56137736E-02 0.45527529E+03</pdfrwt>
<totfact> 0.26392300E+04</totfact>
</mgrwt>
</event>
<event>
 7    0  0.4766352E-002  0.4495565E+03  0.7546771E-02  0.1027854E+00
         21   -1    0    0  502  501  0.00000000000E+00  0.00000000000E+00  0.67505496690E+02  0.67505496690E+02  0.00000000000E+00 0. -1.
         21   -1    0    0  501  502 -0.00000000000E+00 -0.00000000000E+00 -0.74846134909E+03  0.74846134909E+03  0.00000000000E+00 0. -1.
      99926    2    1    2    0    0  0.00000000000E+00  0.00000000000E+00 -0.68095585240E+03  0.81596684578E+03  0.44955647086E+03 0.  0.
      99925    2    3    3    0    0  0.10476966180E+03  0.23883795628E+02 -0.44746663762E+03  0.53011401783E+03  0.26314893575E+03 0.  0.
         25    1    3    3    0    0 -0.10476966180E+03 -0.23883795628E+02 -0.23348921478E+03  0.28585282795E+03  0.12509000000E+03 0.  0.
         25    1    4    4    0    0  0.19130905466E+02 -0.24755982381E+01 -0.24554895252E+03  0.27624973541E+03  0.12509000000E+03 0.  0.
         25    1    4    4    0    0  0.85638756339E+02  0.26359393866E+02 -0.20191768510E+03  0.25386428242E+03  0.12509000000E+03 0.  0.
<mgrwt>
<rscale>  2 0.44955647E+03</rscale>
<asrwt>0</asrwt>
<pdfrwt beam="1">  1       21 0.99272787E-02 0.44955647E+03</pdfrwt>
<pdfrwt beam="2">  1       21 0.11006785E+00 0.44955647E+03</pdfrwt>
<totfact> 0.49064648E+04</totfact>
</mgrwt>
</event>
<event>
 7    0  0.4766352E-002  0.4562991E+03  0.7546771E-02  0.1025860E+00
         21   -1    0    0  502  501  0.00000000000E+00  0.00000000000E+00  0.47928900679E+03  0.47928900679E+03  0.00000000000E+00 0. -1.
         21   -1    0    0  501  502 -0.00000000000E+00 -0.00000000000E+00 -0.10860298387E+03  0.10860298387E+03  0.00000000000E+00 0. -1.
      99926    2    1    2    0    0  0.00000000000E+00  0.00000000000E+00  0.37068602291E+03  0.58789199066E+03  0.45629909609E+03 0.  0.
      99925    2    3    3    0    0 -0.39560982632E+02  0.87928262896E+02  0.15388804534E+03  0.31966573925E+03  0.26307452098E+03 0.  0.
         25    1    4    4    0    0 -0.60335216492E+02  0.49590477161E+02  0.87743335435E+02  0.17159823655E+03  0.12509000000E+03 0.  0.
         25    1    3    3    0    0  0.39560982632E+02 -0.87928262896E+02  0.21679797758E+03  0.26822625141E+03  0.12509000000E+03 0.  0.
         25    1    4    4    0    0  0.20774233860E+02  0.38337785735E+02  0.66144709902E+02  0.14806750270E+03  0.12509000000E+03 0.  0.
<mgrwt>
<rscale>  2 0.45629910E+03</rscale>
<asrwt>0</asrwt>
<pdfrwt beam="1">  1       21 0.70483677E-01 0.45629910E+03</pdfrwt>
<pdfrwt beam="2">  1       21 0.15971027E-01 0.45629910E+03</pdfrwt>
<totfact> 0.58823468E+04</totfact>
</mgrwt>
</event>
<event>
 7    0  0.4766352E-002  0.4520516E+03  0.7546771E-02  0.1027112E+00
         21   -1    0    0  502  501  0.00000000000E+00  0.00000000000E+00  0.19691828096E+03  0.19691828096E+03  0.00000000000E+00 0.  1.
         21   -1    0    0  501  502 -0.00000000000E+00 -0.00000000000E+00 -0.25943581158E+03  0.25943581158E+03  0.00000000000E+00 0.  1.
      99926    2    1    2    0    0  0.00000000000E+00  0.71054273576E-14 -0.62517530622E+02  0.45635409253E+03  0.45205156358E+03 0.  0.
      99925    2    3    3    0    0  0.60512790294E+02  0.59164602831E+02  0.32230723510E+02  0.27806503572E+03  0.26290510938E+03 0.  0.
         25    1    4    4    0    0  0.39177743712E+02  0.51347378814E+02  0.50622296669E+02  0.14960472564E+03  0.12509000000E+03 0.  0.
         25    1    4    4    0    0  0.21335046581E+02  0.78172240175E+01 -0.18391573159E+02  0.12846031009E+03  0.12509000000E+03 0.  0.
         25    1    3    3    0    0 -0.60512790294E+02 -0.59164602831E+02 -0.94748254132E+02  0.17828905681E+03  0.12509000000E+03 0.  0.
<mgrwt>
<rscale>  2 0.45205156E+03</rscale>
<asrwt>0</asrwt>
<pdfrwt beam="1">  1       21 0.28958571E-01 0.45205156E+03</pdfrwt>
<pdfrwt beam="2">  1       21 0.38152325E-01 0.45205156E+03</pdfrwt>
<totfact> 0.70080465E+04</totfact>
</mgrwt>
</event>
<event>
 7    0  0.4766352E-002  0.4518469E+03  0.7546771E-02  0.1027173E+00
         21   -1    0    0  502  501  0.00000000000E+00  0.00000000000E+00  0.82417150602E+02  0.82417150602E+02  0.00000000000E+00 0. -1.
         21   -1    0    0  501  502 -0.00000000000E+00 -0.00000000000E+00 -0.61930573796E+03  0.61930573796E+03  0.00000000000E+00 0. -1.
      99926    2    1    2    0    0  0.00000000000E+00  0.00000000000E+00 -0.53688858735E+03  0.70172288856E+03  0.45184693990E+03 0.  0.
      99925    2    3    3    0    0 -0.39507043337E+02  0.58478262623E+02 -0.20756770140E+03  0.34244546414E+03  0.26306659151E+03 0.  0.
         25    1    3    3    0    0  0.39507043337E+02 -0.58478262623E+02 -0.32932088596E+03  0.35927742442E+03  0.12509000000E+03 0.  0.
         25    1    4    4    0    0 -0.49278540946E+02  0.50287168363E+02 -0.84840868797E+02  0.16674128168E+03  0.12509000000E+03 0.  0.
         25    1    4    4    0    0  0.97714976083E+01  0.81910942597E+01 -0.12272683260E+03  0.17570418245E+03  0.12509000000E+03 0.  0.
<mgrwt>
<rscale>  2 0.45184694E+03</rscale>
<asrwt>0</asrwt>
<pdfrwt beam="1">  1       21 0.12120169E-01 0.45184694E+03</pdfrwt>
<pdfrwt beam="2">  1       21 0.91074372E-01 0.45184694E+03</pdfrwt>
<totfact> 0.54140420E+04</totfact>
</mgrwt>
</event>
<event>
 7    0  0.4766352E-002  0.4545286E+03  0.7546771E-02  0.1026380E+00
         21   -1    0    0  502  501  0.00000000000E+00  0.00000000000E+00  0.10919623741E+04  0.10919623741E+04  0.00000000000E+00 0.  1.
         21   -1    0    0  501  502 -0.00000000000E+00 -0.00000000000E+00 -0.47299306720E+02  0.47299306720E+02  0.00000000000E+00 0.  1.
      99926    2    1    2    0    0  0.88817841970E-15  0.00000000000E+00  0.10446630674E+04  0.11392616809E+04  0.45452860531E+03 0.  0.
      99925    2    3    3    0    0  0.70184593375E+01  0.61222501904E+02  0.89454762815E+03  0.93437242610E+03  0.26275257963E+03 0.  0.
         25    1    3    3    0    0 -0.70184593375E+01 -0.61222501904E+02  0.15011543926E+03  0.20488925476E+03  0.12509000000E+03 0.  0.
         25    1    4    4    0    0 -0.14488695771E+02  0.13257502233E+02  0.54251445876E+03  0.55709526092E+03  0.12509000000E+03 0.  0.
         25    1    4    4    0    0  0.21507155108E+02  0.47964999672E+02  0.35203316939E+03  0.37727716518E+03  0.12509000000E+03 0.  0.
<mgrwt>
<rscale>  2 0.45452861E+03</rscale>
<asrwt>0</asrwt>
<pdfrwt beam="1">  1       21 0.16058269E+00 0.45452861E+03</pdfrwt>
<pdfrwt beam="2">  1       21 0.69557811E-02 0.45452861E+03</pdfrwt>
<totfact> 0.34268671E+04</totfact>
</mgrwt>
</event>
<event>
 7    0  0.4766352E-002  0.4536534E+03  0.7546771E-02  0.1026638E+00
         21   -1    0    0  502  501  0.00000000000E+00  0.00000000000E+00  0.24035060772E+03  0.24035060772E+03  0.00000000000E+00 0. -1.
         21   -1    0    0  501  502 -0.00000000000E+00 -0.00000000000E+00 -0.21406375875E+03  0.21406375875E+03  0.00000000000E+00 0. -1.
      99926    2    1    2    0    0  0.00000000000E+00  0.00000000000E+00  0.26286848967E+02  0.45441436646E+03  0.45365341178E+03 0.  0.
      99925    2    3    3    0    0 -0.46990645630E+02  0.51843522835E+02 -0.70855411366E+02  0.28126703475E+03  0.26304901422E+03 0.  0.
         25    1    4    4    0    0 -0.11500606178E+02  0.48562055657E+01  0.43598320327E+00  0.12571215079E+03  0.12509000000E+03 0.  0.
         25    1    3    3    0    0  0.46990645630E+02 -0.51843522835E+02  0.97142260332E+02  0.17314733171E+03  0.12509000000E+03 0.  0.
         25    1    4    4    0    0 -0.35490039453E+02  0.46987317269E+02 -0.71291394569E+02  0.15555488396E+03  0.12509000000E+03 0.  0.
<mgrwt>
<rscale>  2 0.45365341E+03</rscale>
<asrwt>0</asrwt>
<pdfrwt beam="1">  1       21 0.35345678E-01 0.45365341E+03</pdfrwt>
<pdfrwt beam="2">  1       21 0.31479964E-01 0.45365341E+03</pdfrwt>
<totfact> 0.69330662E+04</totfact>
</mgrwt>
</event>
<event>
 7    0  0.4766352E-002  0.4590612E+03  0.7546771E-02  0.1025054E+00
         21   -1    0    0  502  501  0.00000000000E+00  0.00000000000E+00  0.24673097562E+03  0.24673097562E+03  0.00000000000E+00 0.  1.
         21   -1    0    0  501  502 -0.00000000000E+00 -0.00000000000E+00 -0.21352933101E+03  0.21352933101E+03  0.00000000000E+00 0.  1.
      99926    2    1    2    0    0  0.00000000000E+00  0.00000000000E+00  0.33201644610E+02  0.46026030663E+03  0.45906121667E+03 0.  0.
      99925    2    3    3    0    0 -0.61303484580E+02  0.98063465369E+02  0.36561459215E+02  0.28986853184E+03  0.26327260584E+03 0.  0.
         25    1    4    4    0    0 -0.14909873282E+02  0.62318076112E+02  0.54179069854E+02  0.15062777513E+03  0.12509000000E+03 0.  0.
         25    1    4    4    0    0 -0.46393611299E+02  0.35745389257E+02 -0.17617610638E+02  0.13924075670E+03  0.12509000000E+03 0.  0.
         25    1    3    3    0    0  0.61303484580E+02 -0.98063465369E+02 -0.33598146057E+01  0.17039177479E+03  0.12509000000E+03 0.  0.
<mgrwt>
<rscale>  2 0.45906122E+03</rscale>
<asrwt>0</asrwt>
<pdfrwt beam="1">  1       21 0.36283967E-01 0.45906122E+03</pdfrwt>
<pdfrwt beam="2">  1       21 0.31401372E-01 0.45906122E+03</pdfrwt>
<totfact> 0.65997554E+04</totfact>
</mgrwt>
</event>
<event>
 7    0  0.4766352E-002  0.4556699E+03  0.7546771E-02  0.1026045E+00
         21   -1    0    0  502  501  0.00000000000E+00  0.00000000000E+00  0.61694749812E+02  0.61694749812E+02  0.00000000000E+00 0.  1.
         21   -1    0    0  501  502 -0.00000000000E+00 -0.00000000000E+00 -0.84138063597E+03  0.84138063597E+03  0.00000000000E+00 0.  1.
      99926    2    1    2    0    0  0.71054273576E-14  0.00000000000E+00 -0.77968588616E+03  0.90307538578E+03  0.45566991488E+03 0.  0.
      99925    2    3    3    0    0 -0.32296462971E+02  0.37965773420E+02 -0.28395701177E+03  0.38938375993E+03  0.26173205094E+03 0.  0.
         25    1    4    4    0    0 -0.68322974173E+01  0.45837623120E+02 -0.10680717920E+03  0.17088899792E+03  0.12509000000E+03 0.  0.
         25    1    4    4    0    0 -0.25464165554E+02 -0.78718497004E+01 -0.17714983257E+03  0.21849476201E+03  0.12509000000E+03 0.  0.
         25    1    3    3    0    0  0.32296462971E+02 -0.37965773420E+02 -0.49572887439E+03  0.51369162586E+03  0.12509000000E+03 0.  0.
<mgrwt>
<rscale>  2 0.45566991E+03</rscale>
<asrwt>0</asrwt>
<pdfrwt beam="1">  1       21 0.90727583E-02 0.45566991E+03</pdfrwt>
<pdfrwt beam="2">  1       21 0.12373243E+00 0.45566991E+03</pdfrwt>
<totfact> 0.42875679E+04</totfact>
</mgrwt>
</event>
<event>
 7    0  0.4766352E-002  0.4618893E+03  0.7546771E-02  0.1024235E+00
         21   -1    0    0  502  501  0.00000000000E+00  0.00000000000E+00  0.77524134853E+03  0.77524134853E+03  0.00000000000E+00 0.  1.
         21   -1    0    0  501  502 -0.00000000000E+00 -0.00000000000E+00 -0.68798498679E+02  0.68798498679E+02  0.00000000000E+00 0.  1.
      99926    2    1    2    0    0  0.00000000000E+00  0.35527136788E-14  0.70644284985E+03  0.84403984721E+03  0.46188934126E+03 0.  0.
      99925    2    3    3    0    0 -0.61583227321E+02  0.20048670946E+02  0.25836459274E+03  0.37434199147E+03  0.26303083602E+03 0.  0.
         25    1    4    4    0    0 -0.46434232683E+02  0.41842198566E+02  0.10627533379E+03  0.17563844174E+03  0.12509000000E+03 0.  0.
         25    1    4    4    0    0 -0.15148994639E+02 -0.21793527620E+02  0.15208925895E+03  0.19870354973E+03  0.12509000000E+03 0.  0.
         25    1    3    3    0    0  0.61583227321E+02 -0.20048670946E+02  0.44807825711E+03  0.46969785574E+03  0.12509000000E+03 0.  0.
<mgrwt>
<rscale>  2 0.46188934E+03</rscale>
<asrwt>0</asrwt>
<pdfrwt beam="1">  1       21 0.11400608E+00 0.46188934E+03</pdfrwt>
<pdfrwt beam="2">  1       21 0.10117427E-01 0.46188934E+03</pdfrwt>
<totfact> 0.43318036E+04</totfact>
</mgrwt>
</event>
<event>
 7    0  0.4766352E-002  0.4557465E+03  0.7546771E-02  0.1026022E+00
         21   -1    0    0  502  501  0.00000000000E+00  0.00000000000E+00  0.96086013538E+02  0.96086013538E+02  0.00000000000E+00 0. -1.
         21   -1    0    0  501  502 -0.00000000000E+00 -0.00000000000E+00 -0.54041382340E+03  0.54041382340E+03  0.00000000000E+00 0. -1.
      99926    2    1    2    0    0  0.00000000000E+00  0.00000000000E+00 -0.44432780986E+03  0.63649983694E+03  0.45574646439E+03 0.  0.
      99925    2    3    3    0    0 -0.10219751244E+03  0.11416555769E+02 -0.34773003504E+03  0.44794398979E+03  0.26298853859E+03 0.  0.
         25    1    4    4    0    0 -0.16865776417E+02  0.21895048024E+02 -0.12986252691E+03  0.18241609451E+03  0.12509000000E+03 0.  0.
         25    1    3    3    0    0  0.10219751244E+03 -0.11416555769E+02 -0.96597774828E+02  0.18855584715E+03  0.12509000000E+03 0.  0.
         25    1    4    4    0    0 -0.85331736019E+02 -0.10478492255E+02 -0.21786750813E+03  0.26552789527E+03  0.12509000000E+03 0.  0.
<mgrwt>
<rscale>  2 0.45574646E+03</rscale>
<asrwt>0</asrwt>
<pdfrwt beam="1">  1       21 0.14130296E-01 0.45574646E+03</pdfrwt>
<pdfrwt beam="2">  1       21 0.79472620E-01 0.45574646E+03</pdfrwt>
<totfact> 0.56154449E+04</totfact>
</mgrwt>
</event>
<event>
 7    0  0.4766352E-002  0.4546850E+03  0.7546771E-02  0.1026334E+00
         21   -1    0    0  502  501  0.00000000000E+00  0.00000000000E+00  0.23725731193E+03  0.23725731193E+03  0.00000000000E+00 0. -1.
         21   -1    0    0  501  502 -0.00000000000E+00 -0.00000000000E+00 -0.21784205807E+03  0.21784205807E+03  0.00000000000E+00 0. -1.
      99926    2    1    2    0    0  0.00000000000E+00  0.71054273576E-14  0.19415253861E+02  0.45509937001E+03  0.45468503879E+03 0.  0.
      99925    2    3    3    0    0  0.47666969821E+02  0.50100052510E+02 -0.77150892631E+02  0.28260390913E+03  0.26292689849E+03 0.  0.
         25    1    3    3    0    0 -0.47666969821E+02 -0.50100052510E+02  0.96566146492E+02  0.17249546087E+03  0.12509000000E+03 0.  0.
         25    1    4    4    0    0  0.36828489086E+02 -0.45114710483E+01 -0.63189534317E+02  0.14497281237E+03  0.12509000000E+03 0.  0.
         25    1    4    4    0    0  0.10838480735E+02  0.54611523558E+02 -0.13961358314E+02  0.13763109676E+03  0.12509000000E+03 0.  0.
<mgrwt>
<rscale>  2 0.45468504E+03</rscale>
<asrwt>0</asrwt>
<pdfrwt beam="1">  1       21 0.34890781E-01 0.45468504E+03</pdfrwt>
<pdfrwt beam="2">  1       21 0.32035597E-01 0.45468504E+03</pdfrwt>
<totfact> 0.68711046E+04</totfact>
</mgrwt>
</event>
<event>
 7    0  0.4766352E-002  0.4594840E+03  0.7546771E-02  0.1024931E+00
         21   -1    0    0  502  501  0.00000000000E+00  0.00000000000E+00  0.59347874406E+03  0.59347874406E+03  0.00000000000E+00 0. -1.
         21   -1    0    0  501  502 -0.00000000000E+00 -0.00000000000E+00 -0.88935614379E+02  0.88935614379E+02  0.00000000000E+00 0. -1.
      99926    2    1    2    0    0 -0.71054273576E-14  0.00000000000E+00  0.50454312968E+03  0.68241435844E+03  0.45948404422E+03 0.  0.
      99925    2    3    3    0    0  0.52417942456E+02  0.64844617370E+02  0.19370254135E+03  0.33712919434E+03  0.26302652729E+03 0.  0.
         25    1    4    4    0    0  0.52089320319E+01  0.11165195277E+02  0.12587268097E+03  0.17788545324E+03  0.12509000000E+03 0.  0.
         25    1    4    4    0    0  0.47209010424E+02  0.53679422092E+02  0.67829860378E+02  0.15924374110E+03  0.12509000000E+03 0.  0.
         25    1    3    3    0    0 -0.52417942456E+02 -0.64844617370E+02  0.31084058833E+03  0.34528516410E+03  0.12509000000E+03 0.  0.
<mgrwt>
<rscale>  2 0.45948404E+03</rscale>
<asrwt>0</asrwt>
<pdfrwt beam="1">  1       21 0.87276284E-01 0.45948404E+03</pdfrwt>
<pdfrwt beam="2">  1       21 0.13078767E-01 0.45948404E+03</pdfrwt>
<totfact> 0.52007008E+04</totfact>
</mgrwt>
</event>
<event>
 7    0  0.4766352E-002  0.4362681E+03  0.7546771E-02  0.1031898E+00
         21   -1    0    0  502  501  0.00000000000E+00  0.00000000000E+00  0.68984980681E+02  0.68984980681E+02  0.00000000000E+00 0.  1.
         21   -1    0    0  501  502 -0.00000000000E+00 -0.00000000000E+00 -0.68975110120E+03  0.68975110120E+03  0.00000000000E+00 0.  1.
      99926    2    1    2    0    0  0.00000000000E+00  0.00000000000E+00 -0.62076612052E+03  0.75873608188E+03  0.43626811202E+03 0.  0.
      99925    2    3    3    0    0 -0.89594382938E+02  0.16519103467E+02 -0.35384757581E+03  0.45020236923E+03  0.26300956659E+03 0.  0.
         25    1    4    4    0    0 -0.30689109168E+02  0.69402485287E+01 -0.10910994486E+03  0.16894518826E+03  0.12509000000E+03 0.  0.
         25    1    4    4    0    0 -0.58905273770E+02  0.95788549379E+01 -0.24473763095E+03  0.28125718096E+03  0.12509000000E+03 0.  0.
         25    1    3    3    0    0  0.89594382938E+02 -0.16519103467E+02 -0.26691854472E+03  0.30853371266E+03  0.12509000000E+03 0.  0.
<mgrwt>
<rscale>  2 0.43626811E+03</rscale>
<asrwt>0</asrwt>
<pdfrwt beam="1">  1       21 0.10144850E-01 0.43626811E+03</pdfrwt>
<pdfrwt beam="2">  1       21 0.10143399E+00 0.43626811E+03</pdfrwt>
<totfact> 0.57879744E+04</totfact>
</mgrwt>
</event>
<event>
 7    0  0.4766352E-002  0.4600242E+03  0.7546771E-02  0.1024774E+00
         21   -1    0    0  502  501  0.00000000000E+00  0.00000000000E+00  0.62837518287E+03  0.62837518287E+03  0.00000000000E+00 0.  1.
         21   -1    0    0  501  502 -0.00000000000E+00 -0.00000000000E+00 -0.84194228416E+02  0.84194228416E+02  0.00000000000E+00 0.  1.
      99926    2    1    2    0    0  0.00000000000E+00  0.14210854715E-13  0.54418095446E+03  0.71256941129E+03  0.46002418927E+03 0.  0.
      99925    2    3    3    0    0 -0.63428378856E+02  0.99168970013E+02  0.33311302290E+03  0.44043925183E+03  0.26299202396E+03 0.  0.
         25    1    4    4    0    0 -0.17479034181E+02  0.39940544376E+02  0.21607961027E+03  0.25345348646E+03  0.12509000000E+03 0.  0.
         25    1    3    3    0    0  0.63428378856E+02 -0.99168970013E+02  0.21106793155E+03  0.27213015946E+03  0.12509000000E+03 0.  0.
         25    1    4    4    0    0 -0.45949344675E+02  0.59228425637E+02  0.11703341263E+03  0.18698576537E+03  0.12509000000E+03 0.  0.
<mgrwt>
<rscale>  2 0.46002419E+03</rscale>
<asrwt>0</asrwt>
<pdfrwt beam="1">  1       21 0.92408113E-01 0.46002419E+03</pdfrwt>
<pdfrwt beam="2">  1       21 0.12381505E-01 0.46002419E+03</pdfrwt>
<totfact> 0.50211534E+04</totfact>
</mgrwt>
</event>
<event>
 7    0  0.4766352E-002  0.4309338E+03  0.7546771E-02  0.1033565E+00
         21   -1    0    0  502  501  0.00000000000E+00  0.00000000000E+00  0.30769176647E+03  0.30769176647E+03  0.00000000000E+00 0.  1.
         21   -1    0    0  501  502 -0.00000000000E+00 -0.00000000000E+00 -0.15088468947E+03  0.15088468947E+03  0.00000000000E+00 0.  1.
      99926    2    1    2    0    0  0.00000000000E+00  0.00000000000E+00  0.15680707699E+03  0.45857645594E+03  0.43093376121E+03 0.  0.
      99925    2    3    3    0    0  0.78076831259E+02 -0.37863513633E+02  0.12021850782E+03  0.30200101490E+03  0.26310166501E+03 0.  0.
         25    1    3    3    0    0 -0.78076831259E+02  0.37863513633E+02  0.36588569175E+02  0.15657544104E+03  0.12509000000E+03 0.  0.
         25    1    4    4    0    0  0.48677477648E+02  0.18756204568E+02  0.72436889956E+02  0.15367466664E+03  0.12509000000E+03 0.  0.
         25    1    4    4    0    0  0.29399353611E+02 -0.56619718202E+02  0.47781617863E+02  0.14832634826E+03  0.12509000000E+03 0.  0.
<mgrwt>
<rscale>  2 0.43093376E+03</rscale>
<asrwt>0</asrwt>
<pdfrwt beam="1">  1       21 0.45248789E-01 0.43093376E+03</pdfrwt>
<pdfrwt beam="2">  1       21 0.22188925E-01 0.43093376E+03</pdfrwt>
<totfact> 0.83058720E+04</totfact>
</mgrwt>
</event>
<event>
 7    0  0.4766352E-002  0.4488883E+03  0.7546771E-02  0.1028054E+00
         21   -1    0    0  502  501  0.00000000000E+00  0.00000000000E+00  0.51041004143E+03  0.51041004143E+03  0.00000000000E+00 0. -1.
         21   -1    0    0  501  502 -0.00000000000E+00 -0.00000000000E+00 -0.98695513307E+02  0.98695513307E+02  0.00000000000E+00 0. -1.
      99926    2    1    2    0    0  0.00000000000E+00  0.00000000000E+00  0.41171452812E+03  0.60910555474E+03  0.44888832035E+03 0.  0.
      99925    2    3    3    0    0  0.29155842920E+02  0.96704136287E+01  0.40043170214E+03  0.47980594013E+03  0.26253497296E+03 0.  0.
         25    1    3    3    0    0 -0.29155842920E+02 -0.96704136287E+01  0.11282825982E+02  0.12929961461E+03  0.12509000000E+03 0.  0.
         25    1    4    4    0    0 -0.23135759330E+02  0.10601584023E+02  0.17247629809E+03  0.21457688237E+03  0.12509000000E+03 0.  0.
         25    1    4    4    0    0  0.52291602250E+02 -0.93117039443E+00  0.22795540405E+03  0.26522905776E+03  0.12509000000E+03 0.  0.
<mgrwt>
<rscale>  2 0.44888832E+03</rscale>
<asrwt>0</asrwt>
<pdfrwt beam="1">  1       21 0.75060299E-01 0.44888832E+03</pdfrwt>
<pdfrwt beam="2">  1       21 0.14514046E-01 0.44888832E+03</pdfrwt>
<totfact> 0.61013817E+04</totfact>
</mgrwt>
</event>
<event>
 7    0  0.4766352E-002  0.4551348E+03  0.7546771E-02  0.1026202E+00
         21   -1    0    0  502  501  0.00000000000E+00  0.00000000000E+00  0.46724267748E+03  0.46724267748E+03  0.00000000000E+00 0. -1.
         21   -1    0    0  501  502 -0.00000000000E+00 -0.00000000000E+00 -0.11083518000E+03  0.11083518000E+03  0.00000000000E+00 0. -1.
      99926    2    1    2    0    0 -0.14210854715E-13  0.00000000000E+00  0.35640749748E+03  0.57807785748E+03  0.45513482074E+03 0.  0.
      99925    2    3    3    0    0  0.99853411977E+02 -0.12451015622E+02  0.15825472472E+03  0.32305283689E+03  0.26304533041E+03 0.  0.
         25    1    4    4    0    0  0.89137031491E+02 -0.24054902059E+02  0.83548656353E+02  0.17649910701E+03  0.12509000000E+03 0.  0.
         25    1    3    3    0    0 -0.99853411977E+02  0.12451015622E+02  0.19815277277E+03  0.25502502059E+03  0.12509000000E+03 0.  0.
         25    1    4    4    0    0  0.10716380486E+02  0.11603886437E+02  0.74706068363E+02  0.14655372988E+03  0.12509000000E+03 0.  0.
<mgrwt>
<rscale>  2 0.45513482E+03</rscale>
<asrwt>0</asrwt>
<pdfrwt beam="1">  1       21 0.68712158E-01 0.45513482E+03</pdfrwt>
<pdfrwt beam="2">  1       21 0.16299291E-01 0.45513482E+03</pdfrwt>
<totfact> 0.59984375E+04</totfact>
</mgrwt>
</event>
<event>
 7    0  0.4766352E-002  0.4475698E+03  0.7546771E-02  0.1028449E+00
         21   -1    0    0  502  501  0.00000000000E+00  0.00000000000E+00  0.20314057437E+03  0.20314057437E+03  0.00000000000E+00 0. -1.
         21   -1    0    0  501  502 -0.00000000000E+00 -0.00000000000E+00 -0.24652721743E+03  0.24652721743E+03  0.00000000000E+00 0. -1.
      99926    2    1    2    0    0  0.00000000000E+00  0.00000000000E+00 -0.43386643067E+02  0.44966779180E+03  0.44756979588E+03 0.  0.
      99925    2    3    3    0    0 -0.70557240255E+02 -0.54820470304E+02  0.30610517637E+02  0.27906094549E+03  0.26259169710E+03 0.  0.
         25    1    4    4    0    0 -0.20982355248E+02 -0.21933052249E+02  0.52144519098E+02  0.13888080135E+03  0.12509000000E+03 0.  0.
         25    1    3    3    0    0  0.70557240255E+02  0.54820470304E+02 -0.73997160704E+02  0.17060684631E+03  0.12509000000E+03 0.  0.
         25    1    4    4    0    0 -0.49574885007E+02 -0.32887418055E+02 -0.21534001461E+02  0.14018014413E+03  0.12509000000E+03 0.  0.
<mgrwt>
<rscale>  2 0.44756980E+03</rscale>
<asrwt>0</asrwt>
<pdfrwt beam="1">  1       21 0.29873614E-01 0.44756980E+03</pdfrwt>
<pdfrwt beam="2">  1       21 0.36254003E-01 0.44756980E+03</pdfrwt>
<totfact> 0.73181294E+04</totfact>
</mgrwt>
</event>
<event>
 7    0  0.4766352E-002  0.4588164E+03  0.7546771E-02  0.1025125E+00
         21   -1    0    0  502  501  0.00000000000E+00  0.00000000000E+00  0.32879967431E+02  0.32879967431E+02  0.00000000000E+00 0.  1.
         21   -1    0    0  501  502 -0.00000000000E+00 -0.00000000000E+00 -0.16006137606E+04  0.16006137606E+04  0.00000000000E+00 0.  1.
      99926    2    1    2    0    0  0.00000000000E+00  0.00000000000E+00 -0.15677337932E+04  0.16334937281E+04  0.45881642655E+03 0.  0.
      99925    2    3    3    0    0  0.15087524499E+02  0.87399971795E+02 -0.71331053833E+03  0.76541942535E+03  0.26303722958E+03 0.  0.
         25    1    4    4    0    0  0.11943785879E+02  0.85307291279E+02 -0.36672932939E+03  0.39693563345E+03  0.12509000000E+03 0.  0.
         25    1    4    4    0    0  0.31437386199E+01  0.20926805160E+01 -0.34658120894E+03  0.36848379191E+03  0.12509000000E+03 0.  0.
         25    1    3    3    0    0 -0.15087524499E+02 -0.87399971795E+02 -0.85442325486E+03  0.86807430270E+03  0.12509000000E+03 0.  0.
<mgrwt>
<rscale>  2 0.45881643E+03</rscale>
<asrwt>0</asrwt>
<pdfrwt beam="1">  1       21 0.48352901E-02 0.45881643E+03</pdfrwt>
<pdfrwt beam="2">  1       21 0.23538434E+00 0.45881643E+03</pdfrwt>
<totfact> 0.20081679E+04</totfact>
</mgrwt>
</event>
<event>
 7    0  0.4766352E-002  0.4524610E+03  0.7546771E-02  0.1026991E+00
         21   -1    0    0  502  501  0.00000000000E+00  0.00000000000E+00  0.10711112628E+04  0.10711112628E+04  0.00000000000E+00 0. -1.
         21   -1    0    0  501  502 -0.00000000000E+00 -0.00000000000E+00 -0.47782377524E+02  0.47782377524E+02  0.00000000000E+00 0. -1.
      99926    2    1    2    0    0  0.00000000000E+00  0.00000000000E+00  0.10233288853E+04  0.11188936403E+04  0.45246101591E+03 0.  0.
      99925    2    3    3    0    0  0.73581079228E+01  0.10172376861E+03  0.53925575640E+03  0.60862295818E+03  0.26310315005E+03 0.  0.
         25    1    4    4    0    0 -0.62015186677E+01  0.63425330167E+02  0.35909875691E+03  0.38556537274E+03  0.12509000000E+03 0.  0.
         25    1    4    4    0    0  0.13559626591E+02  0.38298438439E+02  0.18015699948E+03  0.22305758544E+03  0.12509000000E+03 0.  0.
         25    1    3    3    0    0 -0.73581079228E+01 -0.10172376861E+03  0.48407312890E+03  0.51027068216E+03  0.12509000000E+03 0.  0.
<mgrwt>
<rscale>  2 0.45246102E+03</rscale>
<asrwt>0</asrwt>
<pdfrwt beam="1">  1       21 0.15751635E+00 0.45246102E+03</pdfrwt>
<pdfrwt beam="2">  1       21 0.70268209E-02 0.45246102E+03</pdfrwt>
<totfact> 0.35536290E+04</totfact>
</mgrwt>
</event>
<event>
 7    0  0.4766352E-002  0.4308292E+03  0.7546771E-02  0.1033598E+00
         21   -1    0    0  502  501  0.00000000000E+00  0.00000000000E+00  0.52339053619E+02  0.52339053619E+02  0.00000000000E+00 0. -1.
         21   -1    0    0  501  502 -0.00000000000E+00 -0.00000000000E+00 -0.88659319554E+03  0.88659319554E+03  0.00000000000E+00 0. -1.
      99926    2    1    2    0    0  0.00000000000E+00  0.00000000000E+00 -0.83425414193E+03  0.93893224916E+03  0.43082919492E+03 0.  0.
      99925    2    3    3    0    0  0.81465194403E+02  0.23663897799E+02 -0.48085722738E+03  0.55457116207E+03  0.26292383445E+03 0.  0.
         25    1    4    4    0    0  0.76274632957E+02 -0.43085270520E+01 -0.28420482481E+03  0.31977534861E+03  0.12509000000E+03 0.  0.
         25    1    3    3    0    0 -0.81465194403E+02 -0.23663897799E+02 -0.35339691455E+03  0.38436108709E+03  0.12509000000E+03 0.  0.
         25    1    4    4    0    0  0.51905614450E+01  0.27972424851E+02 -0.19665240257E+03  0.23479581346E+03  0.12509000000E+03 0.  0.
<mgrwt>
<rscale>  2 0.43082919E+03</rscale>
<asrwt>0</asrwt>
<pdfrwt beam="1">  1       21 0.76969202E-02 0.43082919E+03</pdfrwt>
<pdfrwt beam="2">  1       21 0.13038134E+00 0.43082919E+03</pdfrwt>
<totfact> 0.50480140E+04</totfact>
</mgrwt>
</event>
<event>
 7    0  0.4766352E-002  0.4540390E+03  0.7546771E-02  0.1026524E+00
         21   -1    0    0  502  501  0.00000000000E+00  0.00000000000E+00  0.11283275660E+03  0.11283275660E+03  0.00000000000E+00 0.  1.
         21   -1    0    0  501  502 -0.00000000000E+00 -0.00000000000E+00 -0.45676327727E+03  0.45676327727E+03  0.00000000000E+00 0.  1.
      99926    2    1    2    0    0  0.00000000000E+00  0.14210854715E-13 -0.34393052067E+03  0.56959603387E+03  0.45403902779E+03 0.  0.
      99925    2    3    3    0    0  0.25740308678E+01  0.66261771654E+02 -0.33024992598E+03  0.42735709832E+03  0.26300537609E+03 0.  0.
         25    1    4    4    0    0 -0.35746005530E+02  0.24823145246E+02 -0.13935789905E+03  0.19225529272E+03  0.12509000000E+03 0.  0.
         25    1    4    4    0    0  0.38320036398E+02  0.41438626407E+02 -0.19089202693E+03  0.23510180560E+03  0.12509000000E+03 0.  0.
         25    1    3    3    0    0 -0.25740308678E+01 -0.66261771654E+02 -0.13680594683E+02  0.14223893556E+03  0.12509000000E+03 0.  0.
<mgrwt>
<rscale>  2 0.45403903E+03</rscale>
<asrwt>0</asrwt>
<pdfrwt beam="1">  1       21 0.16593052E-01 0.45403903E+03</pdfrwt>
<pdfrwt beam="2">  1       21 0.67171071E-01 0.45403903E+03</pdfrwt>
<totfact> 0.61052494E+04</totfact>
</mgrwt>
</event>
<event>
 7    0  0.4766352E-002  0.4511878E+03  0.7546771E-02  0.1027368E+00
         21   -1    0    0  502  501  0.00000000000E+00  0.00000000000E+00  0.22357171894E+03  0.22357171894E+03  0.00000000000E+00 0. -1.
         21   -1    0    0  501  502 -0.00000000000E+00 -0.00000000000E+00 -0.22763436537E+03  0.22763436537E+03  0.00000000000E+00 0. -1.
      99926    2    1    2    0    0  0.71054273576E-14  0.00000000000E+00 -0.40626464369E+01  0.45120608431E+03  0.45118779397E+03 0.  0.
      99925    2    3    3    0    0 -0.38557767905E+02  0.65321922364E+02  0.76653088186E+02  0.28412468821E+03  0.26286400955E+03 0.  0.
         25    1    4    4    0    0 -0.38342062355E+02  0.59680818970E+02  0.66680384673E+02  0.15851086934E+03  0.12509000000E+03 0.  0.
         25    1    4    4    0    0 -0.21570555022E+00  0.56411033941E+01  0.99727035128E+01  0.12561381887E+03  0.12509000000E+03 0.  0.
         25    1    3    3    0    0  0.38557767905E+02 -0.65321922364E+02 -0.80715734623E+02  0.16708139610E+03  0.12509000000E+03 0.  0.
<mgrwt>
<rscale>  2 0.45118779E+03</rscale>
<asrwt>0</asrwt>
<pdfrwt beam="1">  1       21 0.32878194E-01 0.45118779E+03</pdfrwt>
<pdfrwt beam="2">  1       21 0.33475642E-01 0.45118779E+03</pdfrwt>
<totfact> 0.70958567E+04</totfact>
</mgrwt>
</event>
<event>
 7    0  0.4766352E-002  0.4546341E+03  0.7546771E-02  0.1026349E+00
         21   -1    0    0  502  501  0.00000000000E+00  0.00000000000E+00  0.93047175839E+02  0.93047175839E+02  0.00000000000E+00 0. -1.
         21   -1    0    0  501  502 -0.00000000000E+00 -0.00000000000E+00 -0.55534235626E+03  0.55534235626E+03  0.00000000000E+00 0. -1.
      99926    2    1    2    0    0 -0.14210854715E-13  0.00000000000E+00 -0.46229518042E+03  0.64838953210E+03  0.45463408528E+03 0.  0.
      99925    2    3    3    0    0  0.88256608477E+02  0.58531919802E+02 -0.34669007529E+03  0.44782217930E+03  0.26293626870E+03 0.  0.
         25    1    4    4    0    0  0.79339397032E+02  0.39208043087E+02 -0.22340889864E+03  0.27090783424E+03  0.12509000000E+03 0.  0.
         25    1    4    4    0    0  0.89172114443E+01  0.19323876715E+02 -0.12328117665E+03  0.17691434506E+03  0.12509000000E+03 0.  0.
         25    1    3    3    0    0 -0.88256608477E+02 -0.58531919802E+02 -0.11560510514E+03  0.20056735280E+03  0.12509000000E+03 0.  0.
<mgrwt>
<rscale>  2 0.45463409E+03</rscale>
<asrwt>0</asrwt>
<pdfrwt beam="1">  1       21 0.13683409E-01 0.45463409E+03</pdfrwt>
<pdfrwt beam="2">  1       21 0.81667992E-01 0.45463409E+03</pdfrwt>
<totfact> 0.55955724E+04</totfact>
</mgrwt>
</event>
<event>
 7    0  0.4766352E-002  0.4334457E+03  0.7546771E-02  0.1032777E+00
         21   -1    0    0  502  501  0.00000000000E+00  0.00000000000E+00  0.22239493641E+03  0.22239493641E+03  0.00000000000E+00 0.  1.
         21   -1    0    0  501  502 -0.00000000000E+00 -0.00000000000E+00 -0.21119539322E+03  0.21119539322E+03  0.00000000000E+00 0.  1.
      99926    2    1    2    0    0  0.00000000000E+00  0.00000000000E+00  0.11199543190E+02  0.43359032963E+03  0.43344566462E+03 0.  0.
      99925    2    3    3    0    0  0.80187591562E+02 -0.22996347210E+02 -0.32097550293E+02  0.27712618603E+03  0.26231619932E+03 0.  0.
         25    1    4    4    0    0 -0.48597369317E+00 -0.77981178484E+01 -0.21134184209E+02  0.12710314180E+03  0.12509000000E+03 0.  0.
         25    1    3    3    0    0 -0.80187591562E+02  0.22996347210E+02  0.43297093484E+02  0.15646414359E+03  0.12509000000E+03 0.  0.
         25    1    4    4    0    0  0.80673565255E+02 -0.15198229361E+02 -0.10963366085E+02  0.15002304424E+03  0.12509000000E+03 0.  0.
<mgrwt>
<rscale>  2 0.43344566E+03</rscale>
<asrwt>0</asrwt>
<pdfrwt beam="1">  1       21 0.32705138E-01 0.43344566E+03</pdfrwt>
<pdfrwt beam="2">  1       21 0.31058146E-01 0.43344566E+03</pdfrwt>
<totfact> 0.83626630E+04</totfact>
</mgrwt>
</event>
<event>
 7    0  0.4766352E-002  0.4652092E+03  0.7546771E-02  0.1023281E+00
         21   -1    0    0  502  501  0.00000000000E+00  0.00000000000E+00  0.12474885716E+04  0.12474885716E+04  0.00000000000E+00 0.  1.
         21   -1    0    0  501  502 -0.00000000000E+00 -0.00000000000E+00 -0.43371066895E+02  0.43371066895E+02  0.00000000000E+00 0.  1.
      99926    2    1    2    0    0  0.00000000000E+00  0.00000000000E+00  0.12041175047E+04  0.12908596385E+04  0.46520924449E+03 0.  0.
      99925    2    3    3    0    0 -0.10413671903E+02 -0.11858877121E+03  0.67153229709E+03  0.73097906847E+03  0.26306469031E+03 0.  0.
         25    1    3    3    0    0  0.10413671903E+02  0.11858877121E+03  0.53258520762E+03  0.55988057003E+03  0.12509000000E+03 0.  0.
         25    1    4    4    0    0  0.49223518302E+01 -0.84378000628E+02  0.27801617236E+03  0.31636114922E+03  0.12509000000E+03 0.  0.
         25    1    4    4    0    0 -0.15336023733E+02 -0.34210770583E+02  0.39351612473E+03  0.41461791925E+03  0.12509000000E+03 0.  0.
<mgrwt>
<rscale>  2 0.46520924E+03</rscale>
<asrwt>0</asrwt>
<pdfrwt beam="1">  1       21 0.18345418E+00 0.46520924E+03</pdfrwt>
<pdfrwt beam="2">  1       21 0.63780989E-02 0.46520924E+03</pdfrwt>
<totfact> 0.27158874E+04</totfact>
</mgrwt>
</event>
<event>
 7    0  0.4766352E-002  0.4534178E+03  0.7546771E-02  0.1026708E+00
         21   -1    0    0  502  501  0.00000000000E+00  0.00000000000E+00  0.69490890175E+03  0.69490890175E+03  0.00000000000E+00 0. -1.
         21   -1    0    0  501  502 -0.00000000000E+00 -0.00000000000E+00 -0.73962117754E+02  0.73962117754E+02  0.00000000000E+00 0. -1.
      99926    2    1    2    0    0  0.00000000000E+00  0.00000000000E+00  0.62094678400E+03  0.76887101951E+03  0.45341783829E+03 0.  0.
      99925    2    3    3    0    0  0.98785909668E+02  0.50734719413E+02  0.41100014947E+03  0.50043524478E+03  0.26302403626E+03 0.  0.
         25    1    4    4    0    0  0.11335369765E+02  0.13392310436E+02  0.21333438185E+03  0.24792521284E+03  0.12509000000E+03 0.  0.
         25    1    3    3    0    0 -0.98785909668E+02 -0.50734719413E+02  0.20994663453E+03  0.26843577472E+03  0.12509000000E+03 0.  0.
         25    1    4    4    0    0  0.87450539903E+02  0.37342408977E+02  0.19766576763E+03  0.25251003194E+03  0.12509000000E+03 0.  0.
<mgrwt>
<rscale>  2 0.45341784E+03</rscale>
<asrwt>0</asrwt>
<pdfrwt beam="1">  1       21 0.10219248E+00 0.45341784E+03</pdfrwt>
<pdfrwt beam="2">  1       21 0.10876782E-01 0.45341784E+03</pdfrwt>
<totfact> 0.49924458E+04</totfact>
</mgrwt>
</event>
<event>
 7    0  0.4766352E-002  0.4467759E+03  0.7546771E-02  0.1028688E+00
         21   -1    0    0  502  501  0.00000000000E+00  0.00000000000E+00  0.76133790668E+03  0.76133790668E+03  0.00000000000E+00 0. -1.
         21   -1    0    0  501  502 -0.00000000000E+00 -0.00000000000E+00 -0.65545360225E+02  0.65545360225E+02  0.00000000000E+00 0. -1.
      99926    2    1    2    0    0 -0.71054273576E-14  0.00000000000E+00  0.69579254645E+03  0.82688326690E+03  0.44677586034E+03 0.  0.
      99925    2    3    3    0    0  0.53175400984E+02 -0.56338433174E+02  0.30897685716E+03  0.41302879018E+03  0.26291527330E+03 0.  0.
         25    1    3    3    0    0 -0.53175400984E+02  0.56338433174E+02  0.38681568929E+03  0.41385447672E+03  0.12509000000E+03 0.  0.
         25    1    4    4    0    0  0.52026509657E+02 -0.43501995743E+02  0.20667067804E+03  0.25091723456E+03  0.12509000000E+03 0.  0.
         25    1    4    4    0    0  0.11488913269E+01 -0.12836437431E+02  0.10230617913E+03  0.16211155562E+03  0.12509000000E+03 0.  0.
<mgrwt>
<rscale>  2 0.44677586E+03</rscale>
<asrwt>0</asrwt>
<pdfrwt beam="1">  1       21 0.11196145E+00 0.44677586E+03</pdfrwt>
<pdfrwt beam="2">  1       21 0.96390240E-02 0.44677586E+03</pdfrwt>
<totfact> 0.49616882E+04</totfact>
</mgrwt>
</event>
<event>
 7    0  0.4766352E-002  0.4595059E+03  0.7546771E-02  0.1024925E+00
         21   -1    0    0  502  501  0.00000000000E+00  0.00000000000E+00  0.43271437682E+03  0.43271437682E+03  0.00000000000E+00 0.  1.
         21   -1    0    0  501  502 -0.00000000000E+00 -0.00000000000E+00 -0.12198907712E+03  0.12198907712E+03  0.00000000000E+00 0.  1.
      99926    2    1    2    0    0  0.00000000000E+00  0.00000000000E+00  0.31072529969E+03  0.55470345394E+03  0.45950594114E+03 0.  0.
      99925    2    3    3    0    0  0.27424796964E+02 -0.31281036762E+02  0.32722065439E+03  0.42184929490E+03  0.26296929136E+03 0.  0.
         25    1    4    4    0    0 -0.15611156999E+02 -0.25602452207E+01  0.11822305671E+03  0.17284230476E+03  0.12509000000E+03 0.  0.
         25    1    4    4    0    0  0.43035953963E+02 -0.28720791542E+02  0.20899759768E+03  0.24900699013E+03  0.12509000000E+03 0.  0.
         25    1    3    3    0    0 -0.27424796964E+02  0.31281036762E+02 -0.16495354691E+02  0.13285415905E+03  0.12509000000E+03 0.  0.
<mgrwt>
<rscale>  2 0.45950594E+03</rscale>
<asrwt>0</asrwt>
<pdfrwt beam="1">  1       21 0.63634466E-01 0.45950594E+03</pdfrwt>
<pdfrwt beam="2">  1       21 0.17939570E-01 0.45950594E+03</pdfrwt>
<totfact> 0.59410490E+04</totfact>
</mgrwt>
</event>
<event>
 7    0  0.4766352E-002  0.4514107E+03  0.7546771E-02  0.1027302E+00
         21   -1    0    0  502  501  0.00000000000E+00  0.00000000000E+00  0.87897067782E+02  0.87897067782E+02  0.00000000000E+00 0.  1.
         21   -1    0    0  501  502 -0.00000000000E+00 -0.00000000000E+00 -0.57957451575E+03  0.57957451575E+03  0.00000000000E+00 0.  1.
      99926    2    1    2    0    0  0.00000000000E+00  0.17763568394E-14 -0.49167744797E+03  0.66747158353E+03  0.45141067996E+03 0.  0.
      99925    2    3    3    0    0  0.10634335645E+03  0.93996458797E+01 -0.27239571092E+03  0.39337442720E+03  0.26295770353E+03 0.  0.
         25    1    4    4    0    0  0.87211965762E+02  0.29476488299E+02 -0.15911286730E+03  0.22234928148E+03  0.12509000000E+03 0.  0.
         25    1    4    4    0    0  0.19131390686E+02 -0.20076842420E+02 -0.11328284361E+03  0.17102514572E+03  0.12509000000E+03 0.  0.
         25    1    3    3    0    0 -0.10634335645E+03 -0.93996458797E+01 -0.21928173705E+03  0.27409715633E+03  0.12509000000E+03 0.  0.
<mgrwt>
<rscale>  2 0.45141068E+03</rscale>
<asrwt>0</asrwt>
<pdfrwt beam="1">  1       21 0.12926040E-01 0.45141068E+03</pdfrwt>
<pdfrwt beam="2">  1       21 0.85231545E-01 0.45141068E+03</pdfrwt>
<totfact> 0.56280492E+04</totfact>
</mgrwt>
</event>
<event>
 7    0  0.4766352E-002  0.4529440E+03  0.7546771E-02  0.1026848E+00
         21   -1    0    0  502  501  0.00000000000E+00  0.00000000000E+00  0.43065738826E+03  0.43065738826E+03  0.00000000000E+00 0. -1.
         21   -1    0    0  501  502 -0.00000000000E+00 -0.00000000000E+00 -0.11909599386E+03  0.11909599386E+03  0.00000000000E+00 0. -1.
      99926    2    1    2    0    0  0.00000000000E+00  0.00000000000E+00  0.31156139440E+03  0.54975338212E+03  0.45294401274E+03 0.  0.
      99925    2    3    3    0    0 -0.66522646440E+02 -0.77854310256E+02  0.14296023718E+03  0.31617167387E+03  0.26275528887E+03 0.  0.
         25    1    4    4    0    0 -0.71483755832E+02 -0.57214776564E+02  0.74266254845E+02  0.17189078717E+03  0.12509000000E+03 0.  0.
         25    1    4    4    0    0  0.49611093924E+01 -0.20639533692E+02  0.68693982332E+02  0.14428088670E+03  0.12509000000E+03 0.  0.
         25    1    3    3    0    0  0.66522646440E+02  0.77854310256E+02  0.16860115722E+03  0.23358170826E+03  0.12509000000E+03 0.  0.
<mgrwt>
<rscale>  2 0.45294401E+03</rscale>
<asrwt>0</asrwt>
<pdfrwt beam="1">  1       21 0.63331968E-01 0.45294401E+03</pdfrwt>
<pdfrwt beam="2">  1       21 0.17514117E-01 0.45294401E+03</pdfrwt>
<totfact> 0.62899763E+04</totfact>
</mgrwt>
</event>
<event>
 7    0  0.4766352E-002  0.4461409E+03  0.7546771E-02  0.1028879E+00
         21   -1    0    0  502  501  0.00000000000E+00  0.00000000000E+00  0.94875543255E+03  0.94875543255E+03  0.00000000000E+00 0.  1.
         21   -1    0    0  501  502 -0.00000000000E+00 -0.00000000000E+00 -0.52448109507E+02  0.52448109507E+02  0.00000000000E+00 0.  1.
      99926    2    1    2    0    0  0.00000000000E+00  0.00000000000E+00  0.89630732304E+03  0.10012035421E+04  0.44614091416E+03 0.  0.
      99925    2    3    3    0    0  0.57069795601E+02 -0.35879332922E+02  0.38904740562E+03  0.47441665913E+03  0.26299998962E+03 0.  0.
         25    1    3    3    0    0 -0.57069795601E+02  0.35879332922E+02  0.50725991742E+03  0.52678688293E+03  0.12509000000E+03 0.  0.
         25    1    4    4    0    0 -0.61387530216E+01 -0.79685612134E+01  0.14650397424E+03  0.19290439297E+03  0.12509000000E+03 0.  0.
         25    1    4    4    0    0  0.63208548622E+02 -0.27910771709E+02  0.24254343138E+03  0.28151226617E+03  0.12509000000E+03 0.  0.
<mgrwt>
<rscale>  2 0.44614091E+03</rscale>
<asrwt>0</asrwt>
<pdfrwt beam="1">  1       21 0.13952285E+00 0.44614091E+03</pdfrwt>
<pdfrwt beam="2">  1       21 0.77129579E-02 0.44614091E+03</pdfrwt>
<totfact> 0.41947932E+04</totfact>
</mgrwt>
</event>
<event>
 7    0  0.4766352E-002  0.4431166E+03  0.7546771E-02  0.1029795E+00
         21   -1    0    0  502  501  0.00000000000E+00  0.00000000000E+00  0.53660958327E+03  0.53660958327E+03  0.00000000000E+00 0.  1.
         21   -1    0    0  501  502 -0.00000000000E+00 -0.00000000000E+00 -0.91478184586E+02  0.91478184586E+02  0.00000000000E+00 0.  1.
      99926    2    1    2    0    0  0.00000000000E+00  0.00000000000E+00  0.44513139868E+03  0.62808776786E+03  0.44311655581E+03 0.  0.
      99925    2    3    3    0    0  0.70473833171E+02  0.62960833486E+02  0.22992559640E+03  0.36183286526E+03  0.26291940741E+03 0.  0.
         25    1    4    4    0    0  0.76422442673E+01  0.56566279580E+02  0.13416193502E+03  0.19210695144E+03  0.12509000000E+03 0.  0.
         25    1    3    3    0    0 -0.70473833171E+02 -0.62960833486E+02  0.21520580229E+03  0.26625490259E+03  0.12509000000E+03 0.  0.
         25    1    4    4    0    0  0.62831588904E+02  0.63945539065E+01  0.95763661376E+02  0.16972591383E+03  0.12509000000E+03 0.  0.
<mgrwt>
<rscale>  2 0.44311656E+03</rscale>
<asrwt>0</asrwt>
<pdfrwt beam="1">  1       21 0.78913172E-01 0.44311656E+03</pdfrwt>
<pdfrwt beam="2">  1       21 0.13452675E-01 0.44311656E+03</pdfrwt>
<totfact> 0.62655742E+04</totfact>
</mgrwt>
</event>
<event>
 7    0  0.4766352E-002  0.4327870E+03  0.7546771E-02  0.1032983E+00
         21   -1    0    0  502  501  0.00000000000E+00  0.00000000000E+00  0.28261597389E+02  0.28261597389E+02  0.00000000000E+00 0.  1.
         21   -1    0    0  501  502 -0.00000000000E+00 -0.00000000000E+00 -0.16568824709E+04  0.16568824709E+04  0.00000000000E+00 0.  1.
      99926    2    1    2    0    0 -0.66613381478E-15  0.00000000000E+00 -0.16286208735E+04  0.16851440683E+04  0.43278699294E+03 0.  0.
      99925    2    3    3    0    0 -0.15986025232E+01  0.89863823003E+02 -0.10680318742E+04  0.11037787817E+04  0.26373746868E+03 0.  0.
         25    1    4    4    0    0  0.76762201605E+01  0.82328775340E+02 -0.49928382024E+03  0.52131448556E+03  0.12509000000E+03 0.  0.
         25    1    4    4    0    0 -0.92748226837E+01  0.75350476630E+01 -0.56874805396E+03  0.58246429612E+03  0.12509000000E+03 0.  0.
         25    1    3    3    0    0  0.15986025232E+01 -0.89863823003E+02 -0.56058899932E+03  0.58136528661E+03  0.12509000000E+03 0.  0.
<mgrwt>
<rscale>  2 0.43278699E+03</rscale>
<asrwt>0</asrwt>
<pdfrwt beam="1">  1       21 0.41561161E-02 0.43278699E+03</pdfrwt>
<pdfrwt beam="2">  1       21 0.24365925E+00 0.43278699E+03</pdfrwt>
<totfact> 0.23346661E+04</totfact>
</mgrwt>
</event>
<event>
 7    0  0.4766352E-002  0.4524604E+03  0.7546771E-02  0.1026991E+00
         21   -1    0    0  502  501  0.00000000000E+00  0.00000000000E+00  0.26751897640E+03  0.26751897640E+03  0.00000000000E+00 0.  1.
         21   -1    0    0  501  502 -0.00000000000E+00 -0.00000000000E+00 -0.19131395050E+03  0.19131395050E+03  0.00000000000E+00 0.  1.
      99926    2    1    2    0    0  0.14210854715E-13  0.17763568394E-14  0.76205025903E+02  0.45883292690E+03  0.45246043898E+03 0.  0.
      99925    2    3    3    0    0  0.83768875556E+02 -0.14679970784E+02  0.12011425491E+03  0.30132656339E+03  0.26294017859E+03 0.  0.
         25    1    4    4    0    0  0.81546342428E+02 -0.29880989784E+01  0.50395382613E+02  0.15762594135E+03  0.12509000000E+03 0.  0.
         25    1    4    4    0    0  0.22225331274E+01 -0.11691871806E+02  0.69718872299E+02  0.14370062204E+03  0.12509000000E+03 0.  0.
         25    1    3    3    0    0 -0.83768875556E+02  0.14679970784E+02 -0.43909229009E+02  0.15750636351E+03  0.12509000000E+03 0.  0.
<mgrwt>
<rscale>  2 0.45246044E+03</rscale>
<asrwt>0</asrwt>
<pdfrwt beam="1">  1       21 0.39341026E-01 0.45246044E+03</pdfrwt>
<pdfrwt beam="2">  1       21 0.28134404E-01 0.45246044E+03</pdfrwt>
<totfact> 0.69665796E+04</totfact>
</mgrwt>
</event>
<event>
 7    0  0.4766352E-002  0.4658573E+03  0.7546771E-02  0.1023096E+00
         21   -1    0    0  502  501  0.00000000000E+00  0.00000000000E+00  0.16852529872E+03  0.16852529872E+03  0.00000000000E+00 0. -1.
         21   -1    0    0  501  502 -0.00000000000E+00 -0.00000000000E+00 -0.32194432054E+03  0.32194432054E+03  0.00000000000E+00 0. -1.
      99926    2    1    2    0    0  0.35527136788E-14  0.14210854715E-13 -0.15341902182E+03  0.49046961926E+03  0.46585732919E+03 0.  0.
      99925    2    3    3    0    0 -0.98628284969E+01 -0.11380797862E+03 -0.47658528693E+02  0.29076403248E+03  0.26310236762E+03 0.  0.
         25    1    4    4    0    0 -0.35948842454E+02 -0.70361161290E+02 -0.48798019046E+02  0.15579398915E+03  0.12509000000E+03 0.  0.
         25    1    4    4    0    0  0.26086013957E+02 -0.43446817328E+02  0.11394903531E+01  0.13497004334E+03  0.12509000000E+03 0.  0.
         25    1    3    3    0    0  0.98628284969E+01  0.11380797862E+03 -0.10576049313E+03  0.19970558678E+03  0.12509000000E+03 0.  0.
<mgrwt>
<rscale>  2 0.46585733E+03</rscale>
<asrwt>0</asrwt>
<pdfrwt beam="1">  1       21 0.24783132E-01 0.46585733E+03</pdfrwt>
<pdfrwt beam="2">  1       21 0.47344753E-01 0.46585733E+03</pdfrwt>
<totfact> 0.60555677E+04</totfact>
</mgrwt>
</event>
<event>
 7    0  0.4766352E-002  0.4510372E+03  0.7546771E-02  0.1027413E+00
         21   -1    0    0  502  501  0.00000000000E+00  0.00000000000E+00  0.12095740987E+03  0.12095740987E+03  0.00000000000E+00 0. -1.
         21   -1    0    0  501  502 -0.00000000000E+00 -0.00000000000E+00 -0.42046736813E+03  0.42046736813E+03  0.00000000000E+00 0. -1.
      99926    2    1    2    0    0  0.00000000000E+00  0.00000000000E+00 -0.29950995826E+03  0.54142477800E+03  0.45103722145E+03 0.  0.
      99925    2    3    3    0    0 -0.20265114172E+02  0.87996655978E+02 -0.26335560643E+03  0.38296742862E+03  0.26297108136E+03 0.  0.
         25    1    4    4    0    0 -0.44196029124E+02  0.21616179300E+02 -0.12857256000E+03  0.18600795543E+03  0.12509000000E+03 0.  0.
         25    1    3    3    0    0  0.20265114172E+02 -0.87996655978E+02 -0.36154351830E+02  0.15845734938E+03  0.12509000000E+03 0.  0.
         25    1    4    4    0    0  0.23930914952E+02  0.66380476678E+02 -0.13478304643E+03  0.19695947319E+03  0.12509000000E+03 0.  0.
<mgrwt>
<rscale>  2 0.45103722E+03</rscale>
<asrwt>0</asrwt>
<pdfrwt beam="1">  1       21 0.17787854E-01 0.45103722E+03</pdfrwt>
<pdfrwt beam="2">  1       21 0.61833437E-01 0.45103722E+03</pdfrwt>
<totfact> 0.64433726E+04</totfact>
</mgrwt>
</event>
<event>
 7    0  0.4766352E-002  0.4744331E+03  0.7546771E-02  0.1020676E+00
         21   -1    0    0  502  501  0.00000000000E+00  0.00000000000E+00  0.15986905076E+03  0.15986905076E+03  0.00000000000E+00 0.  1.
         21   -1    0    0  501  502 -0.00000000000E+00 -0.00000000000E+00 -0.35198613719E+03  0.35198613719E+03  0.00000000000E+00 0.  1.
      99926    2    1    2    0    0  0.00000000000E+00  0.00000000000E+00 -0.19211708644E+03  0.51185518795E+03  0.47443309173E+03 0.  0.
      99925    2    3    3    0    0 -0.13516160632E+02  0.59378385492E+02 -0.24350489625E+03  0.36354236194E+03  0.26298276591E+03 0.  0.
         25    1    4    4    0    0  0.14121317167E+02  0.17158404907E+02 -0.74394305999E+02  0.14722718269E+03  0.12509000000E+03 0.  0.
         25    1    4    4    0    0 -0.27637477798E+02  0.42219980584E+02 -0.16911059025E+03  0.21631517925E+03  0.12509000000E+03 0.  0.
         25    1    3    3    0    0  0.13516160632E+02 -0.59378385492E+02  0.51387809811E+02  0.14831282601E+03  0.12509000000E+03 0.  0.
<mgrwt>
<rscale>  2 0.47443309E+03</rscale>
<asrwt>0</asrwt>
<pdfrwt beam="1">  1       21 0.23510155E-01 0.47443309E+03</pdfrwt>
<pdfrwt beam="2">  1       21 0.51762667E-01 0.47443309E+03</pdfrwt>
<totfact> 0.55394648E+04</totfact>
</mgrwt>
</event>
<event>
 7    0  0.4766352E-002  0.4517227E+03  0.7546771E-02  0.1027210E+00
         21   -1    0    0  502  501  0.00000000000E+00  0.00000000000E+00  0.78943794477E+02  0.78943794477E+02  0.00000000000E+00 0. -1.
         21   -1    0    0  501  502 -0.00000000000E+00 -0.00000000000E+00 -0.64619846168E+03  0.64619846168E+03  0.00000000000E+00 0. -1.
      99926    2    1    2    0    0  0.00000000000E+00  0.00000000000E+00 -0.56725466720E+03  0.72514225616E+03  0.45172274041E+03 0.  0.
      99925    2    3    3    0    0 -0.98197921231E+02  0.49573115057E+02 -0.34972375465E+03  0.45115771009E+03  0.26293772900E+03 0.  0.
         25    1    3    3    0    0  0.98197921231E+02 -0.49573115057E+02 -0.21753091255E+03  0.27398454607E+03  0.12509000000E+03 0.  0.
         25    1    4    4    0    0 -0.52931528500E+02  0.65742410342E+02 -0.17893428415E+03  0.23407006936E+03  0.12509000000E+03 0.  0.
         25    1    4    4    0    0 -0.45266392732E+02 -0.16169295285E+02 -0.17078947051E+03  0.21708764073E+03  0.12509000000E+03 0.  0.
<mgrwt>
<rscale>  2 0.45172274E+03</rscale>
<asrwt>0</asrwt>
<pdfrwt beam="1">  1       21 0.11609382E-01 0.45172274E+03</pdfrwt>
<pdfrwt beam="2">  1       21 0.95029181E-01 0.45172274E+03</pdfrwt>
<totfact> 0.52909667E+04</totfact>
</mgrwt>
</event>
<event>
 7    0  0.4766352E-002  0.4531541E+03  0.7546771E-02  0.1026786E+00
         21   -1    0    0  502  501  0.00000000000E+00  0.00000000000E+00  0.83333484930E+03  0.83333484930E+03  0.00000000000E+00 0. -1.
         21   -1    0    0  501  502 -0.00000000000E+00 -0.00000000000E+00 -0.61604477686E+02  0.61604477686E+02  0.00000000000E+00 0. -1.
      99926    2    1    2    0    0  0.14210854715E-13 -0.22204460493E-14  0.77173037162E+03  0.89493932699E+03  0.45315409357E+03 0.  0.
      99925    2    3    3    0    0 -0.11134459591E+03  0.37769623568E+01  0.49215580957E+03  0.56902319003E+03  0.26297940113E+03 0.  0.
         25    1    3    3    0    0  0.11134459591E+03 -0.37769623568E+01  0.27957456205E+03  0.32591613696E+03  0.12509000000E+03 0.  0.
         25    1    4    4    0    0 -0.80975754971E+02 -0.30553592883E+02  0.27466945205E+03  0.31397676813E+03  0.12509000000E+03 0.  0.
         25    1    4    4    0    0 -0.30368840942E+02  0.34330555239E+02  0.21748635751E+03  0.25504642191E+03  0.12509000000E+03 0.  0.
<mgrwt>
<rscale>  2 0.45315409E+03</rscale>
<asrwt>0</asrwt>
<pdfrwt beam="1">  1       21 0.12254924E+00 0.45315409E+03</pdfrwt>
<pdfrwt beam="2">  1       21 0.90594825E-02 0.45315409E+03</pdfrwt>
<totfact> 0.44086980E+04</totfact>
</mgrwt>
</event>
<event>
 7    0  0.4766352E-002  0.4638965E+03  0.7546771E-02  0.1023657E+00
         21   -1    0    0  502  501  0.00000000000E+00  0.00000000000E+00  0.11124391513E+03  0.11124391513E+03  0.00000000000E+00 0.  1.
         21   -1    0    0  501  502 -0.00000000000E+00 -0.00000000000E+00 -0.48362178069E+03  0.48362178069E+03  0.00000000000E+00 0.  1.
      99926    2    1    2    0    0 -0.14210854715E-13  0.71054273576E-14 -0.37237786556E+03  0.59486569582E+03  0.46389645537E+03 0.  0.
      99925    2    3    3    0    0  0.68772154608E+02 -0.44944281053E+02 -0.11805629761E+03  0.29977830932E+03  0.26302119246E+03 0.  0.
         25    1    3    3    0    0 -0.68772154608E+02  0.44944281053E+02 -0.25432156795E+03  0.29508738650E+03  0.12509000000E+03 0.  0.
         25    1    4    4    0    0  0.15622090958E+02 -0.14223180363E+00 -0.23444046812E+02  0.12822324823E+03  0.12509000000E+03 0.  0.
         25    1    4    4    0    0  0.53150063651E+02 -0.44802049249E+02 -0.94612250800E+02  0.17155506109E+03  0.12509000000E+03 0.  0.
<mgrwt>
<rscale>  2 0.46389646E+03</rscale>
<asrwt>0</asrwt>
<pdfrwt beam="1">  1       21 0.16359399E-01 0.46389646E+03</pdfrwt>
<pdfrwt beam="2">  1       21 0.71120851E-01 0.46389646E+03</pdfrwt>
<totfact> 0.55023648E+04</totfact>
</mgrwt>
</event>
<event>
 7    0  0.4766352E-002  0.4419538E+03  0.7546771E-02  0.1030149E+00
         21   -1    0    0  502  501  0.00000000000E+00  0.00000000000E+00  0.11707249688E+03  0.11707249688E+03  0.00000000000E+00 0.  1.
         21   -1    0    0  501  502 -0.00000000000E+00 -0.00000000000E+00 -0.41709880283E+03  0.41709880283E+03  0.00000000000E+00 0.  1.
      99926    2    1    2    0    0  0.35527136788E-14  0.00000000000E+00 -0.30002630595E+03  0.53417129970E+03  0.44195383601E+03 0.  0.
      99925    2    3    3    0    0 -0.25242496568E+02  0.92101199410E+02 -0.15331296872E+03  0.31901524939E+03  0.26295636216E+03 0.  0.
         25    1    3    3    0    0  0.25242496568E+02 -0.92101199410E+02 -0.14671333723E+03  0.21515605031E+03  0.12509000000E+03 0.  0.
         25    1    4    4    0    0 -0.66550199009E+01  0.63343849447E+02 -0.12108225176E+03  0.18537840312E+03  0.12509000000E+03 0.  0.
         25    1    4    4    0    0 -0.18587476667E+02  0.28757349962E+02 -0.32230716964E+02  0.13363684627E+03  0.12509000000E+03 0.  0.
<mgrwt>
<rscale>  2 0.44195384E+03</rscale>
<asrwt>0</asrwt>
<pdfrwt beam="1">  1       21 0.17216544E-01 0.44195384E+03</pdfrwt>
<pdfrwt beam="2">  1       21 0.61338060E-01 0.44195384E+03</pdfrwt>
<totfact> 0.69864260E+04</totfact>
</mgrwt>
</event>
<event>
 7    0  0.4766352E-002  0.4499656E+03  0.7546771E-02  0.1027732E+00
         21   -1    0    0  502  501  0.00000000000E+00  0.00000000000E+00  0.32788921308E+03  0.32788921308E+03  0.00000000000E+00 0. -1.
         21   -1    0    0  501  502 -0.00000000000E+00 -0.00000000000E+00 -0.15437308170E+03  0.15437308170E+03  0.00000000000E+00 0. -1.
      99926    2    1    2    0    0  0.71054273576E-14 -0.35527136788E-14  0.17351613138E+03  0.48226229478E+03  0.44996563549E+03 0.  0.
      99925    2    3    3    0    0 -0.33771993223E+02 -0.28258019496E+02  0.21597518285E+03  0.34301667602E+03  0.26282331942E+03 0.  0.
         25    1    4    4    0    0 -0.35471590793E+02 -0.39460901133E+02  0.79010142002E+02  0.15717985593E+03  0.12509000000E+03 0.  0.
         25    1    3    3    0    0  0.33771993223E+02  0.28258019496E+02 -0.42459051468E+02  0.13924561876E+03  0.12509000000E+03 0.  0.
         25    1    4    4    0    0  0.16995975703E+01  0.11202881636E+02  0.13696504084E+03  0.18583682009E+03  0.12509000000E+03 0.  0.
<mgrwt>
<rscale>  2 0.44996564E+03</rscale>
<asrwt>0</asrwt>
<pdfrwt beam="1">  1       21 0.48219002E-01 0.44996564E+03</pdfrwt>
<pdfrwt beam="2">  1       21 0.22701924E-01 0.44996564E+03</pdfrwt>
<totfact> 0.69262735E+04</totfact>
</mgrwt>
</event>
<event>
 7    0  0.4766352E-002  0.4535862E+03  0.7546771E-02  0.1026658E+00
         21   -1    0    0  502  501  0.00000000000E+00  0.00000000000E+00  0.56165687600E+03  0.56165687600E+03  0.00000000000E+00 0. -1.
         21   -1    0    0  501  502 -0.00000000000E+00 -0.00000000000E+00 -0.91577454996E+02  0.91577454996E+02  0.00000000000E+00 0. -1.
      99926    2    1    2    0    0  0.00000000000E+00  0.00000000000E+00  0.47007942101E+03  0.65323433100E+03  0.45358618712E+03 0.  0.
      99925    2    3    3    0    0 -0.11091632811E+02 -0.33561018603E+02  0.14295069069E+03  0.30122569391E+03  0.26277871378E+03 0.  0.
         25    1    4    4    0    0 -0.71170362738E+01  0.11429096487E+02  0.10230964735E+03  0.16216056393E+03  0.12509000000E+03 0.  0.
         25    1    3    3    0    0  0.11091632811E+02  0.33561018603E+02  0.32712873032E+03  0.35200863709E+03  0.12509000000E+03 0.  0.
         25    1    4    4    0    0 -0.39745965375E+01 -0.44990115090E+02  0.40641043341E+02  0.13906512998E+03  0.12509000000E+03 0.  0.
<mgrwt>
<rscale>  2 0.45358619E+03</rscale>
<asrwt>0</asrwt>
<pdfrwt beam="1">  1       21 0.82596598E-01 0.45358619E+03</pdfrwt>
<pdfrwt beam="2">  1       21 0.13467273E-01 0.45358619E+03</pdfrwt>
<totfact> 0.56139005E+04</totfact>
</mgrwt>
</event>
<event>
 7    0  0.4766352E-002  0.4461808E+03  0.7546771E-02  0.1028867E+00
         21   -1    0    0  502  501  0.00000000000E+00  0.00000000000E+00  0.44096102970E+03  0.44096102970E+03  0.00000000000E+00 0.  1.
         21   -1    0    0  501  502 -0.00000000000E+00 -0.00000000000E+00 -0.11286557508E+03  0.11286557508E+03  0.00000000000E+00 0.  1.
      99926    2    1    2    0    0  0.00000000000E+00  0.00000000000E+00  0.32809545462E+03  0.55382660478E+03  0.44618077147E+03 0.  0.
      99925    2    3    3    0    0 -0.33746211606E+01 -0.97319477413E+02  0.16136546825E+03  0.32376386289E+03  0.26325226650E+03 0.  0.
         25    1    4    4    0    0 -0.42804625320E+01 -0.35273620613E+02  0.33161272939E+02  0.13420033083E+03  0.12509000000E+03 0.  0.
         25    1    4    4    0    0  0.90584137145E+00 -0.62045856801E+02  0.12820419531E+03  0.18956353206E+03  0.12509000000E+03 0.  0.
         25    1    3    3    0    0  0.33746211606E+01  0.97319477413E+02  0.16672998637E+03  0.23006274190E+03  0.12509000000E+03 0.  0.
<mgrwt>
<rscale>  2 0.44618077E+03</rscale>
<asrwt>0</asrwt>
<pdfrwt beam="1">  1       21 0.64847209E-01 0.44618077E+03</pdfrwt>
<pdfrwt beam="2">  1       21 0.16597879E-01 0.44618077E+03</pdfrwt>
<totfact> 0.66107274E+04</totfact>
</mgrwt>
</event>
<event>
 7    0  0.4766352E-002  0.4632858E+03  0.7546771E-02  0.1023833E+00
         21   -1    0    0  502  501  0.00000000000E+00  0.00000000000E+00  0.84356494885E+02  0.84356494885E+02  0.00000000000E+00 0.  1.
         21   -1    0    0  501  502 -0.00000000000E+00 -0.00000000000E+00 -0.63609126167E+03  0.63609126167E+03  0.00000000000E+00 0.  1.
      99926    2    1    2    0    0  0.00000000000E+00  0.00000000000E+00 -0.55173476679E+03  0.72044775655E+03  0.46328578334E+03 0.  0.
      99925    2    3    3    0    0  0.83094159980E+02  0.87251221283E+02 -0.35750917677E+03  0.45989353388E+03  0.26300539156E+03 0.  0.
         25    1    3    3    0    0 -0.83094159980E+02 -0.87251221283E+02 -0.19422559001E+03  0.26055422268E+03  0.12509000000E+03 0.  0.
         25    1    4    4    0    0  0.61052736409E+02  0.42214028922E+02 -0.24224516918E+03  0.28255918133E+03  0.12509000000E+03 0.  0.
         25    1    4    4    0    0  0.22041423571E+02  0.45037192361E+02 -0.11526400759E+03  0.17733435255E+03  0.12509000000E+03 0.  0.
<mgrwt>
<rscale>  2 0.46328578E+03</rscale>
<asrwt>0</asrwt>
<pdfrwt beam="1">  1       21 0.12405367E-01 0.46328578E+03</pdfrwt>
<pdfrwt beam="2">  1       21 0.93542833E-01 0.46328578E+03</pdfrwt>
<totfact> 0.48563555E+04</totfact>
</mgrwt>
</event>
<event>
 7    0  0.4766352E-002  0.4541215E+03  0.7546771E-02  0.1026500E+00
         21   -1    0    0  502  501  0.00000000000E+00  0.00000000000E+00  0.78880032502E+02  0.78880032502E+02  0.00000000000E+00 0.  1.
         21   -1    0    0  501  502 -0.00000000000E+00 -0.00000000000E+00 -0.65360745511E+03  0.65360745511E+03  0.00000000000E+00 0.  1.
      99926    2    1    2    0    0 -0.35527136788E-14  0.00000000000E+00 -0.57472742260E+03  0.73248748761E+03  0.45412146966E+03 0.  0.
      99925    2    3    3    0    0 -0.23740334014E+02 -0.83459045007E+02 -0.47697424709E+03  0.55156704356E+03  0.26304515866E+03 0.  0.
         25    1    4    4    0    0  0.21548947079E+02 -0.23410755738E+02 -0.25668288903E+03  0.28730825645E+03  0.12509000000E+03 0.  0.
         25    1    4    4    0    0 -0.45289281093E+02 -0.60048289269E+02 -0.22029135807E+03  0.26425878711E+03  0.12509000000E+03 0.  0.
         25    1    3    3    0    0  0.23740334014E+02  0.83459045007E+02 -0.97753175510E+02  0.18092044405E+03  0.12509000000E+03 0.  0.
<mgrwt>
<rscale>  2 0.45412147E+03</rscale>
<asrwt>0</asrwt>
<pdfrwt beam="1">  1       21 0.11600005E-01 0.45412147E+03</pdfrwt>
<pdfrwt beam="2">  1       21 0.96118743E-01 0.45412147E+03</pdfrwt>
<totfact> 0.51529404E+04</totfact>
</mgrwt>
</event>
<event>
 7    0  0.4766352E-002  0.4598361E+03  0.7546771E-02  0.1024829E+00
         21   -1    0    0  502  501  0.00000000000E+00  0.00000000000E+00  0.12133154470E+04  0.12133154470E+04  0.00000000000E+00 0. -1.
         21   -1    0    0  501  502 -0.00000000000E+00 -0.00000000000E+00 -0.43568479491E+02  0.43568479491E+02  0.00000000000E+00 0. -1.
      99926    2    1    2    0    0 -0.71054273576E-14  0.28421709430E-13  0.11697469675E+04  0.12568839265E+04  0.45983609762E+03 0.  0.
      99925    2    3    3    0    0  0.58024093476E+02 -0.10227573812E+03  0.73279013261E+03  0.78740985298E+03  0.26306990723E+03 0.  0.
         25    1    4    4    0    0  0.64779314461E+02 -0.67451724260E+02  0.35393140444E+03  0.38686049402E+03  0.12509000000E+03 0.  0.
         25    1    3    3    0    0 -0.58024093476E+02  0.10227573812E+03  0.43695683492E+03  0.46947407353E+03  0.12509000000E+03 0.  0.
         25    1    4    4    0    0 -0.67552209847E+01 -0.34824013861E+02  0.37885872818E+03  0.40054935896E+03  0.12509000000E+03 0.  0.
<mgrwt>
<rscale>  2 0.45983610E+03</rscale>
<asrwt>0</asrwt>
<pdfrwt beam="1">  1       21 0.17842872E+00 0.45983610E+03</pdfrwt>
<pdfrwt beam="2">  1       21 0.64071301E-02 0.45983610E+03</pdfrwt>
<totfact> 0.29275365E+04</totfact>
</mgrwt>
</event>
<event>
 7    0  0.4766352E-002  0.4451968E+03  0.7546771E-02  0.1029164E+00
         21   -1    0    0  502  501  0.00000000000E+00  0.00000000000E+00  0.86766109533E+03  0.86766109533E+03  0.00000000000E+00 0.  1.
         21   -1    0    0  501  502 -0.00000000000E+00 -0.00000000000E+00 -0.57107617934E+02  0.57107617934E+02  0.00000000000E+00 0.  1.
      99926    2    1    2    0    0  0.00000000000E+00  0.00000000000E+00  0.81055347740E+03  0.92476871327E+03  0.44519684782E+03 0.  0.
      99925    2    3    3    0    0 -0.29374080963E+02 -0.84264524461E+02  0.62444735929E+03  0.68342592383E+03  0.26300787464E+03 0.  0.
         25    1    4    4    0    0  0.22733917448E+02 -0.44925042689E+02  0.34392889666E+03  0.36941803492E+03  0.12509000000E+03 0.  0.
         25    1    3    3    0    0  0.29374080963E+02  0.84264524461E+02  0.18610611811E+03  0.24134278943E+03  0.12509000000E+03 0.  0.
         25    1    4    4    0    0 -0.52107998411E+02 -0.39339481772E+02  0.28051846263E+03  0.31400788891E+03  0.12509000000E+03 0.  0.
<mgrwt>
<rscale>  2 0.44519685E+03</rscale>
<asrwt>0</asrwt>
<pdfrwt beam="1">  1       21 0.12759721E+00 0.44519685E+03</pdfrwt>
<pdfrwt beam="2">  1       21 0.83981797E-02 0.44519685E+03</pdfrwt>
<totfact> 0.45575383E+04</totfact>
</mgrwt>
</event>
<event>
 7    0  0.4766352E-002  0.4527903E+03  0.7546771E-02  0.1026893E+00
         21   -1    0    0  502  501  0.00000000000E+00  0.00000000000E+00  0.11556331017E+03  0.11556331017E+03  0.00000000000E+00 0.  1.
         21   -1    0    0  501  502 -0.00000000000E+00 -0.00000000000E+00 -0.44352108261E+03  0.44352108261E+03  0.00000000000E+00 0.  1.
      99926    2    1    2    0    0  0.00000000000E+00  0.00000000000E+00 -0.32795777244E+03  0.55908439278E+03  0.45279030219E+03 0.  0.
      99925    2    3    3    0    0  0.60256438639E+02  0.43689056259E+02 -0.30845674145E+03  0.41222605852E+03  0.26314480793E+03 0.  0.
         25    1    3    3    0    0 -0.60256438639E+02 -0.43689056259E+02 -0.19501030989E+02  0.14685833427E+03  0.12509000000E+03 0.  0.
         25    1    4    4    0    0  0.28702044269E+02  0.63089028893E+02 -0.16108506514E+03  0.21540645121E+03  0.12509000000E+03 0.  0.
         25    1    4    4    0    0  0.31554394370E+02 -0.19399972634E+02 -0.14737167631E+03  0.19681960731E+03  0.12509000000E+03 0.  0.
<mgrwt>
<rscale>  2 0.45279030E+03</rscale>
<asrwt>0</asrwt>
<pdfrwt beam="1">  1       21 0.16994605E-01 0.45279030E+03</pdfrwt>
<pdfrwt beam="2">  1       21 0.65223688E-01 0.45279030E+03</pdfrwt>
<totfact> 0.62352897E+04</totfact>
</mgrwt>
</event>
<event>
 7    0  0.4766352E-002  0.4523227E+03  0.7546771E-02  0.1027032E+00
         21   -1    0    0  502  501  0.00000000000E+00  0.00000000000E+00  0.34865895127E+03  0.34865895127E+03  0.00000000000E+00 0. -1.
         21   -1    0    0  501  502 -0.00000000000E+00 -0.00000000000E+00 -0.14670198336E+03  0.14670198336E+03  0.00000000000E+00 0. -1.
      99926    2    1    2    0    0  0.00000000000E+00  0.00000000000E+00  0.20195696791E+03  0.49536093464E+03  0.45232271519E+03 0.  0.
      99925    2    3    3    0    0  0.75023305430E+02  0.73444749372E+02  0.89013764884E+02  0.29680035754E+03  0.26295317896E+03 0.  0.
         25    1    3    3    0    0 -0.75023305430E+02 -0.73444749372E+02  0.11294320303E+03  0.19856057710E+03  0.12509000000E+03 0.  0.
         25    1    4    4    0    0  0.30892466527E+02  0.68940728038E+02  0.72267349914E+02  0.16302529385E+03  0.12509000000E+03 0.  0.
         25    1    4    4    0    0  0.44130838903E+02  0.45040213341E+01  0.16746414970E+02  0.13377506369E+03  0.12509000000E+03 0.  0.
<mgrwt>
<rscale>  2 0.45232272E+03</rscale>
<asrwt>0</asrwt>
<pdfrwt beam="1">  1       21 0.51273375E-01 0.45232272E+03</pdfrwt>
<pdfrwt beam="2">  1       21 0.21573821E-01 0.45232272E+03</pdfrwt>
<totfact> 0.67010726E+04</totfact>
</mgrwt>
</event>
<event>
 7    0  0.4766352E-002  0.4563358E+03  0.7546771E-02  0.1025849E+00
         21   -1    0    0  502  501  0.00000000000E+00  0.00000000000E+00  0.81698132794E+03  0.81698132794E+03  0.00000000000E+00 0. -1.
         21   -1    0    0  501  502 -0.00000000000E+00 -0.00000000000E+00 -0.63723111914E+02  0.63723111914E+02  0.00000000000E+00 0. -1.
      99926    2    1    2    0    0  0.00000000000E+00 -0.17763568394E-14  0.75325821602E+03  0.88070443985E+03  0.45633580877E+03 0.  0.
      99925    2    3    3    0    0  0.10902470101E+03  0.12506828696E+02  0.53643049360E+03  0.60738306215E+03  0.26289485263E+03 0.  0.
         25    1    4    4    0    0  0.38133752928E+02 -0.30978592365E+02  0.24003839957E+03  0.27509961407E+03  0.12509000000E+03 0.  0.
         25    1    3    3    0    0 -0.10902470101E+03 -0.12506828696E+02  0.21682772243E+03  0.27332137770E+03  0.12509000000E+03 0.  0.
         25    1    4    4    0    0  0.70890948078E+02  0.43485421061E+02  0.29639209403E+03  0.33228344808E+03  0.12509000000E+03 0.  0.
<mgrwt>
<rscale>  2 0.45633581E+03</rscale>
<asrwt>0</asrwt>
<pdfrwt beam="1">  1       21 0.12014431E+00 0.45633581E+03</pdfrwt>
<pdfrwt beam="2">  1       21 0.93710463E-02 0.45633581E+03</pdfrwt>
<totfact> 0.43620365E+04</totfact>
</mgrwt>
</event>
<event>
 7    0  0.4766352E-002  0.4563547E+03  0.7546771E-02  0.1025844E+00
         21   -1    0    0  502  501  0.00000000000E+00  0.00000000000E+00  0.42830298649E+03  0.42830298649E+03  0.00000000000E+00 0.  1.
         21   -1    0    0  501  502 -0.00000000000E+00 -0.00000000000E+00 -0.12156094061E+03  0.12156094061E+03  0.00000000000E+00 0.  1.
      99926    2    1    2    0    0  0.00000000000E+00  0.00000000000E+00  0.30674204588E+03  0.54986392710E+03  0.45635474755E+03 0.  0.
      99925    2    3    3    0    0 -0.11304875242E+02 -0.10160678537E+03  0.25500453898E+03  0.38022897564E+03  0.26285931594E+03 0.  0.
         25    1    4    4    0    0  0.11207518026E+01 -0.92092356967E+02  0.12799846634E+03  0.20127934266E+03  0.12509000000E+03 0.  0.
         25    1    3    3    0    0  0.11304875242E+02  0.10160678537E+03  0.51737506907E+02  0.16963495147E+03  0.12509000000E+03 0.  0.
         25    1    4    4    0    0 -0.12425627045E+02 -0.95144284059E+01  0.12700607264E+03  0.17894963297E+03  0.12509000000E+03 0.  0.
<mgrwt>
<rscale>  2 0.45635475E+03</rscale>
<asrwt>0</asrwt>
<pdfrwt beam="1">  1       21 0.62985733E-01 0.45635475E+03</pdfrwt>
<pdfrwt beam="2">  1       21 0.17876609E-01 0.45635475E+03</pdfrwt>
<totfact> 0.61216698E+04</totfact>
</mgrwt>
</event>
<event>
 7    0  0.4766352E-002  0.4537793E+03  0.7546771E-02  0.1026601E+00
         21   -1    0    0  502  501  0.00000000000E+00  0.00000000000E+00  0.26400999477E+03  0.26400999477E+03  0.00000000000E+00 0.  1.
         21   -1    0    0  501  502 -0.00000000000E+00 -0.00000000000E+00 -0.19498850595E+03  0.19498850595E+03  0.00000000000E+00 0.  1.
      99926    2    1    2    0    0  0.00000000000E+00  0.00000000000E+00  0.69021488822E+02  0.45899850073E+03  0.45377930512E+03 0.  0.
      99925    2    3    3    0    0 -0.77562478818E+02 -0.75323705678E+02  0.13791596670E+02  0.28467854248E+03  0.26298681650E+03 0.  0.
         25    1    4    4    0    0 -0.33653999571E+02  0.33713076676E+01 -0.28485605723E+01  0.12961319300E+03  0.12509000000E+03 0.  0.
         25    1    4    4    0    0 -0.43908479247E+02 -0.78695013345E+02  0.16640157243E+02  0.15506534948E+03  0.12509000000E+03 0.  0.
         25    1    3    3    0    0  0.77562478818E+02  0.75323705678E+02  0.55229892151E+02  0.17431995825E+03  0.12509000000E+03 0.  0.
<mgrwt>
<rscale>  2 0.45377931E+03</rscale>
<asrwt>0</asrwt>
<pdfrwt beam="1">  1       21 0.38824999E-01 0.45377931E+03</pdfrwt>
<pdfrwt beam="2">  1       21 0.28674780E-01 0.45377931E+03</pdfrwt>
<totfact> 0.68922100E+04</totfact>
</mgrwt>
</event>
<event>
 7    0  0.4766352E-002  0.4599192E+03  0.7546771E-02  0.1024805E+00
         21   -1    0    0  502  501  0.00000000000E+00  0.00000000000E+00  0.22799770455E+03  0.22799770455E+03  0.00000000000E+00 0.  1.
         21   -1    0    0  501  502 -0.00000000000E+00 -0.00000000000E+00 -0.23193835907E+03  0.23193835907E+03  0.00000000000E+00 0.  1.
      99926    2    1    2    0    0 -0.14210854715E-13 -0.14210854715E-13 -0.39406545231E+01  0.45993606363E+03  0.45991918188E+03 0.  0.
      99925    2    3    3    0    0 -0.96654571253E+02 -0.50784198524E+02  0.42007056916E+02  0.28765768062E+03  0.26279499125E+03 0.  0.
         25    1    4    4    0    0 -0.50244058783E+02  0.13264708628E+02  0.32819557421E+02  0.13937377582E+03  0.12509000000E+03 0.  0.
         25    1    4    4    0    0 -0.46410512470E+02 -0.64048907152E+02  0.91874994950E+01  0.14828390480E+03  0.12509000000E+03 0.  0.
         25    1    3    3    0    0  0.96654571253E+02  0.50784198524E+02 -0.45947711439E+02  0.17227838300E+03  0.12509000000E+03 0.  0.
<mgrwt>
<rscale>  2 0.45991918E+03</rscale>
<asrwt>0</asrwt>
<pdfrwt beam="1">  1       21 0.33529074E-01 0.45991918E+03</pdfrwt>
<pdfrwt beam="2">  1       21 0.34108582E-01 0.45991918E+03</pdfrwt>
<totfact> 0.65573868E+04</totfact>
</mgrwt>
</event>
<event>
 7    0  0.4766352E-002  0.4747822E+03  0.7546771E-02  0.1020579E+00
         21   -1    0    0  502  501  0.00000000000E+00  0.00000000000E+00  0.48960566203E+03  0.48960566203E+03  0.00000000000E+00 0.  1.
         21   -1    0    0  501  502 -0.00000000000E+00 -0.00000000000E+00 -0.11510190519E+03  0.11510190519E+03  0.00000000000E+00 0.  1.
      99926    2    1    2    0    0 -0.14210854715E-13  0.00000000000E+00  0.37450375684E+03  0.60470756722E+03  0.47478224268E+03 0.  0.
      99925    2    3    3    0    0  0.83530362540E+02 -0.97968708639E+02  0.19943397423E+03  0.35396441931E+03  0.26256753555E+03 0.  0.
         25    1    3    3    0    0 -0.83530362540E+02  0.97968708639E+02  0.17506978261E+03  0.25074314791E+03  0.12509000000E+03 0.  0.
         25    1    4    4    0    0  0.48903206722E+02 -0.74756722253E+02  0.14501633999E+03  0.21132282913E+03  0.12509000000E+03 0.  0.
         25    1    4    4    0    0  0.34627155818E+02 -0.23211986386E+02  0.54417634241E+02  0.14264159018E+03  0.12509000000E+03 0.  0.
<mgrwt>
<rscale>  2 0.47478224E+03</rscale>
<asrwt>0</asrwt>
<pdfrwt beam="1">  1       21 0.72000832E-01 0.47478224E+03</pdfrwt>
<pdfrwt beam="2">  1       21 0.16926751E-01 0.47478224E+03</pdfrwt>
<totfact> 0.50089254E+04</totfact>
</mgrwt>
</event>
<event>
 7    0  0.4766352E-002  0.4502105E+03  0.7546771E-02  0.1027659E+00
         21   -1    0    0  502  501  0.00000000000E+00  0.00000000000E+00  0.81367562579E+02  0.81367562579E+02  0.00000000000E+00 0. -1.
         21   -1    0    0  501  502 -0.00000000000E+00 -0.00000000000E+00 -0.62275890388E+03  0.62275890388E+03  0.00000000000E+00 0. -1.
      99926    2    1    2    0    0 -0.14210854715E-13  0.00000000000E+00 -0.54139134130E+03  0.70412646646E+03  0.45021050225E+03 0.  0.
      99925    2    3    3    0    0  0.83216414467E+02  0.68852975903E+02 -0.32394398186E+03  0.43100274696E+03  0.26297901166E+03 0.  0.
         25    1    4    4    0    0  0.41460855421E+01  0.25869100052E+02 -0.11935360848E+03  0.17486907194E+03  0.12509000000E+03 0.  0.
         25    1    3    3    0    0 -0.83216414467E+02 -0.68852975903E+02 -0.21744735944E+03  0.27312371950E+03  0.12509000000E+03 0.  0.
         25    1    4    4    0    0  0.79070328925E+02  0.42983875850E+02 -0.20459037338E+03  0.25613367502E+03  0.12509000000E+03 0.  0.
<mgrwt>
<rscale>  2 0.45021050E+03</rscale>
<asrwt>0</asrwt>
<pdfrwt beam="1">  1       21 0.11965818E-01 0.45021050E+03</pdfrwt>
<pdfrwt beam="2">  1       21 0.91582192E-01 0.45021050E+03</pdfrwt>
<totfact> 0.54712502E+04</totfact>
</mgrwt>
</event>
<event>
 7    0  0.4766352E-002  0.4372263E+03  0.7546771E-02  0.1031601E+00
         21   -1    0    0  502  501  0.00000000000E+00  0.00000000000E+00  0.17445479501E+02  0.17445479501E+02  0.00000000000E+00 0. -1.
         21   -1    0    0  501  502 -0.00000000000E+00 -0.00000000000E+00 -0.27394890164E+04  0.27394890164E+04  0.00000000000E+00 0. -1.
      99926    2    1    2    0    0 -0.14210854715E-13  0.71054273576E-14 -0.27220435369E+04  0.27569344959E+04  0.43722625483E+03 0.  0.
      99925    2    3    3    0    0 -0.80594471676E+02  0.50703594786E+02 -0.18002405689E+04  0.18218224474E+04  0.26287753889E+03 0.  0.
         25    1    4    4    0    0 -0.90268492838E+01  0.47984874070E+01 -0.68928309320E+03  0.70061630024E+03  0.12509000000E+03 0.  0.
         25    1    4    4    0    0 -0.71567622392E+02  0.45905107379E+02 -0.11109574757E+04  0.11212061471E+04  0.12509000000E+03 0.  0.
         25    1    3    3    0    0  0.80594471676E+02 -0.50703594786E+02 -0.92180296806E+03  0.93511204859E+03  0.12509000000E+03 0.  0.
<mgrwt>
<rscale>  2 0.43722625E+03</rscale>
<asrwt>0</asrwt>
<pdfrwt beam="1">  1       21 0.25655131E-02 0.43722625E+03</pdfrwt>
<pdfrwt beam="2">  1       21 0.40286581E+00 0.43722625E+03</pdfrwt>
<totfact> 0.55759140E+03</totfact>
</mgrwt>
</event>
<event>
 7    0  0.4766352E-002  0.4588529E+03  0.7546771E-02  0.1025114E+00
         21   -1    0    0  502  501  0.00000000000E+00  0.00000000000E+00  0.38023004638E+03  0.38023004638E+03  0.00000000000E+00 0. -1.
         21   -1    0    0  501  502 -0.00000000000E+00 -0.00000000000E+00 -0.13843328970E+03  0.13843328970E+03  0.00000000000E+00 0. -1.
      99926    2    1    2    0    0  0.00000000000E+00  0.00000000000E+00  0.24179675667E+03  0.51866333608E+03  0.45885290089E+03 0.  0.
      99925    2    3    3    0    0 -0.88683145711E+02  0.75893025474E+02  0.15519007821E+03  0.32690130515E+03  0.26297538153E+03 0.  0.
         25    1    4    4    0    0 -0.28098909669E+02  0.29964887254E+02  0.31788134713E+02  0.13544532772E+03  0.12509000000E+03 0.  0.
         25    1    3    3    0    0  0.88683145711E+02 -0.75893025474E+02  0.86606678468E+02  0.19176203092E+03  0.12509000000E+03 0.  0.
         25    1    4    4    0    0 -0.60584236042E+02  0.45928138221E+02  0.12340194349E+03  0.19145597743E+03  0.12509000000E+03 0.  0.
<mgrwt>
<rscale>  2 0.45885290E+03</rscale>
<asrwt>0</asrwt>
<pdfrwt beam="1">  1       21 0.55916183E-01 0.45885290E+03</pdfrwt>
<pdfrwt beam="2">  1       21 0.20357837E-01 0.45885290E+03</pdfrwt>
<totfact> 0.62059360E+04</totfact>
</mgrwt>
</event>
<event>
 7    0  0.4766352E-002  0.4572401E+03  0.7546771E-02  0.1025585E+00
         21   -1    0    0  502  501  0.00000000000E+00  0.00000000000E+00  0.20291022518E+03  0.20291022518E+03  0.00000000000E+00 0.  1.
         21   -1    0    0  501  502 -0.00000000000E+00 -0.00000000000E+00 -0.25758740357E+03  0.25758740357E+03  0.00000000000E+00 0.  1.
      99926    2    1    2    0    0  0.00000000000E+00  0.00000000000E+00 -0.54677178394E+02  0.46049762875E+03  0.45724005976E+03 0.  0.
      99925    2    3    3    0    0 -0.66612633408E+02  0.77066407447E+02 -0.89167023629E+02  0.29553238510E+03  0.26270165294E+03 0.  0.
         25    1    4    4    0    0 -0.35261351395E+02  0.74798977562E+01 -0.14253337407E+02  0.13095792263E+03  0.12509000000E+03 0.  0.
         25    1    3    3    0    0  0.66612633408E+02 -0.77066407447E+02  0.34489845235E+02  0.16496524364E+03  0.12509000000E+03 0.  0.
         25    1    4    4    0    0 -0.31351282014E+02  0.69586509690E+02 -0.74913686222E+02  0.16457446247E+03  0.12509000000E+03 0.  0.
<mgrwt>
<rscale>  2 0.45724006E+03</rscale>
<asrwt>0</asrwt>
<pdfrwt beam="1">  1       21 0.29839739E-01 0.45724006E+03</pdfrwt>
<pdfrwt beam="2">  1       21 0.37880500E-01 0.45724006E+03</pdfrwt>
<totfact> 0.66940398E+04</totfact>
</mgrwt>
</event>
<event>
 7    0  0.4766352E-002  0.4391614E+03  0.7546771E-02  0.1031004E+00
         21   -1    0    0  502  501  0.00000000000E+00  0.00000000000E+00  0.50015390038E+02  0.50015390038E+02  0.00000000000E+00 0.  1.
         21   -1    0    0  501  502 -0.00000000000E+00 -0.00000000000E+00 -0.96401712312E+03  0.96401712312E+03  0.00000000000E+00 0.  1.
      99926    2    1    2    0    0  0.00000000000E+00  0.35527136788E-14 -0.91400173308E+03  0.10140325132E+04  0.43916143918E+03 0.  0.
      99925    2    3    3    0    0 -0.96319863110E+02  0.15349704823E+02 -0.57683675172E+03  0.64141895701E+03  0.26299146528E+03 0.  0.
         25    1    4    4    0    0 -0.26425273374E+02  0.38613122989E+02 -0.24058743891E+03  0.27517102355E+03  0.12509000000E+03 0.  0.
         25    1    4    4    0    0 -0.69894589736E+02 -0.23263418167E+02 -0.33624931281E+03  0.36624793346E+03  0.12509000000E+03 0.  0.
         25    1    3    3    0    0  0.96319863110E+02 -0.15349704823E+02 -0.33716498136E+03  0.37261355615E+03  0.12509000000E+03 0.  0.
<mgrwt>
<rscale>  2 0.43916144E+03</rscale>
<asrwt>0</asrwt>
<pdfrwt beam="1">  1       21 0.73552043E-02 0.43916144E+03</pdfrwt>
<pdfrwt beam="2">  1       21 0.14176723E+00 0.43916144E+03</pdfrwt>
<totfact> 0.43796180E+04</totfact>
</mgrwt>
</event>
<event>
 7    0  0.4766352E-002  0.4528924E+03  0.7546771E-02  0.1026863E+00
         21   -1    0    0  502  501  0.00000000000E+00  0.00000000000E+00  0.56470922338E+02  0.56470922338E+02  0.00000000000E+00 0.  1.
         21   -1    0    0  501  502 -0.00000000000E+00 -0.00000000000E+00 -0.90804029962E+03  0.90804029962E+03  0.00000000000E+00 0.  1.
      99926    2    1    2    0    0  0.00000000000E+00  0.00000000000E+00 -0.85156937728E+03  0.96451122196E+03  0.45289236355E+03 0.  0.
      99925    2    3    3    0    0 -0.63323866472E+02  0.90181552277E+02 -0.56892085978E+03  0.63636443014E+03  0.26295649605E+03 0.  0.
         25    1    4    4    0    0 -0.51890572719E+02  0.57550998058E+02 -0.37683845457E+03  0.40454848641E+03  0.12509000000E+03 0.  0.
         25    1    4    4    0    0 -0.11433293753E+02  0.32630554219E+02 -0.19208240521E+03  0.23181594373E+03  0.12509000000E+03 0.  0.
         25    1    3    3    0    0  0.63323866472E+02 -0.90181552277E+02 -0.28264851750E+03  0.32814679182E+03  0.12509000000E+03 0.  0.
<mgrwt>
<rscale>  2 0.45289236E+03</rscale>
<asrwt>0</asrwt>
<pdfrwt beam="1">  1       21 0.83045473E-02 0.45289236E+03</pdfrwt>
<pdfrwt beam="2">  1       21 0.13353534E+00 0.45289236E+03</pdfrwt>
<totfact> 0.41234045E+04</totfact>
</mgrwt>
</event>
<event>
 7    0  0.4766352E-002  0.4728907E+03  0.7546771E-02  0.1021107E+00
         21   -1    0    0  502  501  0.00000000000E+00  0.00000000000E+00  0.64034843736E+03  0.64034843736E+03  0.00000000000E+00 0. -1.
         21   -1    0    0  501  502 -0.00000000000E+00 -0.00000000000E+00 -0.87306217026E+02  0.87306217026E+02  0.00000000000E+00 0. -1.
      99926    2    1    2    0    0  0.00000000000E+00  0.00000000000E+00  0.55304222034E+03  0.72765465439E+03  0.47289068354E+03 0.  0.
      99925    2    3    3    0    0  0.10758056537E+03 -0.38929556827E+02  0.43541899530E+03  0.52132525850E+03  0.26287113809E+03 0.  0.
         25    1    3    3    0    0 -0.10758056537E+03  0.38929556827E+02  0.11762322503E+03  0.20632939589E+03  0.12509000000E+03 0.  0.
         25    1    4    4    0    0  0.46497620996E+02  0.72310655540E+01  0.26267396118E+03  0.29471924784E+03  0.12509000000E+03 0.  0.
         25    1    4    4    0    0  0.61082944374E+02 -0.46160622381E+02  0.17274503412E+03  0.22660601066E+03  0.12509000000E+03 0.  0.
<mgrwt>
<rscale>  2 0.47289068E+03</rscale>
<asrwt>0</asrwt>
<pdfrwt beam="1">  1       21 0.94168886E-01 0.47289068E+03</pdfrwt>
<pdfrwt beam="2">  1       21 0.12839150E-01 0.47289068E+03</pdfrwt>
<totfact> 0.44785240E+04</totfact>
</mgrwt>
</event>
<event>
 7    0  0.4766352E-002  0.4526098E+03  0.7546771E-02  0.1026947E+00
         21   -1    0    0  502  501  0.00000000000E+00  0.00000000000E+00  0.20743236740E+04  0.20743236740E+04  0.00000000000E+00 0.  1.
         21   -1    0    0  501  502 -0.00000000000E+00 -0.00000000000E+00 -0.24689445238E+02  0.24689445238E+02  0.00000000000E+00 0.  1.
      99926    2    1    2    0    0  0.14210854715E-13  0.71054273576E-14  0.20496342288E+04  0.20990131193E+04  0.45260976904E+03 0.  0.
      99925    2    3    3    0    0  0.62835879804E+02  0.45860461046E+02  0.16591073818E+04  0.16816280980E+04  0.26302894495E+03 0.  0.
         25    1    3    3    0    0 -0.62835879804E+02 -0.45860461046E+02  0.39052684699E+03  0.41738502129E+03  0.12509000000E+03 0.  0.
         25    1    4    4    0    0  0.69358901343E+02  0.25458017811E+02  0.98831286016E+03  0.99893372429E+03  0.12509000000E+03 0.  0.
         25    1    4    4    0    0 -0.65230215388E+01  0.20402443235E+02  0.67079452164E+03  0.68269437368E+03  0.12509000000E+03 0.  0.
<mgrwt>
<rscale>  2 0.45260977E+03</rscale>
<asrwt>0</asrwt>
<pdfrwt beam="1">  1       21 0.30504748E+00 0.45260977E+03</pdfrwt>
<pdfrwt beam="2">  1       21 0.36308022E-02 0.45260977E+03</pdfrwt>
<totfact> 0.12388063E+04</totfact>
</mgrwt>
</event>
<event>
 7    0  0.4766352E-002  0.4380442E+03  0.7546771E-02  0.1031349E+00
         21   -1    0    0  502  501  0.00000000000E+00  0.00000000000E+00  0.29347016847E+02  0.29347016847E+02  0.00000000000E+00 0. -1.
         21   -1    0    0  501  502 -0.00000000000E+00 -0.00000000000E+00 -0.16346012168E+04  0.16346012168E+04  0.00000000000E+00 0. -1.
      99926    2    1    2    0    0 -0.53290705182E-14  0.71054273576E-14 -0.16052541999E+04  0.16639482336E+04  0.43804415050E+03 0.  0.
      99925    2    3    3    0    0  0.67266379598E+01 -0.60426001012E+02 -0.13107720496E+04  0.13382738652E+04  0.26297722930E+03 0.  0.
         25    1    4    4    0    0  0.37729910699E+02 -0.51014689618E+02 -0.64427931718E+03  0.65937045079E+03  0.12509000000E+03 0.  0.
         25    1    3    3    0    0 -0.67266379598E+01  0.60426001012E+02 -0.29448215035E+03  0.32567436839E+03  0.12509000000E+03 0.  0.
         25    1    4    4    0    0 -0.31003272740E+02 -0.94113113940E+01 -0.66649273242E+03  0.67890341446E+03  0.12509000000E+03 0.  0.
<mgrwt>
<rscale>  2 0.43804415E+03</rscale>
<asrwt>0</asrwt>
<pdfrwt beam="1">  1       21 0.43157373E-02 0.43804415E+03</pdfrwt>
<pdfrwt beam="2">  1       21 0.24038256E+00 0.43804415E+03</pdfrwt>
<totfact> 0.22891228E+04</totfact>
</mgrwt>
</event>
<event>
 7    0  0.4766352E-002  0.4654336E+03  0.7546771E-02  0.1023217E+00
         21   -1    0    0  502  501  0.00000000000E+00  0.00000000000E+00  0.74801350194E+03  0.74801350194E+03  0.00000000000E+00 0. -1.
         21   -1    0    0  501  502 -0.00000000000E+00 -0.00000000000E+00 -0.72401258807E+02  0.72401258807E+02  0.00000000000E+00 0. -1.
      99926    2    1    2    0    0  0.00000000000E+00  0.00000000000E+00  0.67561224313E+03  0.82041476074E+03  0.46543364358E+03 0.  0.
      99925    2    3    3    0    0 -0.71954657875E+02  0.93803767196E+02  0.47894071458E+03  0.55906476979E+03  0.26304484258E+03 0.  0.
         25    1    4    4    0    0  0.21612968410E+01  0.52346885477E+02  0.19743863460E+03  0.23952951834E+03  0.12509000000E+03 0.  0.
         25    1    4    4    0    0 -0.74115954716E+02  0.41456881719E+02  0.28150207998E+03  0.31953525145E+03  0.12509000000E+03 0.  0.
         25    1    3    3    0    0  0.71954657875E+02 -0.93803767196E+02  0.19667152855E+03  0.26134999096E+03  0.12509000000E+03 0.  0.
<mgrwt>
<rscale>  2 0.46543364E+03</rscale>
<asrwt>0</asrwt>
<pdfrwt beam="1">  1       21 0.11000198E+00 0.46543364E+03</pdfrwt>
<pdfrwt beam="2">  1       21 0.10647244E-01 0.46543364E+03</pdfrwt>
<totfact> 0.43150506E+04</totfact>
</mgrwt>
</event>
<event>
 7    0  0.4766352E-002  0.4543891E+03  0.7546771E-02  0.1026421E+00
         21   -1    0    0  502  501  0.00000000000E+00  0.00000000000E+00  0.14639751462E+03  0.14639751462E+03  0.00000000000E+00 0. -1.
         21   -1    0    0  501  502 -0.00000000000E+00 -0.00000000000E+00 -0.35258364001E+03  0.35258364001E+03  0.00000000000E+00 0. -1.
      99926    2    1    2    0    0  0.35527136788E-14  0.88817841970E-15 -0.20618612538E+03  0.49898115463E+03  0.45438912220E+03 0.  0.
      99925    2    3    3    0    0 -0.19070468541E+02 -0.37127277870E+01 -0.83131195326E+01  0.26407968239E+03  0.26323279350E+03 0.  0.
         25    1    4    4    0    0  0.14842702976E+02 -0.32962647923E+02 -0.14854967603E+02  0.13105350111E+03  0.12509000000E+03 0.  0.
         25    1    4    4    0    0 -0.33913171517E+02  0.29249920136E+02  0.65418480703E+01  0.13302618128E+03  0.12509000000E+03 0.  0.
         25    1    3    3    0    0  0.19070468541E+02  0.37127277870E+01 -0.19787300585E+03  0.23490147224E+03  0.12509000000E+03 0.  0.
<mgrwt>
<rscale>  2 0.45438912E+03</rscale>
<asrwt>0</asrwt>
<pdfrwt beam="1">  1       21 0.21529046E-01 0.45438912E+03</pdfrwt>
<pdfrwt beam="2">  1       21 0.51850535E-01 0.45438912E+03</pdfrwt>
<totfact> 0.65660120E+04</totfact>
</mgrwt>
</event>
<event>
 7    0  0.4766352E-002  0.4526038E+03  0.7546771E-02  0.1026948E+00
         21   -1    0    0  502  501  0.00000000000E+00  0.00000000000E+00  0.85095437408E+02  0.85095437408E+02  0.00000000000E+00 0.  1.
         21   -1    0    0  501  502 -0.00000000000E+00 -0.00000000000E+00 -0.60182482586E+03  0.60182482586E+03  0.00000000000E+00 0.  1.
      99926    2    1    2    0    0 -0.71054273576E-14  0.00000000000E+00 -0.51672938846E+03  0.68692026327E+03  0.45260378611E+03 0.  0.
      99925    2    3    3    0    0 -0.63679190194E+02  0.64576909466E+02 -0.22907868115E+03  0.36039973710E+03  0.26303176964E+03 0.  0.
         25    1    3    3    0    0  0.63679190194E+02 -0.64576909466E+02 -0.28765070731E+03  0.32652052618E+03  0.12509000000E+03 0.  0.
         25    1    4    4    0    0 -0.95328052780E+00  0.90602954649E+01 -0.81448785737E+02  0.14954735202E+03  0.12509000000E+03 0.  0.
         25    1    4    4    0    0 -0.62725909666E+02  0.55516614001E+02 -0.14762989541E+03  0.21085238508E+03  0.12509000000E+03 0.  0.
<mgrwt>
<rscale>  2 0.45260379E+03</rscale>
<asrwt>0</asrwt>
<pdfrwt beam="1">  1       21 0.12514034E-01 0.45260379E+03</pdfrwt>
<pdfrwt beam="2">  1       21 0.88503655E-01 0.45260379E+03</pdfrwt>
<totfact> 0.54642571E+04</totfact>
</mgrwt>
</event>
<event>
 7    0  0.4766352E-002  0.4511285E+03  0.7546771E-02  0.1027386E+00
         21   -1    0    0  502  501  0.00000000000E+00  0.00000000000E+00  0.15664617104E+03  0.15664617104E+03  0.00000000000E+00 0.  1.
         21   -1    0    0  501  502 -0.00000000000E+00 -0.00000000000E+00 -0.32480355535E+03  0.32480355535E+03  0.00000000000E+00 0.  1.
      99926    2    1    2    0    0  0.35527136788E-14  0.71054273576E-14 -0.16815738431E+03  0.48144972640E+03  0.45112851068E+03 0.  0.
      99925    2    3    3    0    0 -0.21817021962E+02 -0.32536322428E+02 -0.21532743958E+03  0.34214029765E+03  0.26298190492E+03 0.  0.
         25    1    4    4    0    0 -0.34574755696E+02 -0.18863525715E+02 -0.67192339556E+02  0.14735523380E+03  0.12509000000E+03 0.  0.
         25    1    3    3    0    0  0.21817021962E+02  0.32536322428E+02  0.47170055266E+02  0.13930942875E+03  0.12509000000E+03 0.  0.
         25    1    4    4    0    0  0.12757733734E+02 -0.13672796713E+02 -0.14813510002E+03  0.19478506385E+03  0.12509000000E+03 0.  0.
<mgrwt>
<rscale>  2 0.45112851E+03</rscale>
<asrwt>0</asrwt>
<pdfrwt beam="1">  1       21 0.23036202E-01 0.45112851E+03</pdfrwt>
<pdfrwt beam="2">  1       21 0.47765229E-01 0.45112851E+03</pdfrwt>
<totfact> 0.68681330E+04</totfact>
</mgrwt>
</event>
<event>
 7    0  0.4766352E-002  0.4478471E+03  0.7546771E-02  0.1028366E+00
         21   -1    0    0  502  501  0.00000000000E+00  0.00000000000E+00  0.12773417366E+04  0.12773417366E+04  0.00000000000E+00 0. -1.
         21   -1    0    0  501  502 -0.00000000000E+00 -0.00000000000E+00 -0.39254775726E+02  0.39254775726E+02  0.00000000000E+00 0. -1.
      99926    2    1    2    0    0  0.00000000000E+00 -0.35527136788E-14  0.12380869609E+04  0.13165965124E+04  0.44784713194E+03 0.  0.
      99925    2    3    3    0    0  0.60693629768E+02  0.27391003070E+02  0.54054531215E+03  0.60480592265E+03  0.26299617078E+03 0.  0.
         25    1    3    3    0    0 -0.60693629768E+02 -0.27391003070E+02  0.69754164877E+03  0.71179058972E+03  0.12509000000E+03 0.  0.
         25    1    4    4    0    0  0.70116955684E+02  0.41161975483E+01  0.27313185427E+03  0.30851555629E+03  0.12509000000E+03 0.  0.
         25    1    4    4    0    0 -0.94233259157E+01  0.23274805522E+02  0.26741345788E+03  0.29629036636E+03  0.12509000000E+03 0.  0.
<mgrwt>
<rscale>  2 0.44784713E+03</rscale>
<asrwt>0</asrwt>
<pdfrwt beam="1">  1       21 0.18784435E+00 0.44784713E+03</pdfrwt>
<pdfrwt beam="2">  1       21 0.57727620E-02 0.44784713E+03</pdfrwt>
<totfact> 0.30286373E+04</totfact>
</mgrwt>
</event>
<event>
 7    0  0.4766352E-002  0.4289562E+03  0.7546771E-02  0.1034190E+00
         21   -1    0    0  502  501  0.00000000000E+00  0.00000000000E+00  0.15322048404E+03  0.15322048404E+03  0.00000000000E+00 0. -1.
         21   -1    0    0  501  502 -0.00000000000E+00 -0.00000000000E+00 -0.30022653595E+03  0.30022653595E+03  0.00000000000E+00 0. -1.
      99926    2    1    2    0    0  0.71054273576E-14 -0.26645352591E-14 -0.14700605191E+03  0.45344701998E+03  0.42895619897E+03 0.  0.
      99925    2    3    3    0    0 -0.63880411598E+02  0.54861254804E+01 -0.33706581240E+02  0.27290593681E+03  0.26311729736E+03 0.  0.
         25    1    4    4    0    0 -0.24947548661E+02  0.39103446412E+02 -0.33901297649E+02  0.13765269989E+03  0.12509000000E+03 0.  0.
         25    1    4    4    0    0 -0.38932862936E+02 -0.33617320931E+02  0.19471640967E+00  0.13525323692E+03  0.12509000000E+03 0.  0.
         25    1    3    3    0    0  0.63880411598E+02 -0.54861254804E+01 -0.11329947067E+03  0.18054108317E+03  0.12509000000E+03 0.  0.
<mgrwt>
<rscale>  2 0.42895620E+03</rscale>
<asrwt>0</asrwt>
<pdfrwt beam="1">  1       21 0.22532424E-01 0.42895620E+03</pdfrwt>
<pdfrwt beam="2">  1       21 0.44150961E-01 0.42895620E+03</pdfrwt>
<totfact> 0.84924823E+04</totfact>
</mgrwt>
</event>
<event>
 6    0  0.4766352E-002  0.4662174E+03  0.7546771E-02  0.1022993E+00
         21   -1    0    0  502  501  0.00000000000E+00  0.00000000000E+00  0.87232767161E+03  0.87232767161E+03  0.00000000000E+00 0.  1.
         21   -1    0    0  501  502 -0.00000000000E+00 -0.00000000000E+00 -0.62292714036E+02  0.62292714036E+02  0.00000000000E+00 0.  1.
      99926    2    1    2    0    0  0.35527136788E-14  0.00000000000E+00  0.81003495758E+03  0.93462038565E+03  0.46621736644E+03 0.  0.
         25    1    3    3    0    0 -0.33663949477E+02 -0.76791194609E+02  0.33103403068E+03  0.36367731113E+03  0.12509000000E+03 0.  0.
         25    1    3    3    0    0  0.69726158441E+01 -0.15727856120E+02  0.33214467937E+03  0.35533586783E+03  0.12509000000E+03 0.  0.
         25    1    3    3    0    0  0.26691333633E+02  0.92519050728E+02  0.14685624752E+03  0.21560720669E+03  0.12509000000E+03 0.  0.
<mgrwt>
<rscale>  2 0.46621737E+03</rscale>
<asrwt>0</asrwt>
<pdfrwt beam="1">  1       21 0.12828347E+00 0.46621737E+03</pdfrwt>
<pdfrwt beam="2">  1       21 0.91606938E-02 0.46621737E+03</pdfrwt>
<totfact> 0.38296636E+04</totfact>
</mgrwt>
</event>
<event>
 7    0  0.4766352E-002  0.4451246E+03  0.7546771E-02  0.1029186E+00
         21   -1    0    0  502  501  0.00000000000E+00  0.00000000000E+00  0.95911503709E+03  0.95911503709E+03  0.00000000000E+00 0.  1.
         21   -1    0    0  501  502 -0.00000000000E+00 -0.00000000000E+00 -0.51645505026E+02  0.51645505026E+02  0.00000000000E+00 0.  1.
      99926    2    1    2    0    0  0.14210854715E-13 -0.17763568394E-14  0.90746953206E+03  0.10107605421E+04  0.44512461387E+03 0.  0.
      99925    2    3    3    0    0  0.10306248165E+03  0.40052351351E+01  0.55080782519E+03  0.61897871726E+03  0.26288300650E+03 0.  0.
         25    1    4    4    0    0  0.64762215468E+02 -0.17625116152E+02  0.35663784574E+03  0.38385264150E+03  0.12509000000E+03 0.  0.
         25    1    4    4    0    0  0.38300266179E+02  0.21630351287E+02  0.19416997945E+03  0.23512607576E+03  0.12509000000E+03 0.  0.
         25    1    3    3    0    0 -0.10306248165E+03 -0.40052351351E+01  0.35666170687E+03  0.39178182485E+03  0.12509000000E+03 0.  0.
<mgrwt>
<rscale>  2 0.44512461E+03</rscale>
<asrwt>0</asrwt>
<pdfrwt beam="1">  1       21 0.14104632E+00 0.44512461E+03</pdfrwt>
<pdfrwt beam="2">  1       21 0.75949278E-02 0.44512461E+03</pdfrwt>
<totfact> 0.41888999E+04</totfact>
</mgrwt>
</event>
<event>
 7    0  0.4766352E-002  0.4412663E+03  0.7546771E-02  0.1030359E+00
         21   -1    0    0  502  501  0.00000000000E+00  0.00000000000E+00  0.52622358007E+03  0.52622358007E+03  0.00000000000E+00 0. -1.
         21   -1    0    0  501  502 -0.00000000000E+00 -0.00000000000E+00 -0.92506278758E+02  0.92506278758E+02  0.00000000000E+00 0. -1.
      99926    2    1    2    0    0  0.00000000000E+00  0.00000000000E+00  0.43371730131E+03  0.61872985883E+03  0.44126629233E+03 0.  0.
      99925    2    3    3    0    0 -0.72109506633E+02 -0.80828792136E+01  0.37240288380E+03  0.46165637355E+03  0.26301632172E+03 0.  0.
         25    1    4    4    0    0 -0.17768575744E+02  0.10543911438E+02  0.23583046979E+03  0.26775065814E+03  0.12509000000E+03 0.  0.
         25    1    3    3    0    0  0.72109506633E+02  0.80828792136E+01  0.61314417513E+02  0.15707348528E+03  0.12509000000E+03 0.  0.
         25    1    4    4    0    0 -0.54340930889E+02 -0.18626790652E+02  0.13657241401E+03  0.19390571541E+03  0.12509000000E+03 0.  0.
<mgrwt>
<rscale>  2 0.44126629E+03</rscale>
<asrwt>0</asrwt>
<pdfrwt beam="1">  1       21 0.77385820E-01 0.44126629E+03</pdfrwt>
<pdfrwt beam="2">  1       21 0.13603865E-01 0.44126629E+03</pdfrwt>
<totfact> 0.64226646E+04</totfact>
</mgrwt>
</event>
<event>
 7    0  0.4766352E-002  0.4637022E+03  0.7546771E-02  0.1023713E+00
         21   -1    0    0  502  501  0.00000000000E+00  0.00000000000E+00  0.29432466445E+03  0.29432466445E+03  0.00000000000E+00 0.  1.
         21   -1    0    0  501  502 -0.00000000000E+00 -0.00000000000E+00 -0.18263824398E+03  0.18263824398E+03  0.00000000000E+00 0.  1.
      99926    2    1    2    0    0  0.00000000000E+00  0.00000000000E+00  0.11168642047E+03  0.47696290843E+03  0.46370223150E+03 0.  0.
      99925    2    3    3    0    0 -0.83714416698E+02  0.87310630998E+02  0.64342900260E+02  0.29662942054E+03  0.26309267277E+03 0.  0.
         25    1    4    4    0    0 -0.11109567063E+02  0.59092156286E+02  0.85280725709E+01  0.13905229785E+03  0.12509000000E+03 0.  0.
         25    1    4    4    0    0 -0.72604849634E+02  0.28218474712E+02  0.55814827689E+02  0.15757712269E+03  0.12509000000E+03 0.  0.
         25    1    3    3    0    0  0.83714416698E+02 -0.87310630998E+02  0.47343520214E+02  0.18033348789E+03  0.12509000000E+03 0.  0.
<mgrwt>
<rscale>  2 0.46370223E+03</rscale>
<asrwt>0</asrwt>
<pdfrwt beam="1">  1       21 0.43283039E-01 0.46370223E+03</pdfrwt>
<pdfrwt beam="2">  1       21 0.26858565E-01 0.46370223E+03</pdfrwt>
<totfact> 0.62494233E+04</totfact>
</mgrwt>
</event>
<event>
 7    0  0.4766352E-002  0.4551636E+03  0.7546771E-02  0.1026193E+00
         21   -1    0    0  502  501  0.00000000000E+00  0.00000000000E+00  0.34540051355E+03  0.34540051355E+03  0.00000000000E+00 0.  1.
         21   -1    0    0  501  502 -0.00000000000E+00 -0.00000000000E+00 -0.14995193711E+03  0.14995193711E+03  0.00000000000E+00 0.  1.
      99926    2    1    2    0    0  0.00000000000E+00  0.00000000000E+00  0.19544857644E+03  0.49535245067E+03  0.45516360174E+03 0.  0.
      99925    2    3    3    0    0  0.37163778509E+02  0.92909226493E+02  0.65253324038E+02  0.28892671911E+03  0.26307295931E+03 0.  0.
         25    1    4    4    0    0  0.31522844064E+02  0.90068627770E+01  0.15712036011E+02  0.13026584146E+03  0.12509000000E+03 0.  0.
         25    1    4    4    0    0  0.56409344448E+01  0.83902363716E+02  0.49541288027E+02  0.15866087765E+03  0.12509000000E+03 0.  0.
         25    1    3    3    0    0 -0.37163778509E+02 -0.92909226493E+02  0.13019525240E+03  0.20642573156E+03  0.12509000000E+03 0.  0.
<mgrwt>
<rscale>  2 0.45516360E+03</rscale>
<asrwt>0</asrwt>
<pdfrwt beam="1">  1       21 0.50794193E-01 0.45516360E+03</pdfrwt>
<pdfrwt beam="2">  1       21 0.22051755E-01 0.45516360E+03</pdfrwt>
<totfact> 0.65513282E+04</totfact>
</mgrwt>
</event>
<event>
 7    0  0.4766352E-002  0.4517485E+03  0.7546771E-02  0.1027202E+00
         21   -1    0    0  502  501  0.00000000000E+00  0.00000000000E+00  0.26713292156E+02  0.26713292156E+02  0.00000000000E+00 0.  1.
         21   -1    0    0  501  502 -0.00000000000E+00 -0.00000000000E+00 -0.19098798496E+04  0.19098798496E+04  0.00000000000E+00 0.  1.
      99926    2    1    2    0    0  0.00000000000E+00  0.00000000000E+00 -0.18831665575E+04  0.19365931418E+04  0.45174850706E+03 0.  0.
      99925    2    3    3    0    0 -0.78349779790E+02  0.73567418635E+02 -0.10867140329E+04  0.11232451320E+04  0.26302354288E+03 0.  0.
         25    1    3    3    0    0  0.78349779790E+02 -0.73567418635E+02 -0.79645252456E+03  0.81334800981E+03  0.12509000000E+03 0.  0.
         25    1    4    4    0    0 -0.89980422703E+00  0.50833271666E+02 -0.49408888399E+03  0.51220715003E+03  0.12509000000E+03 0.  0.
         25    1    4    4    0    0 -0.77449975563E+02  0.22734146969E+02 -0.59262514893E+03  0.61103798196E+03  0.12509000000E+03 0.  0.
<mgrwt>
<rscale>  2 0.45174851E+03</rscale>
<asrwt>0</asrwt>
<pdfrwt beam="1">  1       21 0.39284252E-02 0.45174851E+03</pdfrwt>
<pdfrwt beam="2">  1       21 0.28086469E+00 0.45174851E+03</pdfrwt>
<totfact> 0.15151586E+04</totfact>
</mgrwt>
</event>
<event>
 7    0  0.4766352E-002  0.4599665E+03  0.7546771E-02  0.1024791E+00
         21   -1    0    0  502  501  0.00000000000E+00  0.00000000000E+00  0.37395798938E+03  0.37395798938E+03  0.00000000000E+00 0. -1.
         21   -1    0    0  501  502 -0.00000000000E+00 -0.00000000000E+00 -0.14143910870E+03  0.14143910870E+03  0.00000000000E+00 0. -1.
      99926    2    1    2    0    0 -0.71054273576E-14  0.00000000000E+00  0.23251888068E+03  0.51539709808E+03  0.45996645404E+03 0.  0.
      99925    2    3    3    0    0  0.61134908139E+02 -0.53276206314E+02  0.24121642383E+03  0.36606864631E+03  0.26314456014E+03 0.  0.
         25    1    4    4    0    0  0.38690612830E+02 -0.67158795686E+02  0.13834711976E+03  0.20197698138E+03  0.12509000000E+03 0.  0.
         25    1    4    4    0    0  0.22444295309E+02  0.13882589371E+02  0.10286930407E+03  0.16409166493E+03  0.12509000000E+03 0.  0.
         25    1    3    3    0    0 -0.61134908139E+02  0.53276206314E+02 -0.86975431553E+01  0.14932845177E+03  0.12509000000E+03 0.  0.
<mgrwt>
<rscale>  2 0.45996645E+03</rscale>
<asrwt>0</asrwt>
<pdfrwt beam="1">  1       21 0.54993822E-01 0.45996645E+03</pdfrwt>
<pdfrwt beam="2">  1       21 0.20799869E-01 0.45996645E+03</pdfrwt>
<totfact> 0.61732808E+04</totfact>
</mgrwt>
</event>
<event>
 7    0  0.4766352E-002  0.4475519E+03  0.7546771E-02  0.1028455E+00
         21   -1    0    0  502  501  0.00000000000E+00  0.00000000000E+00  0.40707928071E+02  0.40707928071E+02  0.00000000000E+00 0.  1.
         21   -1    0    0  501  502 -0.00000000000E+00 -0.00000000000E+00 -0.12301208687E+04  0.12301208687E+04  0.00000000000E+00 0.  1.
      99926    2    1    2    0    0 -0.14210854715E-13  0.00000000000E+00 -0.11894129407E+04  0.12708287968E+04  0.44755188233E+03 0.  0.
      99925    2    3    3    0    0  0.86244029828E+02  0.14170180305E+02 -0.58865052378E+03  0.65098864295E+03  0.26389002902E+03 0.  0.
         25    1    4    4    0    0  0.16495083711E+01 -0.62800494051E+00 -0.29571461609E+03  0.32108839521E+03  0.12509000000E+03 0.  0.
         25    1    3    3    0    0 -0.86244029828E+02 -0.14170180305E+02 -0.60076241689E+03  0.61984015386E+03  0.12509000000E+03 0.  0.
         25    1    4    4    0    0  0.84594521457E+02  0.14798185245E+02 -0.29293590768E+03  0.32990024774E+03  0.12509000000E+03 0.  0.
<mgrwt>
<rscale>  2 0.44755188E+03</rscale>
<asrwt>0</asrwt>
<pdfrwt beam="1">  1       21 0.59864599E-02 0.44755188E+03</pdfrwt>
<pdfrwt beam="2">  1       21 0.18090013E+00 0.44755188E+03</pdfrwt>
<totfact> 0.31775551E+04</totfact>
</mgrwt>
</event>
<event>
 7    0  0.4766352E-002  0.4490142E+03  0.7546771E-02  0.1028016E+00
         21   -1    0    0  502  501  0.00000000000E+00  0.00000000000E+00  0.30528241123E+03  0.30528241123E+03  0.00000000000E+00 0.  1.
         21   -1    0    0  501  502 -0.00000000000E+00 -0.00000000000E+00 -0.16510428590E+03  0.16510428590E+03  0.00000000000E+00 0.  1.
      99926    2    1    2    0    0  0.00000000000E+00  0.14210854715E-13  0.14017812533E+03  0.47038669713E+03  0.44901418464E+03 0.  0.
      99925    2    3    3    0    0  0.35554750347E+02  0.90457407998E+02  0.39790968266E+02  0.28284530879E+03  0.26262418894E+03 0.  0.
         25    1    4    4    0    0  0.30876768000E+01  0.73818965483E+02 -0.41358390995E+01  0.14533886844E+03  0.12509000000E+03 0.  0.
         25    1    4    4    0    0  0.32467073547E+02  0.16638442515E+02  0.43926807366E+02  0.13750644036E+03  0.12509000000E+03 0.  0.
         25    1    3    3    0    0 -0.35554750347E+02 -0.90457407998E+02  0.10038715707E+03  0.18754138833E+03  0.12509000000E+03 0.  0.
<mgrwt>
<rscale>  2 0.44901418E+03</rscale>
<asrwt>0</asrwt>
<pdfrwt beam="1">  1       21 0.44894472E-01 0.44901418E+03</pdfrwt>
<pdfrwt beam="2">  1       21 0.24280042E-01 0.44901418E+03</pdfrwt>
<totfact> 0.70706138E+04</totfact>
</mgrwt>
</event>
<event>
 7    0  0.4766352E-002  0.4433436E+03  0.7546771E-02  0.1029726E+00
         21   -1    0    0  502  501  0.00000000000E+00  0.00000000000E+00  0.13490792686E+03  0.13490792686E+03  0.00000000000E+00 0. -1.
         21   -1    0    0  501  502 -0.00000000000E+00 -0.00000000000E+00 -0.36423644028E+03  0.36423644028E+03  0.00000000000E+00 0. -1.
      99926    2    1    2    0    0  0.00000000000E+00  0.71054273576E-14 -0.22932851342E+03  0.49914436715E+03  0.44334358255E+03 0.  0.
      99925    2    3    3    0    0  0.72138388514E+02  0.63035758972E+02 -0.18416430712E+03  0.33523961542E+03  0.26323307871E+03 0.  0.
         25    1    4    4    0    0  0.21844869068E+02  0.41757067863E+02 -0.13548616738E+03  0.19032829709E+03  0.12509000000E+03 0.  0.
         25    1    4    4    0    0  0.50293519445E+02  0.21278691109E+02 -0.48678139735E+02  0.14491131833E+03  0.12509000000E+03 0.  0.
         25    1    3    3    0    0 -0.72138388514E+02 -0.63035758972E+02 -0.45164206306E+02  0.16390475172E+03  0.12509000000E+03 0.  0.
<mgrwt>
<rscale>  2 0.44334358E+03</rscale>
<asrwt>0</asrwt>
<pdfrwt beam="1">  1       21 0.19839401E-01 0.44334358E+03</pdfrwt>
<pdfrwt beam="2">  1       21 0.53564181E-01 0.44334358E+03</pdfrwt>
<totfact> 0.71742003E+04</totfact>
</mgrwt>
</event>
<event>
 7    0  0.4766352E-002  0.4639276E+03  0.7546771E-02  0.1023648E+00
         21   -1    0    0  502  501  0.00000000000E+00  0.00000000000E+00  0.52269977878E+03  0.52269977878E+03  0.00000000000E+00 0.  1.
         21   -1    0    0  501  502 -0.00000000000E+00 -0.00000000000E+00 -0.10294092514E+03  0.10294092514E+03  0.00000000000E+00 0.  1.
      99926    2    1    2    0    0  0.00000000000E+00  0.00000000000E+00  0.41975885364E+03  0.62564070393E+03  0.46392757539E+03 0.  0.
      99925    2    3    3    0    0 -0.77352771036E+02  0.93004610543E+02  0.24685968123E+03  0.38033489338E+03  0.26283382609E+03 0.  0.
         25    1    4    4    0    0 -0.70228279457E+01  0.65647061580E+02  0.14264617456E+03  0.20088378735E+03  0.12509000000E+03 0.  0.
         25    1    4    4    0    0 -0.70329943091E+02  0.27357548964E+02  0.10421350668E+03  0.17945110603E+03  0.12509000000E+03 0.  0.
         25    1    3    3    0    0  0.77352771036E+02 -0.93004610543E+02  0.17289917241E+03  0.24530581055E+03  0.12509000000E+03 0.  0.
<mgrwt>
<rscale>  2 0.46392758E+03</rscale>
<asrwt>0</asrwt>
<pdfrwt beam="1">  1       21 0.76867613E-01 0.46392758E+03</pdfrwt>
<pdfrwt beam="2">  1       21 0.15138372E-01 0.46392758E+03</pdfrwt>
<totfact> 0.53271597E+04</totfact>
</mgrwt>
</event>
<event>
 7    0  0.4766352E-002  0.4466104E+03  0.7546771E-02  0.1028738E+00
         21   -1    0    0  502  501  0.00000000000E+00  0.00000000000E+00  0.97108363461E+03  0.97108363461E+03  0.00000000000E+00 0. -1.
         21   -1    0    0  501  502 -0.00000000000E+00 -0.00000000000E+00 -0.51350068562E+02  0.51350068562E+02  0.00000000000E+00 0. -1.
      99926    2    1    2    0    0  0.00000000000E+00 -0.71054273576E-14  0.91973356605E+03  0.10224337032E+04  0.44661039494E+03 0.  0.
      99925    2    3    3    0    0  0.96780239185E+02  0.35090762675E+02  0.53246528176E+03  0.60264565137E+03  0.26280169046E+03 0.  0.
         25    1    4    4    0    0  0.56161961325E+02 -0.17286481269E+02  0.22327118701E+03  0.26258430910E+03  0.12509000000E+03 0.  0.
         25    1    4    4    0    0  0.40618277860E+02  0.52377243945E+02  0.30919409475E+03  0.34006134227E+03  0.12509000000E+03 0.  0.
         25    1    3    3    0    0 -0.96780239185E+02 -0.35090762675E+02  0.38726828429E+03  0.41978805181E+03  0.12509000000E+03 0.  0.
<mgrwt>
<rscale>  2 0.44661039E+03</rscale>
<asrwt>0</asrwt>
<pdfrwt beam="1">  1       21 0.14280641E+00 0.44661039E+03</pdfrwt>
<pdfrwt beam="2">  1       21 0.75514813E-02 0.44661039E+03</pdfrwt>
<totfact> 0.40920821E+04</totfact>
</mgrwt>
</event>
<event>
 7    0  0.4766352E-002  0.4554884E+03  0.7546771E-02  0.1026098E+00
         21   -1    0    0  502  501  0.00000000000E+00  0.00000000000E+00  0.78844659525E+02  0.78844659525E+02  0.00000000000E+00 0.  1.
         21   -1    0    0  501  502 -0.00000000000E+00 -0.00000000000E+00 -0.65784322148E+03  0.65784322148E+03  0.00000000000E+00 0.  1.
      99926    2    1    2    0    0  0.00000000000E+00  0.00000000000E+00 -0.57899856196E+03  0.73668788101E+03  0.45548841838E+03 0.  0.
      99925    2    3    3    0    0  0.10507158491E+03 -0.39427365636E+02 -0.39263935858E+03  0.48574602340E+03  0.26303797868E+03 0.  0.
         25    1    4    4    0    0  0.45344939167E+02 -0.50538054050E+02 -0.15520683129E+03  0.21058710073E+03  0.12509000000E+03 0.  0.
         25    1    4    4    0    0  0.59726645742E+02  0.11110688413E+02 -0.23743252729E+03  0.27515892267E+03  0.12509000000E+03 0.  0.
         25    1    3    3    0    0 -0.10507158491E+03  0.39427365636E+02 -0.18635920338E+03  0.25094185761E+03  0.12509000000E+03 0.  0.
<mgrwt>
<rscale>  2 0.45548842E+03</rscale>
<asrwt>0</asrwt>
<pdfrwt beam="1">  1       21 0.11594803E-01 0.45548842E+03</pdfrwt>
<pdfrwt beam="2">  1       21 0.96741650E-01 0.45548842E+03</pdfrwt>
<totfact> 0.50760706E+04</totfact>
</mgrwt>
</event>
<event>
 7    0  0.4766352E-002  0.4575680E+03  0.7546771E-02  0.1025489E+00
         21   -1    0    0  502  501  0.00000000000E+00  0.00000000000E+00  0.30666683293E+03  0.30666683293E+03  0.00000000000E+00 0. -1.
         21   -1    0    0  501  502 -0.00000000000E+00 -0.00000000000E+00 -0.17068069199E+03  0.17068069199E+03  0.00000000000E+00 0. -1.
      99926    2    1    2    0    0  0.00000000000E+00  0.00000000000E+00  0.13598614094E+03  0.47734752492E+03  0.45756795017E+03 0.  0.
      99925    2    3    3    0    0  0.81944030781E+02 -0.13638207721E+02  0.18876864011E+01  0.27602507585E+03  0.26322130280E+03 0.  0.
         25    1    4    4    0    0  0.58112529232E+01  0.37978148791E+01 -0.20227742012E+02  0.12690493964E+03  0.12509000000E+03 0.  0.
         25    1    3    3    0    0 -0.81944030781E+02  0.13638207721E+02  0.13409845454E+03  0.20132244907E+03  0.12509000000E+03 0.  0.
         25    1    4    4    0    0  0.76132777858E+02 -0.17436022601E+02  0.22115428413E+02  0.14912013621E+03  0.12509000000E+03 0.  0.
<mgrwt>
<rscale>  2 0.45756795E+03</rscale>
<asrwt>0</asrwt>
<pdfrwt beam="1">  1       21 0.45098064E-01 0.45756795E+03</pdfrwt>
<pdfrwt beam="2">  1       21 0.25100102E-01 0.45756795E+03</pdfrwt>
<totfact> 0.65547637E+04</totfact>
</mgrwt>
</event>
<event>
 7    0  0.4766352E-002  0.4576237E+03  0.7546771E-02  0.1025473E+00
         21   -1    0    0  502  501  0.00000000000E+00  0.00000000000E+00  0.54183406445E+02  0.54183406445E+02  0.00000000000E+00 0.  1.
         21   -1    0    0  501  502 -0.00000000000E+00 -0.00000000000E+00 -0.96625288622E+03  0.96625288622E+03  0.00000000000E+00 0.  1.
      99926    2    1    2    0    0  0.00000000000E+00  0.00000000000E+00 -0.91206947977E+03  0.10204362927E+04  0.45762374441E+03 0.  0.
      99925    2    3    3    0    0 -0.29270300807E+02  0.74234967095E+02 -0.38601550118E+03  0.47385795670E+03  0.26299394504E+03 0.  0.
         25    1    3    3    0    0  0.29270300807E+02 -0.74234967095E+02 -0.52605397860E+03  0.54657833596E+03  0.12509000000E+03 0.  0.
         25    1    4    4    0    0 -0.37834778638E+02  0.91725464759E+01 -0.15359333827E+03  0.20187626840E+03  0.12509000000E+03 0.  0.
         25    1    4    4    0    0  0.85644778307E+01  0.65062420619E+02 -0.23242216291E+03  0.27198168830E+03  0.12509000000E+03 0.  0.
<mgrwt>
<rscale>  2 0.45762374E+03</rscale>
<asrwt>0</asrwt>
<pdfrwt beam="1">  1       21 0.79681488E-02 0.45762374E+03</pdfrwt>
<pdfrwt beam="2">  1       21 0.14209600E+00 0.45762374E+03</pdfrwt>
<totfact> 0.37604914E+04</totfact>
</mgrwt>
</event>
<event>
 7    0  0.4766352E-002  0.4458351E+03  0.7546771E-02  0.1028971E+00
         21   -1    0    0  502  501  0.00000000000E+00  0.00000000000E+00  0.48744231151E+03  0.48744231151E+03  0.00000000000E+00 0. -1.
         21   -1    0    0  501  502 -0.00000000000E+00 -0.00000000000E+00 -0.10194484029E+03  0.10194484029E+03  0.00000000000E+00 0. -1.
      99926    2    1    2    0    0  0.00000000000E+00  0.00000000000E+00  0.38549747122E+03  0.58938715180E+03  0.44583507532E+03 0.  0.
      99925    2    3    3    0    0 -0.51314077402E+02 -0.56508503201E+02  0.15136043422E+03  0.31317345614E+03  0.26332733833E+03 0.  0.
         25    1    4    4    0    0 -0.18563577241E+02 -0.60332124702E+02  0.10741398807E+03  0.17654983603E+03  0.12509000000E+03 0.  0.
         25    1    4    4    0    0 -0.32750500160E+02  0.38236215008E+01  0.43946446154E+02  0.13662362011E+03  0.12509000000E+03 0.  0.
         25    1    3    3    0    0  0.51314077402E+02  0.56508503201E+02  0.23413703699E+03  0.27621369565E+03  0.12509000000E+03 0.  0.
<mgrwt>
<rscale>  2 0.44583508E+03</rscale>
<asrwt>0</asrwt>
<pdfrwt beam="1">  1       21 0.71682692E-01 0.44583508E+03</pdfrwt>
<pdfrwt beam="2">  1       21 0.14991888E-01 0.44583508E+03</pdfrwt>
<totfact> 0.63836065E+04</totfact>
</mgrwt>
</event>
<event>
 7    0  0.4766352E-002  0.4526808E+03  0.7546771E-02  0.1026926E+00
         21   -1    0    0  502  501  0.00000000000E+00  0.00000000000E+00  0.17568096652E+03  0.17568096652E+03  0.00000000000E+00 0. -1.
         21   -1    0    0  501  502 -0.00000000000E+00 -0.00000000000E+00 -0.29160803113E+03  0.29160803113E+03  0.00000000000E+00 0. -1.
      99926    2    1    2    0    0  0.00000000000E+00  0.14210854715E-13 -0.11592706462E+03  0.46728899765E+03  0.45268081803E+03 0.  0.
      99925    2    3    3    0    0  0.51550219785E+02  0.65450824215E+02  0.25671699718E+01  0.27590031648E+03  0.26300790620E+03 0.  0.
         25    1    4    4    0    0  0.33203122920E+01  0.41876967660E+02 -0.31323653655E+02  0.13562221157E+03  0.12509000000E+03 0.  0.
         25    1    3    3    0    0 -0.51550219785E+02 -0.65450824215E+02 -0.11849423459E+03  0.19138868117E+03  0.12509000000E+03 0.  0.
         25    1    4    4    0    0  0.48229907493E+02  0.23573856556E+02  0.33890823627E+02  0.14027810491E+03  0.12509000000E+03 0.  0.
<mgrwt>
<rscale>  2 0.45268082E+03</rscale>
<asrwt>0</asrwt>
<pdfrwt beam="1">  1       21 0.25835436E-01 0.45268082E+03</pdfrwt>
<pdfrwt beam="2">  1       21 0.42883534E-01 0.45268082E+03</pdfrwt>
<totfact> 0.68896731E+04</totfact>
</mgrwt>
</event>
<event>
 7    0  0.4766352E-002  0.4479680E+03  0.7546771E-02  0.1028330E+00
         21   -1    0    0  502  501  0.00000000000E+00  0.00000000000E+00  0.38215544161E+03  0.38215544161E+03  0.00000000000E+00 0.  1.
         21   -1    0    0  501  502 -0.00000000000E+00 -0.00000000000E+00 -0.13127858623E+03  0.13127858623E+03  0.00000000000E+00 0.  1.
      99926    2    1    2    0    0  0.00000000000E+00  0.00000000000E+00  0.25087685538E+03  0.51343402785E+03  0.44796797250E+03 0.  0.
      99925    2    3    3    0    0 -0.20099068505E+02 -0.53629463284E+02  0.56251828966E+02  0.27509288391E+03  0.26311924032E+03 0.  0.
         25    1    3    3    0    0  0.20099068505E+02  0.53629463284E+02  0.19462502641E+03  0.23834114394E+03  0.12509000000E+03 0.  0.
         25    1    4    4    0    0  0.14726779992E+02 -0.48151995591E+02  0.53589191289E+02  0.14510272999E+03  0.12509000000E+03 0.  0.
         25    1    4    4    0    0 -0.34825848497E+02 -0.54774676932E+01  0.26626376777E+01  0.12999015392E+03  0.12509000000E+03 0.  0.
<mgrwt>
<rscale>  2 0.44796797E+03</rscale>
<asrwt>0</asrwt>
<pdfrwt beam="1">  1       21 0.56199329E-01 0.44796797E+03</pdfrwt>
<pdfrwt beam="2">  1       21 0.19305675E-01 0.44796797E+03</pdfrwt>
<totfact> 0.68055430E+04</totfact>
</mgrwt>
</event>
<event>
 7    0  0.4766352E-002  0.4554769E+03  0.7546771E-02  0.1026101E+00
         21   -1    0    0  502  501  0.00000000000E+00  0.00000000000E+00  0.60422807950E+03  0.60422807950E+03  0.00000000000E+00 0. -1.
         21   -1    0    0  501  502 -0.00000000000E+00 -0.00000000000E+00 -0.85836464746E+02  0.85836464746E+02  0.00000000000E+00 0. -1.
      99926    2    1    2    0    0  0.00000000000E+00  0.14210854715E-13  0.51839161475E+03  0.69006454424E+03  0.45547690279E+03 0.  0.
      99925    2    3    3    0    0 -0.44119040809E+02  0.97205367898E+02  0.26639888061E+03  0.38916054050E+03  0.26283490898E+03 0.  0.
         25    1    3    3    0    0  0.44119040809E+02 -0.97205367898E+02  0.25199273414E+03  0.30090400374E+03  0.12509000000E+03 0.  0.
         25    1    4    4    0    0 -0.58831228184E+02  0.66738738110E+02  0.13180544436E+03  0.20232487696E+03  0.12509000000E+03 0.  0.
         25    1    4    4    0    0  0.14712187375E+02  0.30466629788E+02  0.13459343624E+03  0.18683566353E+03  0.12509000000E+03 0.  0.
<mgrwt>
<rscale>  2 0.45547690E+03</rscale>
<asrwt>0</asrwt>
<pdfrwt beam="1">  1       21 0.88857069E-01 0.45547690E+03</pdfrwt>
<pdfrwt beam="2">  1       21 0.12623010E-01 0.45547690E+03</pdfrwt>
<totfact> 0.53245644E+04</totfact>
</mgrwt>
</event>
<event>
 7    0  0.4766352E-002  0.4599044E+03  0.7546771E-02  0.1024809E+00
         21   -1    0    0  502  501  0.00000000000E+00  0.00000000000E+00  0.97469458423E+03  0.97469458423E+03  0.00000000000E+00 0. -1.
         21   -1    0    0  501  502 -0.00000000000E+00 -0.00000000000E+00 -0.54250846896E+02  0.54250846896E+02  0.00000000000E+00 0. -1.
      99926    2    1    2    0    0  0.00000000000E+00  0.14210854715E-13  0.92044373734E+03  0.10289454311E+04  0.45990436684E+03 0.  0.
      99925    2    3    3    0    0 -0.32345499850E+02  0.96409849415E+02  0.44798956103E+03  0.52974452244E+03  0.26380584118E+03 0.  0.
         25    1    4    4    0    0 -0.26386596303E+02  0.90244885376E+02  0.22807308417E+03  0.27659579105E+03  0.12509000000E+03 0.  0.
         25    1    3    3    0    0  0.32345499850E+02 -0.96409849415E+02  0.47245417631E+03  0.49920090869E+03  0.12509000000E+03 0.  0.
         25    1    4    4    0    0 -0.59589035471E+01  0.61649640386E+01  0.21991647686E+03  0.25314873139E+03  0.12509000000E+03 0.  0.
<mgrwt>
<rscale>  2 0.45990437E+03</rscale>
<asrwt>0</asrwt>
<pdfrwt beam="1">  1       21 0.14333743E+00 0.45990437E+03</pdfrwt>
<pdfrwt beam="2">  1       21 0.79780663E-02 0.45990437E+03</pdfrwt>
<totfact> 0.36636566E+04</totfact>
</mgrwt>
</event>
<event>
 7    0  0.4766352E-002  0.4479102E+03  0.7546771E-02  0.1028347E+00
         21   -1    0    0  502  501  0.00000000000E+00  0.00000000000E+00  0.21164297448E+03  0.21164297448E+03  0.00000000000E+00 0. -1.
         21   -1    0    0  501  502 -0.00000000000E+00 -0.00000000000E+00 -0.23698351821E+03  0.23698351821E+03  0.00000000000E+00 0. -1.
      99926    2    1    2    0    0  0.71054273576E-14  0.00000000000E+00 -0.25340543737E+02  0.44862649269E+03  0.44791024412E+03 0.  0.
      99925    2    3    3    0    0 -0.47521453253E+02 -0.13322485684E+01  0.79222912538E+02  0.27879985199E+03  0.26304566940E+03 0.  0.
         25    1    3    3    0    0  0.47521453253E+02  0.13322485684E+01 -0.10456345628E+03  0.16982664071E+03  0.12509000000E+03 0.  0.
         25    1    4    4    0    0  0.16999061460E+02 -0.33598966547E+00  0.30719299959E+02  0.12992407194E+03  0.12509000000E+03 0.  0.
         25    1    4    4    0    0 -0.64520514714E+02 -0.99625890288E+00  0.48503612580E+02  0.14887578004E+03  0.12509000000E+03 0.  0.
<mgrwt>
<rscale>  2 0.44791024E+03</rscale>
<asrwt>0</asrwt>
<pdfrwt beam="1">  1       21 0.31123967E-01 0.44791024E+03</pdfrwt>
<pdfrwt beam="2">  1       21 0.34850517E-01 0.44791024E+03</pdfrwt>
<totfact> 0.73061584E+04</totfact>
</mgrwt>
</event>
<event>
 7    0  0.4766352E-002  0.4536197E+03  0.7546771E-02  0.1026648E+00
         21   -1    0    0  502  501  0.00000000000E+00  0.00000000000E+00  0.36646188717E+03  0.36646188717E+03  0.00000000000E+00 0.  1.
         21   -1    0    0  501  502 -0.00000000000E+00 -0.00000000000E+00 -0.14037666707E+03  0.14037666707E+03  0.00000000000E+00 0.  1.
      99926    2    1    2    0    0  0.00000000000E+00  0.00000000000E+00  0.22608522010E+03  0.50683855425E+03  0.45361965712E+03 0.  0.
      99925    2    3    3    0    0 -0.59006417850E+02  0.84631973521E+02  0.19075526593E+03  0.34088662732E+03  0.26300530967E+03 0.  0.
         25    1    3    3    0    0  0.59006417850E+02 -0.84631973521E+02  0.35329954164E+02  0.16595192693E+03  0.12509000000E+03 0.  0.
         25    1    4    4    0    0 -0.17660507081E+02  0.10984447326E+02  0.56274377149E+02  0.13873307182E+03  0.12509000000E+03 0.  0.
         25    1    4    4    0    0 -0.41345910769E+02  0.73647526195E+02  0.13448088878E+03  0.20215355550E+03  0.12509000000E+03 0.  0.
<mgrwt>
<rscale>  2 0.45361966E+03</rscale>
<asrwt>0</asrwt>
<pdfrwt beam="1">  1       21 0.53891454E-01 0.45361966E+03</pdfrwt>
<pdfrwt beam="2">  1       21 0.20643628E-01 0.45361966E+03</pdfrwt>
<totfact> 0.65507585E+04</totfact>
</mgrwt>
</event>
<event>
 7    0  0.4766352E-002  0.4546621E+03  0.7546771E-02  0.1026341E+00
         21   -1    0    0  502  501  0.00000000000E+00  0.00000000000E+00  0.52475038127E+03  0.52475038127E+03  0.00000000000E+00 0.  1.
         21   -1    0    0  501  502 -0.00000000000E+00 -0.00000000000E+00 -0.98483789934E+02  0.98483789934E+02  0.00000000000E+00 0.  1.
      99926    2    1    2    0    0  0.14210854715E-13  0.00000000000E+00  0.42626659134E+03  0.62323417121E+03  0.45466210010E+03 0.  0.
      99925    2    3    3    0    0 -0.82969164120E+02 -0.12710722915E+02  0.16484279059E+03  0.32151351171E+03  0.26296834016E+03 0.  0.
         25    1    4    4    0    0 -0.20619382108E+01  0.70541161692E+01  0.65802581454E+02  0.14153268163E+03  0.12509000000E+03 0.  0.
         25    1    4    4    0    0 -0.80907225909E+02 -0.19764839084E+02  0.99040209141E+02  0.17998083008E+03  0.12509000000E+03 0.  0.
         25    1    3    3    0    0  0.82969164120E+02  0.12710722915E+02  0.26142380074E+03  0.30172065950E+03  0.12509000000E+03 0.  0.
<mgrwt>
<rscale>  2 0.45466210E+03</rscale>
<asrwt>0</asrwt>
<pdfrwt beam="1">  1       21 0.77169173E-01 0.45466210E+03</pdfrwt>
<pdfrwt beam="2">  1       21 0.14482910E-01 0.45466210E+03</pdfrwt>
<totfact> 0.57423510E+04</totfact>
</mgrwt>
</event>
<event>
 7    0  0.4766352E-002  0.4535634E+03  0.7546771E-02  0.1026665E+00
         21   -1    0    0  502  501  0.00000000000E+00  0.00000000000E+00  0.69152545654E+02  0.69152545654E+02  0.00000000000E+00 0. -1.
         21   -1    0    0  501  502 -0.00000000000E+00 -0.00000000000E+00 -0.74371733682E+03  0.74371733682E+03  0.00000000000E+00 0. -1.
      99926    2    1    2    0    0  0.22204460493E-15  0.00000000000E+00 -0.67456479117E+03  0.81286988248E+03  0.45356343366E+03 0.  0.
      99925    2    3    3    0    0  0.16696184748E+01 -0.77010974606E+02 -0.28022347459E+03  0.39205393708E+03  0.26314941770E+03 0.  0.
         25    1    4    4    0    0  0.84215391081E+01 -0.14585930699E+02 -0.18026551935E+03  0.22006098533E+03  0.12509000000E+03 0.  0.
         25    1    3    3    0    0 -0.16696184748E+01  0.77010974606E+02 -0.39434131658E+03  0.42081594540E+03  0.12509000000E+03 0.  0.
         25    1    4    4    0    0 -0.67519206333E+01 -0.62425043907E+02 -0.99957955234E+02  0.17199295176E+03  0.12509000000E+03 0.  0.
<mgrwt>
<rscale>  2 0.45356343E+03</rscale>
<asrwt>0</asrwt>
<pdfrwt beam="1">  1       21 0.10169492E-01 0.45356343E+03</pdfrwt>
<pdfrwt beam="2">  1       21 0.10937020E+00 0.45356343E+03</pdfrwt>
<totfact> 0.47683867E+04</totfact>
</mgrwt>
</event>
<event>
 7    0  0.4766352E-002  0.4523042E+03  0.7546771E-02  0.1027037E+00
         21   -1    0    0  502  501  0.00000000000E+00  0.00000000000E+00  0.12753158074E+04  0.12753158074E+04  0.00000000000E+00 0. -1.
         21   -1    0    0  501  502 -0.00000000000E+00 -0.00000000000E+00 -0.40103618335E+02  0.40103618335E+02  0.00000000000E+00 0. -1.
      99926    2    1    2    0    0 -0.71054273576E-14  0.00000000000E+00  0.12352121891E+04  0.13154194257E+04  0.45230422681E+03 0.  0.
      99925    2    3    3    0    0  0.63766344234E+02  0.15099915344E+02  0.10383511069E+04  0.10731469596E+04  0.26301562973E+03 0.  0.
         25    1    4    4    0    0  0.27059538527E+02  0.56867006788E+01  0.67386123079E+03  0.68593077177E+03  0.12509000000E+03 0.  0.
         25    1    4    4    0    0  0.36706805707E+02  0.94132146654E+01  0.36448987615E+03  0.38721618782E+03  0.12509000000E+03 0.  0.
         25    1    3    3    0    0 -0.63766344234E+02 -0.15099915344E+02  0.19686108214E+03  0.24227246616E+03  0.12509000000E+03 0.  0.
<mgrwt>
<rscale>  2 0.45230423E+03</rscale>
<asrwt>0</asrwt>
<pdfrwt beam="1">  1       21 0.18754642E+00 0.45230423E+03</pdfrwt>
<pdfrwt beam="2">  1       21 0.58975918E-02 0.45230423E+03</pdfrwt>
<totfact> 0.29279140E+04</totfact>
</mgrwt>
</event>
<event>
 7    0  0.4766352E-002  0.4546391E+03  0.7546771E-02  0.1026348E+00
         21   -1    0    0  502  501  0.00000000000E+00  0.00000000000E+00  0.96386660463E+02  0.96386660463E+02  0.00000000000E+00 0. -1.
         21   -1    0    0  501  502 -0.00000000000E+00 -0.00000000000E+00 -0.53611339786E+03  0.53611339786E+03  0.00000000000E+00 0. -1.
      99926    2    1    2    0    0  0.00000000000E+00  0.71054273576E-14 -0.43972673739E+03  0.63250005832E+03  0.45463910984E+03 0.  0.
      99925    2    3    3    0    0  0.70669385575E+02  0.55686454295E+02 -0.18198054378E+03  0.33220728173E+03  0.26296314660E+03 0.  0.
         25    1    4    4    0    0  0.51668484107E+02 -0.91807806772E+01 -0.93159864576E+02  0.16456058900E+03  0.12509000000E+03 0.  0.
         25    1    3    3    0    0 -0.70669385575E+02 -0.55686454295E+02 -0.25774619362E+03  0.30029277659E+03  0.12509000000E+03 0.  0.
         25    1    4    4    0    0  0.19000901468E+02  0.64867234972E+02 -0.88820679202E+02  0.16764669273E+03  0.12509000000E+03 0.  0.
<mgrwt>
<rscale>  2 0.45463911E+03</rscale>
<asrwt>0</asrwt>
<pdfrwt beam="1">  1       21 0.14174509E-01 0.45463911E+03</pdfrwt>
<pdfrwt beam="2">  1       21 0.78840205E-01 0.45463911E+03</pdfrwt>
<totfact> 0.56882963E+04</totfact>
</mgrwt>
</event>
<event>
 7    0  0.4766352E-002  0.4560324E+03  0.7546771E-02  0.1025938E+00
         21   -1    0    0  502  501  0.00000000000E+00  0.00000000000E+00  0.17012512048E+03  0.17012512048E+03  0.00000000000E+00 0. -1.
         21   -1    0    0  501  502 -0.00000000000E+00 -0.00000000000E+00 -0.30560682968E+03  0.30560682968E+03  0.00000000000E+00 0. -1.
      99926    2    1    2    0    0  0.00000000000E+00 -0.71054273576E-14 -0.13548170920E+03  0.47573195015E+03  0.45603244936E+03 0.  0.
      99925    2    3    3    0    0  0.87853969627E+02 -0.62020528298E+02 -0.45101719221E+02  0.28763379334E+03  0.26293377129E+03 0.  0.
         25    1    4    4    0    0  0.11051630678E+02 -0.15317349639E+02  0.21061802307E+01  0.12652550666E+03  0.12509000000E+03 0.  0.
         25    1    3    3    0    0 -0.87853969627E+02  0.62020528298E+02 -0.90379989980E+02  0.18809815682E+03  0.12509000000E+03 0.  0.
         25    1    4    4    0    0  0.76802338949E+02 -0.46703178658E+02 -0.47207899452E+02  0.16110828668E+03  0.12509000000E+03 0.  0.
<mgrwt>
<rscale>  2 0.45603245E+03</rscale>
<asrwt>0</asrwt>
<pdfrwt beam="1">  1       21 0.25018400E-01 0.45603245E+03</pdfrwt>
<pdfrwt beam="2">  1       21 0.44942181E-01 0.45603245E+03</pdfrwt>
<totfact> 0.66465872E+04</totfact>
</mgrwt>
</event>
<event>
 7    0  0.4766352E-002  0.4564002E+03  0.7546771E-02  0.1025830E+00
         21   -1    0    0  502  501  0.00000000000E+00  0.00000000000E+00  0.95378267261E+02  0.95378267261E+02  0.00000000000E+00 0. -1.
         21   -1    0    0  501  502 -0.00000000000E+00 -0.00000000000E+00 -0.54598685161E+03  0.54598685161E+03  0.00000000000E+00 0. -1.
      99926    2    1    2    0    0  0.00000000000E+00 -0.14210854715E-13 -0.45060858435E+03  0.64136511887E+03  0.45640017464E+03 0.  0.
      99925    2    3    3    0    0 -0.46361530482E+02  0.95936012907E+02 -0.22443183402E+03  0.36180020589E+03  0.26301450678E+03 0.  0.
         25    1    4    4    0    0 -0.48843195637E+02  0.53419099090E+02 -0.76776851510E+02  0.16365039241E+03  0.12509000000E+03 0.  0.
         25    1    3    3    0    0  0.46361530482E+02 -0.95936012907E+02 -0.22617675033E+03  0.27956491298E+03  0.12509000000E+03 0.  0.
         25    1    4    4    0    0  0.24816651555E+01  0.42516913817E+02 -0.14765498251E+03  0.19814981348E+03  0.12509000000E+03 0.  0.
<mgrwt>
<rscale>  2 0.45640017E+03</rscale>
<asrwt>0</asrwt>
<pdfrwt beam="1">  1       21 0.14026216E-01 0.45640017E+03</pdfrwt>
<pdfrwt beam="2">  1       21 0.80292182E-01 0.45640017E+03</pdfrwt>
<totfact> 0.55584986E+04</totfact>
</mgrwt>
</event>
<event>
 7    0  0.4766352E-002  0.4481874E+03  0.7546771E-02  0.1028264E+00
         21   -1    0    0  502  501  0.00000000000E+00  0.00000000000E+00  0.11887905939E+03  0.11887905939E+03  0.00000000000E+00 0.  1.
         21   -1    0    0  501  502 -0.00000000000E+00 -0.00000000000E+00 -0.42242916756E+03  0.42242916756E+03  0.00000000000E+00 0.  1.
      99926    2    1    2    0    0  0.00000000000E+00  0.00000000000E+00 -0.30355010816E+03  0.54130822695E+03  0.44818738090E+03 0.  0.
      99925    2    3    3    0    0 -0.70286668378E+02 -0.33313018213E+02 -0.28034678130E+03  0.39219124129E+03  0.26300129092E+03 0.  0.
         25    1    3    3    0    0  0.70286668378E+02  0.33313018213E+02 -0.23203326861E+02  0.14911698566E+03  0.12509000000E+03 0.  0.
         25    1    4    4    0    0 -0.12618692147E+02 -0.19514830983E+02 -0.85948927217E+02  0.15354082913E+03  0.12509000000E+03 0.  0.
         25    1    4    4    0    0 -0.57667976231E+02 -0.13798187230E+02 -0.19439785408E+03  0.23865041216E+03  0.12509000000E+03 0.  0.
<mgrwt>
<rscale>  2 0.44818738E+03</rscale>
<asrwt>0</asrwt>
<pdfrwt beam="1">  1       21 0.17482215E-01 0.44818738E+03</pdfrwt>
<pdfrwt beam="2">  1       21 0.62121936E-01 0.44818738E+03</pdfrwt>
<totfact> 0.65927602E+04</totfact>
</mgrwt>
</event>
<event>
 7    0  0.4766352E-002  0.4565379E+03  0.7546771E-02  0.1025790E+00
         21   -1    0    0  502  501  0.00000000000E+00  0.00000000000E+00  0.62887098947E+03  0.62887098947E+03  0.00000000000E+00 0.  1.
         21   -1    0    0  501  502 -0.00000000000E+00 -0.00000000000E+00 -0.82857570159E+02  0.82857570159E+02  0.00000000000E+00 0.  1.
      99926    2    1    2    0    0  0.00000000000E+00  0.17763568394E-14  0.54601341931E+03  0.71172855963E+03  0.45653793766E+03 0.  0.
      99925    2    3    3    0    0 -0.18355346635E+02  0.98428910148E+01  0.16954114161E+03  0.31447211194E+03  0.26403543178E+03 0.  0.
         25    1    3    3    0    0  0.18355346635E+02 -0.98428910148E+01  0.37647227770E+03  0.39725644769E+03  0.12509000000E+03 0.  0.
         25    1    4    4    0    0  0.27675156917E+02  0.53492008959E+01  0.10774680446E+03  0.16748555231E+03  0.12509000000E+03 0.  0.
         25    1    4    4    0    0 -0.46030503552E+02  0.44936901189E+01  0.61794337149E+02  0.14698655963E+03  0.12509000000E+03 0.  0.
<mgrwt>
<rscale>  2 0.45653794E+03</rscale>
<asrwt>0</asrwt>
<pdfrwt beam="1">  1       21 0.92481025E-01 0.45653794E+03</pdfrwt>
<pdfrwt beam="2">  1       21 0.12184937E-01 0.45653794E+03</pdfrwt>
<totfact> 0.51643115E+04</totfact>
</mgrwt>
</event>
<event>
 7    0  0.4766352E-002  0.4692483E+03  0.7546771E-02  0.1022133E+00
         21   -1    0    0  502  501  0.00000000000E+00  0.00000000000E+00  0.42974238932E+03  0.42974238932E+03  0.00000000000E+00 0.  1.
         21   -1    0    0  501  502 -0.00000000000E+00 -0.00000000000E+00 -0.12809649117E+03  0.12809649117E+03  0.00000000000E+00 0.  1.
      99926    2    1    2    0    0  0.00000000000E+00  0.22204460493E-15  0.30164589815E+03  0.55783888049E+03  0.46924830177E+03 0.  0.
      99925    2    3    3    0    0 -0.93666254483E+02  0.17360015929E+01  0.28781226175E+03  0.40094637421E+03  0.26295573021E+03 0.  0.
         25    1    4    4    0    0 -0.82987669012E+02  0.44377098101E+01  0.18746806727E+03  0.24020497668E+03  0.12509000000E+03 0.  0.
         25    1    4    4    0    0 -0.10678585471E+02 -0.27017082172E+01  0.10034419448E+03  0.16074139753E+03  0.12509000000E+03 0.  0.
         25    1    3    3    0    0  0.93666254483E+02 -0.17360015929E+01  0.13833636407E+02  0.15689250628E+03  0.12509000000E+03 0.  0.
<mgrwt>
<rscale>  2 0.46924830E+03</rscale>
<asrwt>0</asrwt>
<pdfrwt beam="1">  1       21 0.63197410E-01 0.46924830E+03</pdfrwt>
<pdfrwt beam="2">  1       21 0.18837719E-01 0.46924830E+03</pdfrwt>
<totfact> 0.54896710E+04</totfact>
</mgrwt>
</event>
<event>
 7    0  0.4766352E-002  0.4450254E+03  0.7546771E-02  0.1029216E+00
         21   -1    0    0  502  501  0.00000000000E+00  0.00000000000E+00  0.68746912251E+02  0.68746912251E+02  0.00000000000E+00 0. -1.
         21   -1    0    0  501  502 -0.00000000000E+00 -0.00000000000E+00 -0.72020544161E+03  0.72020544161E+03  0.00000000000E+00 0. -1.
      99926    2    1    2    0    0  0.00000000000E+00  0.00000000000E+00 -0.65145852936E+03  0.78895235386E+03  0.44502539387E+03 0.  0.
      99925    2    3    3    0    0  0.36970450186E+02  0.25870857822E+02 -0.57896170731E+03  0.63749472685E+03  0.26299572765E+03 0.  0.
         25    1    4    4    0    0  0.50346663985E+02 -0.54921183369E+01 -0.25405440715E+03  0.28767359947E+03  0.12509000000E+03 0.  0.
         25    1    3    3    0    0 -0.36970450186E+02 -0.25870857822E+02 -0.72496822049E+02  0.15145762701E+03  0.12509000000E+03 0.  0.
         25    1    4    4    0    0 -0.13376213799E+02  0.31362976159E+02 -0.32490730016E+03  0.34982112739E+03  0.12509000000E+03 0.  0.
<mgrwt>
<rscale>  2 0.44502539E+03</rscale>
<asrwt>0</asrwt>
<pdfrwt beam="1">  1       21 0.10109840E-01 0.44502539E+03</pdfrwt>
<pdfrwt beam="2">  1       21 0.10591257E+00 0.44502539E+03</pdfrwt>
<totfact> 0.52277936E+04</totfact>
</mgrwt>
</event>
<event>
 7    0  0.4766352E-002  0.4522728E+03  0.7546771E-02  0.1027046E+00
         21   -1    0    0  502  501  0.00000000000E+00  0.00000000000E+00  0.73381028488E+03  0.73381028488E+03  0.00000000000E+00 0.  1.
         21   -1    0    0  501  502 -0.00000000000E+00 -0.00000000000E+00 -0.69687871840E+02  0.69687871840E+02  0.00000000000E+00 0.  1.
      99926    2    1    2    0    0  0.00000000000E+00  0.00000000000E+00  0.66412241304E+03  0.80349815672E+03  0.45227282513E+03 0.  0.
      99925    2    3    3    0    0  0.25113996465E+02  0.10481002833E+03  0.46271744180E+03  0.54306135940E+03  0.26304439601E+03 0.  0.
         25    1    3    3    0    0 -0.25113996465E+02 -0.10481002833E+03  0.20140497123E+03  0.26043679731E+03  0.12509000000E+03 0.  0.
         25    1    4    4    0    0  0.49902646142E+01  0.71040821111E+02  0.17298676586E+03  0.22504139678E+03  0.12509000000E+03 0.  0.
         25    1    4    4    0    0  0.20123731850E+02  0.33769207223E+02  0.28973067595E+03  0.31801996262E+03  0.12509000000E+03 0.  0.
<mgrwt>
<rscale>  2 0.45227283E+03</rscale>
<asrwt>0</asrwt>
<pdfrwt beam="1">  1       21 0.10791327E+00 0.45227283E+03</pdfrwt>
<pdfrwt beam="2">  1       21 0.10248217E-01 0.45227283E+03</pdfrwt>
<totfact> 0.48628486E+04</totfact>
</mgrwt>
</event>
<event>
 7    0  0.4766352E-002  0.5117285E+03  0.7546771E-02  0.1010762E+00
         21   -1    0    0  502  501  0.00000000000E+00  0.00000000000E+00  0.22133784779E+03  0.22133784779E+03  0.00000000000E+00 0. -1.
         21   -1    0    0  501  502 -0.00000000000E+00 -0.00000000000E+00 -0.29577636617E+03  0.29577636617E+03  0.00000000000E+00 0. -1.
      99926    2    1    2    0    0 -0.71054273576E-14  0.00000000000E+00 -0.74438518387E+02  0.51711421396E+03  0.51172846048E+03 0.  0.
      99925    2    3    3    0    0  0.47677565005E+02  0.12030313357E+03 -0.14067762196E+03  0.32533016590E+03  0.26325563502E+03 0.  0.
         25    1    3    3    0    0 -0.47677565005E+02 -0.12030313357E+03  0.66239103570E+02  0.19178404807E+03  0.12509000000E+03 0.  0.
         25    1    4    4    0    0 -0.12598558212E+02  0.69417096783E+02 -0.87522519334E+02  0.16818191486E+03  0.12509000000E+03 0.  0.
         25    1    4    4    0    0  0.60276123217E+02  0.50886036784E+02 -0.53155102624E+02  0.15714825104E+03  0.12509000000E+03 0.  0.
<mgrwt>
<rscale>  2 0.51172846E+03</rscale>
<asrwt>0</asrwt>
<pdfrwt beam="1">  1       21 0.32549684E-01 0.51172846E+03</pdfrwt>
<pdfrwt beam="2">  1       21 0.43496524E-01 0.51172846E+03</pdfrwt>
<totfact> 0.41821222E+04</totfact>
</mgrwt>
</event>
<event>
 7    0  0.4766352E-002  0.4561761E+03  0.7546771E-02  0.1025896E+00
         21   -1    0    0  502  501  0.00000000000E+00  0.00000000000E+00  0.17644810266E+03  0.17644810266E+03  0.00000000000E+00 0.  1.
         21   -1    0    0  501  502 -0.00000000000E+00 -0.00000000000E+00 -0.29484119180E+03  0.29484119180E+03  0.00000000000E+00 0.  1.
      99926    2    1    2    0    0 -0.35527136788E-14  0.00000000000E+00 -0.11839308914E+03  0.47128929445E+03  0.45617614527E+03 0.  0.
      99925    2    3    3    0    0  0.21860263180E+02  0.84705106135E+01 -0.18977954384E+03  0.32536755285E+03  0.26324541503E+03 0.  0.
         25    1    4    4    0    0  0.38513572698E+01 -0.17264868874E+02 -0.51930788235E+02  0.13659144745E+03  0.12509000000E+03 0.  0.
         25    1    4    4    0    0  0.18008905911E+02  0.25735379487E+02 -0.13784875560E+03  0.18877610540E+03  0.12509000000E+03 0.  0.
         25    1    3    3    0    0 -0.21860263180E+02 -0.84705106135E+01  0.71386454704E+02  0.14592174160E+03  0.12509000000E+03 0.  0.
<mgrwt>
<rscale>  2 0.45617615E+03</rscale>
<asrwt>0</asrwt>
<pdfrwt beam="1">  1       21 0.25948251E-01 0.45617615E+03</pdfrwt>
<pdfrwt beam="2">  1       21 0.43358998E-01 0.45617615E+03</pdfrwt>
<totfact> 0.66715274E+04</totfact>
</mgrwt>
</event>
<event>
 7    0  0.4766352E-002  0.4557117E+03  0.7546771E-02  0.1026032E+00
         21   -1    0    0  502  501  0.00000000000E+00  0.00000000000E+00  0.19573219150E+04  0.19573219150E+04  0.00000000000E+00 0.  1.
         21   -1    0    0  501  502 -0.00000000000E+00 -0.00000000000E+00 -0.26525170408E+02  0.26525170408E+02  0.00000000000E+00 0.  1.
      99926    2    1    2    0    0  0.00000000000E+00  0.00000000000E+00  0.19307967446E+04  0.19838470854E+04  0.45571173932E+03 0.  0.
      99925    2    3    3    0    0  0.32979574705E+02  0.94404505726E+02  0.14511657116E+04  0.14781858362E+04  0.26296688147E+03 0.  0.
         25    1    4    4    0    0  0.46826490524E+01  0.21579499633E+02  0.51265706881E+03  0.52815942698E+03  0.12509000000E+03 0.  0.
         25    1    3    3    0    0 -0.32979574705E+02 -0.94404505726E+02  0.47963103304E+03  0.50566124926E+03  0.12509000000E+03 0.  0.
         25    1    4    4    0    0  0.28296925652E+02  0.72825006093E+02  0.93850864278E+03  0.95002640920E+03  0.12509000000E+03 0.  0.
<mgrwt>
<rscale>  2 0.45571174E+03</rscale>
<asrwt>0</asrwt>
<pdfrwt beam="1">  1       21 0.28784136E+00 0.45571174E+03</pdfrwt>
<pdfrwt beam="2">  1       21 0.39007617E-02 0.45571174E+03</pdfrwt>
<totfact> 0.13898341E+04</totfact>
</mgrwt>
</event>
<event>
 7    0  0.4766352E-002  0.4543199E+03  0.7546771E-02  0.1026442E+00
         21   -1    0    0  502  501  0.00000000000E+00  0.00000000000E+00  0.68632035075E+03  0.68632035075E+03  0.00000000000E+00 0.  1.
         21   -1    0    0  501  502 -0.00000000000E+00 -0.00000000000E+00 -0.75185934305E+02  0.75185934305E+02  0.00000000000E+00 0.  1.
      99926    2    1    2    0    0  0.00000000000E+00  0.00000000000E+00  0.61113441645E+03  0.76150628506E+03  0.45431987323E+03 0.  0.
      99925    2    3    3    0    0  0.65074462000E+02 -0.83701745342E+02  0.32199167314E+03  0.42910336407E+03  0.26307867968E+03 0.  0.
         25    1    4    4    0    0  0.44539576848E+02 -0.10588563442E+02  0.11735353739E+03  0.17752535712E+03  0.12509000000E+03 0.  0.
         25    1    3    3    0    0 -0.65074462000E+02  0.83701745342E+02  0.28914274331E+03  0.33240292099E+03  0.12509000000E+03 0.  0.
         25    1    4    4    0    0  0.20534885153E+02 -0.73113181900E+02  0.20463813575E+03  0.25157800695E+03  0.12509000000E+03 0.  0.
<mgrwt>
<rscale>  2 0.45431987E+03</rscale>
<asrwt>0</asrwt>
<pdfrwt beam="1">  1       21 0.10092946E+00 0.45431987E+03</pdfrwt>
<pdfrwt beam="2">  1       21 0.11056755E-01 0.45431987E+03</pdfrwt>
<totfact> 0.49948878E+04</totfact>
</mgrwt>
</event>
<event>
 7    0  0.4766352E-002  0.4606003E+03  0.7546771E-02  0.1024607E+00
         21   -1    0    0  502  501  0.00000000000E+00  0.00000000000E+00  0.13133127001E+03  0.13133127001E+03  0.00000000000E+00 0. -1.
         21   -1    0    0  501  502 -0.00000000000E+00 -0.00000000000E+00 -0.40385013227E+03  0.40385013227E+03  0.00000000000E+00 0. -1.
      99926    2    1    2    0    0 -0.14210854715E-13  0.00000000000E+00 -0.27251886226E+03  0.53518140227E+03  0.46060026384E+03 0.  0.
      99925    2    3    3    0    0  0.84172750366E+02 -0.81954764646E+02 -0.15484505616E+03  0.32710384920E+03  0.26309371218E+03 0.  0.
         25    1    4    4    0    0  0.25996874249E+02 -0.36011427170E+02 -0.31494968443E+02  0.13642617599E+03  0.12509000000E+03 0.  0.
         25    1    4    4    0    0  0.58175876117E+02 -0.45943337476E+02 -0.12335008772E+03  0.19067767321E+03  0.12509000000E+03 0.  0.
         25    1    3    3    0    0 -0.84172750366E+02  0.81954764646E+02 -0.11767380610E+03  0.20807755308E+03  0.12509000000E+03 0.  0.
<mgrwt>
<rscale>  2 0.46060026E+03</rscale>
<asrwt>0</asrwt>
<pdfrwt beam="1">  1       21 0.19313422E-01 0.46060026E+03</pdfrwt>
<pdfrwt beam="2">  1       21 0.59389725E-01 0.46060026E+03</pdfrwt>
<totfact> 0.60142980E+04</totfact>
</mgrwt>
</event>
<event>
 7    0  0.4766352E-002  0.4516546E+03  0.7546771E-02  0.1027230E+00
         21   -1    0    0  502  501  0.00000000000E+00  0.00000000000E+00  0.27242935301E+03  0.27242935301E+03  0.00000000000E+00 0. -1.
         21   -1    0    0  501  502 -0.00000000000E+00 -0.00000000000E+00 -0.18719704070E+03  0.18719704070E+03  0.00000000000E+00 0. -1.
      99926    2    1    2    0    0 -0.66613381478E-15  0.14210854715E-13  0.85232312313E+02  0.45962639372E+03  0.45165459672E+03 0.  0.
      99925    2    3    3    0    0  0.47251201760E+00 -0.10976645257E+03  0.48271648428E+02  0.28914913379E+03  0.26311247054E+03 0.  0.
         25    1    4    4    0    0 -0.37003251503E+02 -0.53011525695E+02  0.73420328924E+01  0.14099956037E+03  0.12509000000E+03 0.  0.
         25    1    3    3    0    0 -0.47251201760E+00  0.10976645257E+03  0.36960663885E+02  0.17047725993E+03  0.12509000000E+03 0.  0.
         25    1    4    4    0    0  0.37475763521E+02 -0.56754926873E+02  0.40929615536E+02  0.14814957342E+03  0.12509000000E+03 0.  0.
<mgrwt>
<rscale>  2 0.45165460E+03</rscale>
<asrwt>0</asrwt>
<pdfrwt beam="1">  1       21 0.40063141E-01 0.45165460E+03</pdfrwt>
<pdfrwt beam="2">  1       21 0.27528976E-01 0.45165460E+03</pdfrwt>
<totfact> 0.70055502E+04</totfact>
</mgrwt>
</event>
<event>
 7    0  0.4766352E-002  0.4566857E+03  0.7546771E-02  0.1025747E+00
         21   -1    0    0  502  501  0.00000000000E+00  0.00000000000E+00  0.32629544814E+03  0.32629544814E+03  0.00000000000E+00 0.  1.
         21   -1    0    0  501  502 -0.00000000000E+00 -0.00000000000E+00 -0.15979525333E+03  0.15979525333E+03  0.00000000000E+00 0.  1.
      99926    2    1    2    0    0  0.17763568394E-14  0.14210854715E-13  0.16650019481E+03  0.48609070147E+03  0.45668572912E+03 0.  0.
      99925    2    3    3    0    0 -0.14967726612E+02  0.10444388857E+03  0.15257759944E+03  0.32185335656E+03  0.26301539989E+03 0.  0.
         25    1    4    4    0    0 -0.38361386489E+02  0.28144345146E+02  0.57752978678E+02  0.14576218571E+03  0.12509000000E+03 0.  0.
         25    1    3    3    0    0  0.14967726612E+02 -0.10444388857E+03  0.13922595371E+02  0.16423734490E+03  0.12509000000E+03 0.  0.
         25    1    4    4    0    0  0.23393659876E+02  0.76299543423E+02  0.94824620765E+02  0.17609117085E+03  0.12509000000E+03 0.  0.
<mgrwt>
<rscale>  2 0.45668573E+03</rscale>
<asrwt>0</asrwt>
<pdfrwt beam="1">  1       21 0.47984625E-01 0.45668573E+03</pdfrwt>
<pdfrwt beam="2">  1       21 0.23499302E-01 0.45668573E+03</pdfrwt>
<totfact> 0.65380045E+04</totfact>
</mgrwt>
</event>
<event>
 7    0  0.4766352E-002  0.4249974E+03  0.7546771E-02  0.1035452E+00
         21   -1    0    0  502  501  0.00000000000E+00  0.00000000000E+00  0.16979719468E+03  0.16979719468E+03  0.00000000000E+00 0. -1.
         21   -1    0    0  501  502 -0.00000000000E+00 -0.00000000000E+00 -0.26593900195E+03  0.26593900195E+03  0.00000000000E+00 0. -1.
      99926    2    1    2    0    0  0.00000000000E+00 -0.71054273576E-14 -0.96141807269E+02  0.43573619663E+03  0.42499739523E+03 0.  0.
      99925    2    3    3    0    0  0.62263775176E+02  0.52494945816E+02 -0.52833278796E+02  0.28031536864E+03  0.26296930146E+03 0.  0.
         25    1    3    3    0    0 -0.62263775176E+02 -0.52494945816E+02 -0.43308528473E+02  0.15542082799E+03  0.12509000000E+03 0.  0.
         25    1    4    4    0    0  0.23696210271E+01 -0.46386998884E+01 -0.20350180146E+02  0.12684151754E+03  0.12509000000E+03 0.  0.
         25    1    4    4    0    0  0.59894154149E+02  0.57133645704E+02 -0.32483098650E+02  0.15347385110E+03  0.12509000000E+03 0.  0.
<mgrwt>
<rscale>  2 0.42499740E+03</rscale>
<asrwt>0</asrwt>
<pdfrwt beam="1">  1       21 0.24970176E-01 0.42499740E+03</pdfrwt>
<pdfrwt beam="2">  1       21 0.39108676E-01 0.42499740E+03</pdfrwt>
<totfact> 0.89558093E+04</totfact>
</mgrwt>
</event>
<event>
 7    0  0.4766352E-002  0.4628921E+03  0.7546771E-02  0.1023946E+00
         21   -1    0    0  502  501  0.00000000000E+00  0.00000000000E+00  0.44404219801E+02  0.44404219801E+02  0.00000000000E+00 0. -1.
         21   -1    0    0  501  502 -0.00000000000E+00 -0.00000000000E+00 -0.12063554770E+04  0.12063554770E+04  0.00000000000E+00 0. -1.
      99926    2    1    2    0    0  0.00000000000E+00  0.00000000000E+00 -0.11619512572E+04  0.12507596968E+04  0.46289209870E+03 0.  0.
      99925    2    3    3    0    0 -0.87630890966E+02 -0.65611917845E+02 -0.86195408677E+03  0.90778753003E+03  0.26292442863E+03 0.  0.
         25    1    3    3    0    0  0.87630890966E+02  0.65611917845E+02 -0.29999717047E+03  0.34297216681E+03  0.12509000000E+03 0.  0.
         25    1    4    4    0    0 -0.37893834847E+02 -0.63957280332E+02 -0.36542004582E+03  0.39332657476E+03  0.12509000000E+03 0.  0.
         25    1    4    4    0    0 -0.49737056120E+02 -0.16546375130E+01 -0.49653404095E+03  0.51446095527E+03  0.12509000000E+03 0.  0.
<mgrwt>
<rscale>  2 0.46289210E+03</rscale>
<asrwt>0</asrwt>
<pdfrwt beam="1">  1       21 0.65300332E-02 0.46289210E+03</pdfrwt>
<pdfrwt beam="2">  1       21 0.17740519E+00 0.46289210E+03</pdfrwt>
<totfact> 0.28770365E+04</totfact>
</mgrwt>
</event>
<event>
 7    0  0.4766352E-002  0.4569286E+03  0.7546771E-02  0.1025676E+00
         21   -1    0    0  502  501  0.00000000000E+00  0.00000000000E+00  0.13961937027E+04  0.13961937027E+04  0.00000000000E+00 0.  1.
         21   -1    0    0  501  502 -0.00000000000E+00 -0.00000000000E+00 -0.37384447306E+02  0.37384447306E+02  0.00000000000E+00 0.  1.
      99926    2    1    2    0    0  0.00000000000E+00 -0.71054273576E-14  0.13588092554E+04  0.14335781501E+04  0.45692857170E+03 0.  0.
      99925    2    3    3    0    0  0.16646433887E+02  0.36723007501E+02  0.51566607142E+03  0.58025311239E+03  0.26297622361E+03 0.  0.
         25    1    3    3    0    0 -0.16646433887E+02 -0.36723007501E+02  0.84314318402E+03  0.85332503766E+03  0.12509000000E+03 0.  0.
         25    1    4    4    0    0 -0.94039309720E+01  0.54486637631E+02  0.27868086717E+03  0.31043157285E+03  0.12509000000E+03 0.  0.
         25    1    4    4    0    0  0.26050364859E+02 -0.17763630130E+02  0.23698520426E+03  0.26982153954E+03  0.12509000000E+03 0.  0.
<mgrwt>
<rscale>  2 0.45692857E+03</rscale>
<asrwt>0</asrwt>
<pdfrwt beam="1">  1       21 0.20532257E+00 0.45692857E+03</pdfrwt>
<pdfrwt beam="2">  1       21 0.54977138E-02 0.45692857E+03</pdfrwt>
<totfact> 0.25072978E+04</totfact>
</mgrwt>
</event>
<event>
 7    0  0.4766352E-002  0.4465067E+03  0.7546771E-02  0.1028769E+00
         21   -1    0    0  502  501  0.00000000000E+00  0.00000000000E+00  0.63134043035E+02  0.63134043035E+02  0.00000000000E+00 0.  1.
         21   -1    0    0  501  502 -0.00000000000E+00 -0.00000000000E+00 -0.78946413795E+03  0.78946413795E+03  0.00000000000E+00 0.  1.
      99926    2    1    2    0    0 -0.71054273576E-14  0.71054273576E-14 -0.72633009491E+03  0.85259818098E+03  0.44650672048E+03 0.  0.
      99925    2    3    3    0    0 -0.50809739968E+02  0.52136791299E+02 -0.31638869195E+03  0.41785764153E+03  0.26306525712E+03 0.  0.
         25    1    3    3    0    0  0.50809739968E+02 -0.52136791299E+02 -0.40994140296E+03  0.43474053946E+03  0.12509000000E+03 0.  0.
         25    1    4    4    0    0 -0.62641436613E+02  0.20817407656E+02 -0.19042245118E+03  0.23720356670E+03  0.12509000000E+03 0.  0.
         25    1    4    4    0    0  0.11831696645E+02  0.31319383643E+02 -0.12596624077E+03  0.18065407482E+03  0.12509000000E+03 0.  0.
<mgrwt>
<rscale>  2 0.44650672E+03</rscale>
<asrwt>0</asrwt>
<pdfrwt beam="1">  1       21 0.92844187E-02 0.44650672E+03</pdfrwt>
<pdfrwt beam="2">  1       21 0.11609766E+00 0.44650672E+03</pdfrwt>
<totfact> 0.48472955E+04</totfact>
</mgrwt>
</event>
<event>
 7    0  0.4766352E-002  0.4575643E+03  0.7546771E-02  0.1025490E+00
         21   -1    0    0  502  501  0.00000000000E+00  0.00000000000E+00  0.28425623095E+02  0.28425623095E+02  0.00000000000E+00 0.  1.
         21   -1    0    0  501  502 -0.00000000000E+00 -0.00000000000E+00 -0.18413412704E+04  0.18413412704E+04  0.00000000000E+00 0.  1.
      99926    2    1    2    0    0  0.00000000000E+00  0.00000000000E+00 -0.18129156473E+04  0.18697668935E+04  0.45756430342E+03 0.  0.
      99925    2    3    3    0    0  0.87824939018E+02  0.73924466368E+02 -0.11911929261E+04  0.12252789597E+04  0.26303972182E+03 0.  0.
         25    1    3    3    0    0 -0.87824939018E+02 -0.73924466368E+02 -0.62172272120E+03  0.64448793379E+03  0.12509000000E+03 0.  0.
         25    1    4    4    0    0  0.25482516890E+02  0.27090984989E+02 -0.71436684332E+03  0.72618921437E+03  0.12509000000E+03 0.  0.
         25    1    4    4    0    0  0.62342422128E+02  0.46833481379E+02 -0.47682608279E+03  0.49908974534E+03  0.12509000000E+03 0.  0.
<mgrwt>
<rscale>  2 0.45756430E+03</rscale>
<asrwt>0</asrwt>
<pdfrwt beam="1">  1       21 0.41802377E-02 0.45756430E+03</pdfrwt>
<pdfrwt beam="2">  1       21 0.27078555E+00 0.45756430E+03</pdfrwt>
<totfact> 0.15641309E+04</totfact>
</mgrwt>
</event>
<event>
 7    0  0.4766352E-002  0.4524181E+03  0.7546771E-02  0.1027003E+00
         21   -1    0    0  502  501  0.00000000000E+00  0.00000000000E+00  0.17163247090E+03  0.17163247090E+03  0.00000000000E+00 0.  1.
         21   -1    0    0  501  502 -0.00000000000E+00 -0.00000000000E+00 -0.29814016459E+03  0.29814016459E+03  0.00000000000E+00 0.  1.
      99926    2    1    2    0    0  0.00000000000E+00  0.00000000000E+00 -0.12650769369E+03  0.46977263549E+03  0.45241809479E+03 0.  0.
      99925    2    3    3    0    0  0.10067747876E+03 -0.39891706553E+02 -0.10469387690E+03  0.30288748431E+03  0.26277883726E+03 0.  0.
         25    1    4    4    0    0  0.52438369256E+02 -0.17197562112E+02 -0.98002697003E+01  0.13707330921E+03  0.12509000000E+03 0.  0.
         25    1    4    4    0    0  0.48239109501E+02 -0.22694144440E+02 -0.94893607197E+02  0.16581417510E+03  0.12509000000E+03 0.  0.
         25    1    3    3    0    0 -0.10067747876E+03  0.39891706553E+02 -0.21813816788E+02  0.16688515118E+03  0.12509000000E+03 0.  0.
<mgrwt>
<rscale>  2 0.45241809E+03</rscale>
<asrwt>0</asrwt>
<pdfrwt beam="1">  1       21 0.25240069E-01 0.45241809E+03</pdfrwt>
<pdfrwt beam="2">  1       21 0.43844141E-01 0.45241809E+03</pdfrwt>
<totfact> 0.68852222E+04</totfact>
</mgrwt>
</event>
<event>
 7    0  0.4766352E-002  0.4234848E+03  0.7546771E-02  0.1035938E+00
         21   -1    0    0  502  501  0.00000000000E+00  0.00000000000E+00  0.19632579217E+03  0.19632579217E+03  0.00000000000E+00 0.  1.
         21   -1    0    0  501  502 -0.00000000000E+00 -0.00000000000E+00 -0.22836959688E+03  0.22836959688E+03  0.00000000000E+00 0.  1.
      99926    2    1    2    0    0  0.14210854715E-13 -0.66613381478E-15 -0.32043804713E+02  0.42469538905E+03  0.42348479083E+03 0.  0.
      99925    2    3    3    0    0  0.68960386661E+02 -0.14545178711E+01  0.20076944816E+02  0.27263707398E+03  0.26300235711E+03 0.  0.
         25    1    4    4    0    0  0.60928334626E+01 -0.27804544352E+02 -0.29985413153E+01  0.12832269735E+03  0.12509000000E+03 0.  0.
         25    1    4    4    0    0  0.62867553198E+02  0.26350026481E+02  0.23075486131E+02  0.14431437663E+03  0.12509000000E+03 0.  0.
         25    1    3    3    0    0 -0.68960386661E+02  0.14545178711E+01 -0.52120749529E+02  0.15205831507E+03  0.12509000000E+03 0.  0.
<mgrwt>
<rscale>  2 0.42348479E+03</rscale>
<asrwt>0</asrwt>
<pdfrwt beam="1">  1       21 0.28871440E-01 0.42348479E+03</pdfrwt>
<pdfrwt beam="2">  1       21 0.33583764E-01 0.42348479E+03</pdfrwt>
<totfact> 0.91834659E+04</totfact>
</mgrwt>
</event>
<event>
 6    0  0.4766352E-002  0.4719193E+03  0.7546771E-02  0.1021380E+00
         21   -1    0    0  502  501  0.00000000000E+00  0.00000000000E+00  0.38024568043E+02  0.38024568043E+02  0.00000000000E+00 0.  1.
         21   -1    0    0  501  502 -0.00000000000E+00 -0.00000000000E+00 -0.14642362848E+04  0.14642362848E+04  0.00000000000E+00 0.  1.
      99926    2    1    2    0    0  0.00000000000E+00  0.00000000000E+00 -0.14262117168E+04  0.15022608529E+04  0.47191928226E+03 0.  0.
         25    1    3    3    0    0 -0.34800508241E+01  0.25872273495E+02 -0.24776551870E+03  0.27877723301E+03  0.12509000000E+03 0.  0.
         25    1    3    3    0    0  0.62773790897E+02  0.67542610042E+02 -0.44793357048E+03  0.47412503062E+03  0.12509000000E+03 0.  0.
         25    1    3    3    0    0 -0.59293740072E+02 -0.93414883537E+02 -0.73051262761E+03  0.74935858924E+03  0.12509000000E+03 0.  0.
<mgrwt>
<rscale>  2 0.47191928E+03</rscale>
<asrwt>0</asrwt>
<pdfrwt beam="1">  1       21 0.55918490E-02 0.47191928E+03</pdfrwt>
<pdfrwt beam="2">  1       21 0.21532884E+00 0.47191928E+03</pdfrwt>
<totfact> 0.20846688E+04</totfact>
</mgrwt>
</event>
<event>
 7    0  0.4766352E-002  0.4591329E+03  0.7546771E-02  0.1025033E+00
         21   -1    0    0  502  501  0.00000000000E+00  0.00000000000E+00  0.65225930944E+03  0.65225930944E+03  0.00000000000E+00 0.  1.
         21   -1    0    0  501  502 -0.00000000000E+00 -0.00000000000E+00 -0.80797233321E+02  0.80797233321E+02  0.00000000000E+00 0.  1.
      99926    2    1    2    0    0 -0.17763568394E-14  0.00000000000E+00  0.57146207611E+03  0.73305654276E+03  0.45913286796E+03 0.  0.
      99925    2    3    3    0    0  0.14958773583E+02  0.54416405750E+02  0.19503461681E+03  0.33239452766E+03  0.26317809586E+03 0.  0.
         25    1    4    4    0    0 -0.31053250957E+01 -0.74798024345E+01  0.11703480338E+03  0.17149415089E+03  0.12509000000E+03 0.  0.
         25    1    4    4    0    0  0.18064098679E+02  0.61896208184E+02  0.77999813427E+02  0.16090037677E+03  0.12509000000E+03 0.  0.
         25    1    3    3    0    0 -0.14958773583E+02 -0.54416405750E+02  0.37642745931E+03  0.40066201510E+03  0.12509000000E+03 0.  0.
<mgrwt>
<rscale>  2 0.45913287E+03</rscale>
<asrwt>0</asrwt>
<pdfrwt beam="1">  1       21 0.95920484E-01 0.45913287E+03</pdfrwt>
<pdfrwt beam="2">  1       21 0.11881946E-01 0.45913287E+03</pdfrwt>
<totfact> 0.49515883E+04</totfact>
</mgrwt>
</event>
<event>
 7    0  0.4766352E-002  0.4543801E+03  0.7546771E-02  0.1026424E+00
         21   -1    0    0  502  501  0.00000000000E+00  0.00000000000E+00  0.20031076583E+04  0.20031076583E+04  0.00000000000E+00 0.  1.
         21   -1    0    0  501  502 -0.00000000000E+00 -0.00000000000E+00 -0.25767616310E+02  0.25767616310E+02  0.00000000000E+00 0.  1.
      99926    2    1    2    0    0  0.00000000000E+00  0.00000000000E+00  0.19773400420E+04  0.20288752746E+04  0.45438005928E+03 0.  0.
      99925    2    3    3    0    0 -0.49096105576E+02  0.77958758244E+02  0.95593152307E+03  0.99571949439E+03  0.26299094880E+03 0.  0.
         25    1    4    4    0    0  0.16552124334E+02  0.39177189180E+02  0.46201287525E+03  0.48053327665E+03  0.12509000000E+03 0.  0.
         25    1    4    4    0    0 -0.65648229910E+02  0.38781569064E+02  0.49391864781E+03  0.51518621774E+03  0.12509000000E+03 0.  0.
         25    1    3    3    0    0  0.49096105576E+02 -0.77958758244E+02  0.10214085189E+04  0.10331557802E+04  0.12509000000E+03 0.  0.
<mgrwt>
<rscale>  2 0.45438006E+03</rscale>
<asrwt>0</asrwt>
<pdfrwt beam="1">  1       21 0.29457455E+00 0.45438006E+03</pdfrwt>
<pdfrwt beam="2">  1       21 0.37893567E-02 0.45438006E+03</pdfrwt>
<totfact> 0.13307879E+04</totfact>
</mgrwt>
</event>
<event>
 7    0  0.4766352E-002  0.4479559E+03  0.7546771E-02  0.1028333E+00
         21   -1    0    0  502  501  0.00000000000E+00  0.00000000000E+00  0.13904082092E+03  0.13904082092E+03  0.00000000000E+00 0.  1.
         21   -1    0    0  501  502 -0.00000000000E+00 -0.00000000000E+00 -0.36080139741E+03  0.36080139741E+03  0.00000000000E+00 0.  1.
      99926    2    1    2    0    0  0.14210854715E-13  0.00000000000E+00 -0.22176057649E+03  0.49984221833E+03  0.44795590178E+03 0.  0.
      99925    2    3    3    0    0  0.81785258932E+02  0.50736791739E+02 -0.89641974656E+02  0.29401247397E+03  0.26295360924E+03 0.  0.
         25    1    4    4    0    0  0.13535226108E+02  0.55193611202E+02 -0.46841580237E+02  0.14515914991E+03  0.12509000000E+03 0.  0.
         25    1    3    3    0    0 -0.81785258932E+02 -0.50736791739E+02 -0.13211860183E+03  0.20582974436E+03  0.12509000000E+03 0.  0.
         25    1    4    4    0    0  0.68250032825E+02 -0.44568194634E+01 -0.42800394419E+02  0.14885332406E+03  0.12509000000E+03 0.  0.
<mgrwt>
<rscale>  2 0.44795590E+03</rscale>
<asrwt>0</asrwt>
<pdfrwt beam="1">  1       21 0.20447179E-01 0.44795590E+03</pdfrwt>
<pdfrwt beam="2">  1       21 0.53059030E-01 0.44795590E+03</pdfrwt>
<totfact> 0.69063198E+04</totfact>
</mgrwt>
</event>
<event>
 7    0  0.4766352E-002  0.4515079E+03  0.7546771E-02  0.1027273E+00
         21   -1    0    0  502  501  0.00000000000E+00  0.00000000000E+00  0.17562626540E+04  0.17562626540E+04  0.00000000000E+00 0.  1.
         21   -1    0    0  501  502 -0.00000000000E+00 -0.00000000000E+00 -0.29018924607E+02  0.29018924607E+02  0.00000000000E+00 0.  1.
      99926    2    1    2    0    0 -0.35527136788E-14  0.00000000000E+00  0.17272437294E+04  0.17852815786E+04  0.45150793369E+03 0.  0.
      99925    2    3    3    0    0  0.25280380857E+02 -0.47000965476E+02  0.14698208752E+04  0.14941420547E+04  0.26313282975E+03 0.  0.
         25    1    4    4    0    0  0.27390761354E+02 -0.10498996732E+02  0.92887105024E+03  0.93771499871E+03  0.12509000000E+03 0.  0.
         25    1    4    4    0    0 -0.21103804969E+01 -0.36501968743E+02  0.54094982495E+03  0.55642705600E+03  0.12509000000E+03 0.  0.
         25    1    3    3    0    0 -0.25280380857E+02  0.47000965476E+02  0.25742285423E+03  0.29113952393E+03  0.12509000000E+03 0.  0.
<mgrwt>
<rscale>  2 0.45150793E+03</rscale>
<asrwt>0</asrwt>
<pdfrwt beam="1">  1       21 0.25827385E+00 0.45150793E+03</pdfrwt>
<pdfrwt beam="2">  1       21 0.42674901E-02 0.45150793E+03</pdfrwt>
<totfact> 0.18027799E+04</totfact>
</mgrwt>
</event>
<event>
 6    0  0.4766352E-002  0.4513722E+03  0.7546771E-02  0.1027314E+00
         21   -1    0    0  502  501  0.00000000000E+00  0.00000000000E+00  0.14552904298E+03  0.14552904298E+03  0.00000000000E+00 0. -1.
         21   -1    0    0  501  502 -0.00000000000E+00 -0.00000000000E+00 -0.34999343341E+03  0.34999343341E+03  0.00000000000E+00 0. -1.
      99926    2    1    2    0    0  0.00000000000E+00  0.00000000000E+00 -0.20446439043E+03  0.49552247638E+03  0.45137217199E+03 0.  0.
         25    1    3    3    0    0 -0.20809260980E+02 -0.30204948797E+02  0.23215017562E+02  0.13240773926E+03  0.12509000000E+03 0.  0.
         25    1    3    3    0    0 -0.13447132319E+02 -0.12150068711E+02 -0.43014312142E+02  0.13351475082E+03  0.12509000000E+03 0.  0.
         25    1    3    3    0    0  0.34256393299E+02  0.42355017508E+02 -0.18466509585E+03  0.22959998631E+03  0.12509000000E+03 0.  0.
<mgrwt>
<rscale>  2 0.45137217E+03</rscale>
<asrwt>0</asrwt>
<pdfrwt beam="1">  1       21 0.21401330E-01 0.45137217E+03</pdfrwt>
<pdfrwt beam="2">  1       21 0.51469622E-01 0.45137217E+03</pdfrwt>
<totfact> 0.67509731E+04</totfact>
</mgrwt>
</event>
<event>
 7    0  0.4766352E-002  0.4441998E+03  0.7546771E-02  0.1029466E+00
         21   -1    0    0  502  501  0.00000000000E+00  0.00000000000E+00  0.55169841001E+03  0.55169841001E+03  0.00000000000E+00 0. -1.
         21   -1    0    0  501  502 -0.00000000000E+00 -0.00000000000E+00 -0.89411849997E+02  0.89411849997E+02  0.00000000000E+00 0. -1.
      99926    2    1    2    0    0  0.00000000000E+00  0.00000000000E+00  0.46228656001E+03  0.64111026001E+03  0.44419984457E+03 0.  0.
      99925    2    3    3    0    0 -0.84431803031E+02 -0.40196559026E+02  0.23234764598E+03  0.36314640443E+03  0.26295510974E+03 0.  0.
         25    1    4    4    0    0 -0.62903194950E+02  0.11345125281E+02  0.13713953335E+03  0.19631679376E+03  0.12509000000E+03 0.  0.
         25    1    4    4    0    0 -0.21528608081E+02 -0.51541684307E+02  0.95208112625E+02  0.16682961067E+03  0.12509000000E+03 0.  0.
         25    1    3    3    0    0  0.84431803031E+02  0.40196559026E+02  0.22993891404E+03  0.27796385558E+03  0.12509000000E+03 0.  0.
<mgrwt>
<rscale>  2 0.44419984E+03</rscale>
<asrwt>0</asrwt>
<pdfrwt beam="1">  1       21 0.81132118E-01 0.44419984E+03</pdfrwt>
<pdfrwt beam="2">  1       21 0.13148802E-01 0.44419984E+03</pdfrwt>
<totfact> 0.61273670E+04</totfact>
</mgrwt>
</event>
<event>
 7    0  0.4766352E-002  0.4094552E+03  0.7546771E-02  0.1040554E+00
         21   -1    0    0  502  501  0.00000000000E+00  0.00000000000E+00  0.38745600662E+03  0.38745600662E+03  0.00000000000E+00 0. -1.
         21   -1    0    0  501  502 -0.00000000000E+00 -0.00000000000E+00 -0.10817588890E+03  0.10817588890E+03  0.00000000000E+00 0. -1.
      99926    2    1    2    0    0  0.35527136788E-14  0.00000000000E+00  0.27928011772E+03  0.49563189552E+03  0.40945523773E+03 0.  0.
      99925    2    3    3    0    0 -0.23991473732E+02 -0.44253757049E+02  0.22689984337E+03  0.35097648752E+03  0.26299614074E+03 0.  0.
         25    1    4    4    0    0 -0.34026290167E+02 -0.56476593145E+02  0.12796172260E+03  0.19070685501E+03  0.12509000000E+03 0.  0.
         25    1    3    3    0    0  0.23991473732E+02  0.44253757049E+02  0.52380274350E+02  0.14465540801E+03  0.12509000000E+03 0.  0.
         25    1    4    4    0    0  0.10034816435E+02  0.12222836096E+02  0.98938120766E+02  0.16026963251E+03  0.12509000000E+03 0.  0.
<mgrwt>
<rscale>  2 0.40945524E+03</rscale>
<asrwt>0</asrwt>
<pdfrwt beam="1">  1       21 0.56978824E-01 0.40945524E+03</pdfrwt>
<pdfrwt beam="2">  1       21 0.15908219E-01 0.40945524E+03</pdfrwt>
<totfact> 0.95763294E+04</totfact>
</mgrwt>
</event>
<event>
 7    0  0.4766352E-002  0.4611248E+03  0.7546771E-02  0.1024456E+00
         21   -1    0    0  502  501  0.00000000000E+00  0.00000000000E+00  0.14579844367E+04  0.14579844367E+04  0.00000000000E+00 0.  1.
         21   -1    0    0  501  502 -0.00000000000E+00 -0.00000000000E+00 -0.36460620025E+02  0.36460620025E+02  0.00000000000E+00 0.  1.
      99926    2    1    2    0    0  0.00000000000E+00  0.00000000000E+00  0.14215238166E+04  0.14944450567E+04  0.46112478375E+03 0.  0.
      99925    2    3    3    0    0 -0.21722295560E+02  0.56861237588E+02  0.55916986365E+03  0.62094239110E+03  0.26304649433E+03 0.  0.
         25    1    4    4    0    0  0.22146689610E+02  0.27359400439E+02  0.32845247921E+03  0.35322450630E+03  0.12509000000E+03 0.  0.
         25    1    3    3    0    0  0.21722295560E+02 -0.56861237588E+02  0.86235395298E+03  0.87350266559E+03  0.12509000000E+03 0.  0.
         25    1    4    4    0    0 -0.43868985169E+02  0.29501837149E+02  0.23071738444E+03  0.26771788479E+03  0.12509000000E+03 0.  0.
<mgrwt>
<rscale>  2 0.46112478E+03</rscale>
<asrwt>0</asrwt>
<pdfrwt beam="1">  1       21 0.21440944E+00 0.46112478E+03</pdfrwt>
<pdfrwt beam="2">  1       21 0.53618569E-02 0.46112478E+03</pdfrwt>
<totfact> 0.22810953E+04</totfact>
</mgrwt>
</event>
<event>
 7    0  0.4766352E-002  0.4556436E+03  0.7546771E-02  0.1026052E+00
         21   -1    0    0  502  501  0.00000000000E+00  0.00000000000E+00  0.38578848235E+02  0.38578848235E+02  0.00000000000E+00 0. -1.
         21   -1    0    0  501  502 -0.00000000000E+00 -0.00000000000E+00 -0.13453684131E+04  0.13453684131E+04  0.00000000000E+00 0. -1.
      99926    2    1    2    0    0  0.88817841970E-15  0.00000000000E+00 -0.13067895648E+04  0.13839472613E+04  0.45564356170E+03 0.  0.
      99925    2    3    3    0    0 -0.55007426230E+01  0.46636439358E+02 -0.50676198572E+03  0.57283885234E+03  0.26292855482E+03 0.  0.
         25    1    4    4    0    0 -0.42981066631E+02  0.21776108882E+02 -0.24619840754E+03  0.28032612254E+03  0.12509000000E+03 0.  0.
         25    1    3    3    0    0  0.55007426230E+01 -0.46636439358E+02 -0.80002757912E+03  0.81110840897E+03  0.12509000000E+03 0.  0.
         25    1    4    4    0    0  0.37480324008E+02  0.24860330475E+02 -0.26056357818E+03  0.29251272980E+03  0.12509000000E+03 0.  0.
<mgrwt>
<rscale>  2 0.45564356E+03</rscale>
<asrwt>0</asrwt>
<pdfrwt beam="1">  1       21 0.56733605E-02 0.45564356E+03</pdfrwt>
<pdfrwt beam="2">  1       21 0.19784828E+00 0.45564356E+03</pdfrwt>
<totfact> 0.26629501E+04</totfact>
</mgrwt>
</event>
<event>
 7    0  0.4766352E-002  0.4487566E+03  0.7546771E-02  0.1028093E+00
         21   -1    0    0  502  501  0.00000000000E+00  0.00000000000E+00  0.15068225602E+03  0.15068225602E+03  0.00000000000E+00 0.  1.
         21   -1    0    0  501  502 -0.00000000000E+00 -0.00000000000E+00 -0.33411775618E+03  0.33411775618E+03  0.00000000000E+00 0.  1.
      99926    2    1    2    0    0  0.00000000000E+00  0.00000000000E+00 -0.18343550015E+03  0.48480001220E+03  0.44875658114E+03 0.  0.
      99925    2    3    3    0    0  0.93332752470E+02 -0.24018090961E+02 -0.16685290839E+03  0.32602230020E+03  0.26298816669E+03 0.  0.
         25    1    4    4    0    0  0.55269686840E+02 -0.15745569629E+01 -0.40061643109E+02  0.14251196743E+03  0.12509000000E+03 0.  0.
         25    1    3    3    0    0 -0.93332752470E+02  0.24018090961E+02 -0.16582591768E+02  0.15877771200E+03  0.12509000000E+03 0.  0.
         25    1    4    4    0    0  0.38063065630E+02 -0.22443533998E+02 -0.12679126528E+03  0.18351033277E+03  0.12509000000E+03 0.  0.
<mgrwt>
<rscale>  2 0.44875658E+03</rscale>
<asrwt>0</asrwt>
<pdfrwt beam="1">  1       21 0.22159156E-01 0.44875658E+03</pdfrwt>
<pdfrwt beam="2">  1       21 0.49134963E-01 0.44875658E+03</pdfrwt>
<totfact> 0.69745628E+04</totfact>
</mgrwt>
</event>
<event>
 7    0  0.4766352E-002  0.4498956E+03  0.7546771E-02  0.1027753E+00
         21   -1    0    0  502  501  0.00000000000E+00  0.00000000000E+00  0.27445561694E+03  0.27445561694E+03  0.00000000000E+00 0.  1.
         21   -1    0    0  501  502 -0.00000000000E+00 -0.00000000000E+00 -0.18437050820E+03  0.18437050820E+03  0.00000000000E+00 0.  1.
      99926    2    1    2    0    0  0.00000000000E+00  0.00000000000E+00  0.90085108743E+02  0.45882612514E+03  0.44989563934E+03 0.  0.
      99925    2    3    3    0    0 -0.67023723970E+02 -0.56439249113E+02 -0.79535098569E+01  0.27734156036E+03  0.26301618652E+03 0.  0.
         25    1    3    3    0    0  0.67023723970E+02  0.56439249113E+02  0.98038618600E+02  0.18148456478E+03  0.12509000000E+03 0.  0.
         25    1    4    4    0    0 -0.37521486422E+02 -0.27086996482E+02  0.36392618250E+02  0.13825157534E+03  0.12509000000E+03 0.  0.
         25    1    4    4    0    0 -0.29502237548E+02 -0.29352252630E+02 -0.44346128107E+02  0.13908998502E+03  0.12509000000E+03 0.  0.
<mgrwt>
<rscale>  2 0.44989564E+03</rscale>
<asrwt>0</asrwt>
<pdfrwt beam="1">  1       21 0.40361120E-01 0.44989564E+03</pdfrwt>
<pdfrwt beam="2">  1       21 0.27113310E-01 0.44989564E+03</pdfrwt>
<totfact> 0.71112630E+04</totfact>
</mgrwt>
</event>
<event>
 7    0  0.4766352E-002  0.4529215E+03  0.7546771E-02  0.1026854E+00
         21   -1    0    0  502  501  0.00000000000E+00  0.00000000000E+00  0.34033770387E+03  0.34033770387E+03  0.00000000000E+00 0.  1.
         21   -1    0    0  501  502 -0.00000000000E+00 -0.00000000000E+00 -0.15068697931E+03  0.15068697931E+03  0.00000000000E+00 0.  1.
      99926    2    1    2    0    0  0.00000000000E+00  0.00000000000E+00  0.18965072456E+03  0.49102468318E+03  0.45292145253E+03 0.  0.
      99925    2    3    3    0    0  0.79848277390E+02 -0.75851010979E+02  0.13638439334E+03  0.31605630486E+03  0.26298623886E+03 0.  0.
         25    1    4    4    0    0  0.22870460073E+02 -0.19165041183E+02  0.10021108410E+03  0.16303412595E+03  0.12509000000E+03 0.  0.
         25    1    4    4    0    0  0.56977817317E+02 -0.56685969796E+02  0.36173309237E+02  0.15302217891E+03  0.12509000000E+03 0.  0.
         25    1    3    3    0    0 -0.79848277390E+02  0.75851010979E+02  0.53266331223E+02  0.17496837832E+03  0.12509000000E+03 0.  0.
<mgrwt>
<rscale>  2 0.45292145E+03</rscale>
<asrwt>0</asrwt>
<pdfrwt beam="1">  1       21 0.50049662E-01 0.45292145E+03</pdfrwt>
<pdfrwt beam="2">  1       21 0.22159850E-01 0.45292145E+03</pdfrwt>
<totfact> 0.67004746E+04</totfact>
</mgrwt>
</event>
<event>
 7    0  0.4766352E-002  0.4520540E+03  0.7546771E-02  0.1027111E+00
         21   -1    0    0  502  501  0.00000000000E+00  0.00000000000E+00  0.99270137342E+03  0.99270137342E+03  0.00000000000E+00 0.  1.
         21   -1    0    0  501  502 -0.00000000000E+00 -0.00000000000E+00 -0.51463824532E+02  0.51463824532E+02  0.00000000000E+00 0.  1.
      99926    2    1    2    0    0 -0.71054273576E-14  0.71054273576E-14  0.94123754888E+03  0.10441651979E+04  0.45205402020E+03 0.  0.
      99925    2    3    3    0    0  0.37689786198E+02 -0.52533800792E+02  0.80057959578E+03  0.84513633551E+03  0.26295896300E+03 0.  0.
         25    1    4    4    0    0 -0.16235978510E+02 -0.25806366072E+02  0.32063251287E+03  0.34551742639E+03  0.12509000000E+03 0.  0.
         25    1    4    4    0    0  0.53925764709E+02 -0.26727434721E+02  0.47994708291E+03  0.49961890913E+03  0.12509000000E+03 0.  0.
         25    1    3    3    0    0 -0.37689786198E+02  0.52533800792E+02  0.14065795311E+03  0.19902886243E+03  0.12509000000E+03 0.  0.
<mgrwt>
<rscale>  2 0.45205402E+03</rscale>
<asrwt>0</asrwt>
<pdfrwt beam="1">  1       21 0.14598548E+00 0.45205402E+03</pdfrwt>
<pdfrwt beam="2">  1       21 0.75682101E-02 0.45205402E+03</pdfrwt>
<totfact> 0.38366918E+04</totfact>
</mgrwt>
</event>
<event>
 7    0  0.4766352E-002  0.4539939E+03  0.7546771E-02  0.1026538E+00
         21   -1    0    0  502  501  0.00000000000E+00  0.00000000000E+00  0.82291298504E+02  0.82291298504E+02  0.00000000000E+00 0. -1.
         21   -1    0    0  501  502 -0.00000000000E+00 -0.00000000000E+00 -0.62616124478E+03  0.62616124478E+03  0.00000000000E+00 0. -1.
      99926    2    1    2    0    0  0.00000000000E+00  0.35527136788E-14 -0.54386994627E+03  0.70845254328E+03  0.45399392906E+03 0.  0.
      99925    2    3    3    0    0  0.19974539279E+02 -0.31842933607E+02 -0.17753586289E+03  0.31952951312E+03  0.26299652565E+03 0.  0.
         25    1    4    4    0    0  0.41139510909E+02 -0.24483709339E+02 -0.61268398809E+02  0.14728623891E+03  0.12509000000E+03 0.  0.
         25    1    3    3    0    0 -0.19974539279E+02  0.31842933607E+02 -0.36633408338E+03  0.38892303016E+03  0.12509000000E+03 0.  0.
         25    1    4    4    0    0 -0.21164971630E+02 -0.73592242677E+01 -0.11626746408E+03  0.17224327421E+03  0.12509000000E+03 0.  0.
<mgrwt>
<rscale>  2 0.45399393E+03</rscale>
<asrwt>0</asrwt>
<pdfrwt beam="1">  1       21 0.12101662E-01 0.45399393E+03</pdfrwt>
<pdfrwt beam="2">  1       21 0.92082535E-01 0.45399393E+03</pdfrwt>
<totfact> 0.52863660E+04</totfact>
</mgrwt>
</event>
<event>
 7    0  0.4766352E-002  0.4539679E+03  0.7546771E-02  0.1026545E+00
         21   -1    0    0  502  501  0.00000000000E+00  0.00000000000E+00  0.38973511785E+03  0.38973511785E+03  0.00000000000E+00 0.  1.
         21   -1    0    0  501  502 -0.00000000000E+00 -0.00000000000E+00 -0.13219674951E+03  0.13219674951E+03  0.00000000000E+00 0.  1.
      99926    2    1    2    0    0 -0.71054273576E-14  0.17763568394E-14  0.25753836835E+03  0.52193186736E+03  0.45396790965E+03 0.  0.
      99925    2    3    3    0    0  0.48404325548E+02 -0.93887178034E+01  0.46694007450E+02  0.27186391784E+03  0.26324614477E+03 0.  0.
         25    1    4    4    0    0 -0.20868842703E+01 -0.42454407184E+01 -0.97205713653E+01  0.12555626811E+03  0.12509000000E+03 0.  0.
         25    1    4    4    0    0  0.50491209818E+02 -0.51432770850E+01  0.56414578816E+02  0.14630764974E+03  0.12509000000E+03 0.  0.
         25    1    3    3    0    0 -0.48404325548E+02  0.93887178034E+01  0.21084436089E+03  0.25006794952E+03  0.12509000000E+03 0.  0.
<mgrwt>
<rscale>  2 0.45396791E+03</rscale>
<asrwt>0</asrwt>
<pdfrwt beam="1">  1       21 0.57313987E-01 0.45396791E+03</pdfrwt>
<pdfrwt beam="2">  1       21 0.19440699E-01 0.45396791E+03</pdfrwt>
<totfact> 0.64280287E+04</totfact>
</mgrwt>
</event>
<event>
 7    0  0.4766352E-002  0.4543069E+03  0.7546771E-02  0.1026445E+00
         21   -1    0    0  502  501  0.00000000000E+00  0.00000000000E+00  0.26000091722E+03  0.26000091722E+03  0.00000000000E+00 0. -1.
         21   -1    0    0  501  502 -0.00000000000E+00 -0.00000000000E+00 -0.19845577730E+03  0.19845577730E+03  0.00000000000E+00 0. -1.
      99926    2    1    2    0    0 -0.71054273576E-14  0.00000000000E+00  0.61545139919E+02  0.45845669451E+03  0.45430687481E+03 0.  0.
      99925    2    3    3    0    0 -0.59980866463E+02 -0.65169999174E+02  0.10873314624E+03  0.29808509736E+03  0.26303420888E+03 0.  0.
         25    1    3    3    0    0  0.59980866463E+02  0.65169999174E+02 -0.47188006321E+02  0.16037159716E+03  0.12509000000E+03 0.  0.
         25    1    4    4    0    0 -0.60564735547E+02 -0.52718793303E+02  0.36341193635E+02  0.15302139986E+03  0.12509000000E+03 0.  0.
         25    1    4    4    0    0  0.58386908377E+00 -0.12451205871E+02  0.72391952605E+02  0.14506369750E+03  0.12509000000E+03 0.  0.
<mgrwt>
<rscale>  2 0.45430687E+03</rscale>
<asrwt>0</asrwt>
<pdfrwt beam="1">  1       21 0.38235429E-01 0.45430687E+03</pdfrwt>
<pdfrwt beam="2">  1       21 0.29184673E-01 0.45430687E+03</pdfrwt>
<totfact> 0.68671989E+04</totfact>
</mgrwt>
</event>
<event>
 7    0  0.4766352E-002  0.4553487E+03  0.7546771E-02  0.1026139E+00
         21   -1    0    0  502  501  0.00000000000E+00  0.00000000000E+00  0.94827683961E+02  0.94827683961E+02  0.00000000000E+00 0.  1.
         21   -1    0    0  501  502 -0.00000000000E+00 -0.00000000000E+00 -0.54662941249E+03  0.54662941249E+03  0.00000000000E+00 0.  1.
      99926    2    1    2    0    0 -0.71054273576E-14 -0.14210854715E-13 -0.45180172853E+03  0.64145709645E+03  0.45534866277E+03 0.  0.
      99925    2    3    3    0    0  0.61790757879E+02  0.64822804751E+02 -0.18489204893E+03  0.33338506115E+03  0.26256510709E+03 0.  0.
         25    1    4    4    0    0  0.14274140249E+01  0.23473366145E+01 -0.83625976310E+02  0.15049371918E+03  0.12509000000E+03 0.  0.
         25    1    4    4    0    0  0.60363343854E+02  0.62475468137E+02 -0.10126607262E+03  0.18289134196E+03  0.12509000000E+03 0.  0.
         25    1    3    3    0    0 -0.61790757879E+02 -0.64822804751E+02 -0.26690967960E+03  0.30807203531E+03  0.12509000000E+03 0.  0.
<mgrwt>
<rscale>  2 0.45534866E+03</rscale>
<asrwt>0</asrwt>
<pdfrwt beam="1">  1       21 0.13945248E-01 0.45534866E+03</pdfrwt>
<pdfrwt beam="2">  1       21 0.80386677E-01 0.45534866E+03</pdfrwt>
<totfact> 0.56041995E+04</totfact>
</mgrwt>
</event>
<event>
 7    0  0.4766352E-002  0.4461132E+03  0.7546771E-02  0.1028887E+00
         21   -1    0    0  502  501  0.00000000000E+00  0.00000000000E+00  0.58857061494E+02  0.58857061494E+02  0.00000000000E+00 0. -1.
         21   -1    0    0  501  502 -0.00000000000E+00 -0.00000000000E+00 -0.84534038493E+03  0.84534038493E+03  0.00000000000E+00 0. -1.
      99926    2    1    2    0    0  0.00000000000E+00  0.14210854715E-13 -0.78648332343E+03  0.90419744642E+03  0.44611321890E+03 0.  0.
      99925    2    3    3    0    0 -0.59392796613E+02  0.74772776063E+02 -0.58587424592E+03  0.64922689438E+03  0.26292290889E+03 0.  0.
         25    1    4    4    0    0 -0.41522716591E+02  0.54415875143E+02 -0.38993967915E+03  0.41519355118E+03  0.12509000000E+03 0.  0.
         25    1    3    3    0    0  0.59392796613E+02 -0.74772776063E+02 -0.20060907751E+03  0.25497055205E+03  0.12509000000E+03 0.  0.
         25    1    4    4    0    0 -0.17870080023E+02  0.20356900920E+02 -0.19593456677E+03  0.23403334320E+03  0.12509000000E+03 0.  0.
<mgrwt>
<rscale>  2 0.44611322E+03</rscale>
<asrwt>0</asrwt>
<pdfrwt beam="1">  1       21 0.86554509E-02 0.44611322E+03</pdfrwt>
<pdfrwt beam="2">  1       21 0.12431475E+00 0.44611322E+03</pdfrwt>
<totfact> 0.46181647E+04</totfact>
</mgrwt>
</event>
<event>
 7    0  0.4766352E-002  0.4542659E+03  0.7546771E-02  0.1026457E+00
         21   -1    0    0  502  501  0.00000000000E+00  0.00000000000E+00  0.65095275396E+02  0.65095275396E+02  0.00000000000E+00 0.  1.
         21   -1    0    0  501  502 -0.00000000000E+00 -0.00000000000E+00 -0.79252116155E+03  0.79252116155E+03  0.00000000000E+00 0.  1.
      99926    2    1    2    0    0 -0.17763568394E-14  0.00000000000E+00 -0.72742588615E+03  0.85761643695E+03  0.45426592770E+03 0.  0.
      99925    2    3    3    0    0  0.10862983496E+02 -0.33843837731E+02 -0.65850204762E+03  0.71043826811E+03  0.26426156799E+03 0.  0.
         25    1    3    3    0    0 -0.10862983496E+02  0.33843837731E+02 -0.68923838536E+02  0.14717816883E+03  0.12509000000E+03 0.  0.
         25    1    4    4    0    0  0.12196942288E+02  0.11875084654E+02 -0.40291556509E+03  0.42223008388E+03  0.12509000000E+03 0.  0.
         25    1    4    4    0    0 -0.13339587925E+01 -0.45718922384E+02 -0.25558648253E+03  0.28820818424E+03  0.12509000000E+03 0.  0.
<mgrwt>
<rscale>  2 0.45426593E+03</rscale>
<asrwt>0</asrwt>
<pdfrwt beam="1">  1       21 0.95728346E-02 0.45426593E+03</pdfrwt>
<pdfrwt beam="2">  1       21 0.11654723E+00 0.45426593E+03</pdfrwt>
<totfact> 0.45361171E+04</totfact>
</mgrwt>
</event>
<event>
 7    0  0.4766352E-002  0.4631960E+03  0.7546771E-02  0.1023858E+00
         21   -1    0    0  502  501  0.00000000000E+00  0.00000000000E+00  0.69981506953E+03  0.69981506953E+03  0.00000000000E+00 0.  1.
         21   -1    0    0  501  502 -0.00000000000E+00 -0.00000000000E+00 -0.76645429671E+02  0.76645429671E+02  0.00000000000E+00 0.  1.
      99926    2    1    2    0    0 -0.71054273576E-14 -0.14210854715E-13  0.62316963986E+03  0.77646049921E+03  0.46319597017E+03 0.  0.
      99925    2    3    3    0    0 -0.51257493143E+02 -0.10881439345E+03  0.40593450238E+03  0.49842000597E+03  0.26300528378E+03 0.  0.
         25    1    4    4    0    0 -0.58910580654E+02 -0.45107211483E+02  0.16949200898E+03  0.22333868059E+03  0.12509000000E+03 0.  0.
         25    1    4    4    0    0  0.76530875111E+01 -0.63707181965E+02  0.23644249340E+03  0.27508132537E+03  0.12509000000E+03 0.  0.
         25    1    3    3    0    0  0.51257493143E+02  0.10881439345E+03  0.21723513748E+03  0.27804049324E+03  0.12509000000E+03 0.  0.
<mgrwt>
<rscale>  2 0.46319597E+03</rscale>
<asrwt>0</asrwt>
<pdfrwt beam="1">  1       21 0.10291398E+00 0.46319597E+03</pdfrwt>
<pdfrwt beam="2">  1       21 0.11271387E-01 0.46319597E+03</pdfrwt>
<totfact> 0.45899593E+04</totfact>
</mgrwt>
</event>
<event>
 7    0  0.4766352E-002  0.4586247E+03  0.7546771E-02  0.1025181E+00
         21   -1    0    0  502  501  0.00000000000E+00  0.00000000000E+00  0.96663965564E+02  0.96663965564E+02  0.00000000000E+00 0. -1.
         21   -1    0    0  501  502 -0.00000000000E+00 -0.00000000000E+00 -0.54398926703E+03  0.54398926703E+03  0.00000000000E+00 0. -1.
      99926    2    1    2    0    0  0.00000000000E+00  0.00000000000E+00 -0.44732530146E+03  0.64065323259E+03  0.45862472579E+03 0.  0.
      99925    2    3    3    0    0 -0.11565158461E+03  0.12584884777E+02 -0.27039253829E+03  0.39471344498E+03  0.26296940988E+03 0.  0.
         25    1    4    4    0    0 -0.90671849692E+02 -0.13981935803E+02 -0.12290337363E+03  0.19791317845E+03  0.12509000000E+03 0.  0.
         25    1    3    3    0    0  0.11565158461E+03 -0.12584884777E+02 -0.17693276318E+03  0.24593978762E+03  0.12509000000E+03 0.  0.
         25    1    4    4    0    0 -0.24979734919E+02  0.26566820580E+02 -0.14748916466E+03  0.19680026652E+03  0.12509000000E+03 0.  0.
<mgrwt>
<rscale>  2 0.45862473E+03</rscale>
<asrwt>0</asrwt>
<pdfrwt beam="1">  1       21 0.14215289E-01 0.45862473E+03</pdfrwt>
<pdfrwt beam="2">  1       21 0.79998420E-01 0.45862473E+03</pdfrwt>
<totfact> 0.54662710E+04</totfact>
</mgrwt>
</event>
<event>
 7    0  0.4766352E-002  0.4054534E+03  0.7546771E-02  0.1041908E+00
         21   -1    0    0  502  501  0.00000000000E+00  0.00000000000E+00  0.63885604268E+02  0.63885604268E+02  0.00000000000E+00 0. -1.
         21   -1    0    0  501  502 -0.00000000000E+00 -0.00000000000E+00 -0.64330797090E+03  0.64330797090E+03  0.00000000000E+00 0. -1.
      99926    2    1    2    0    0  0.00000000000E+00 -0.71054273576E-14 -0.57942236663E+03  0.70719357517E+03  0.40545341756E+03 0.  0.
      99925    2    3    3    0    0 -0.32175182539E+02 -0.36569509950E+02 -0.42919895110E+03  0.50573103745E+03  0.26302009655E+03 0.  0.
         25    1    4    4    0    0  0.21925165946E+02 -0.31851527964E+02 -0.21983164484E+03  0.25586850707E+03  0.12509000000E+03 0.  0.
         25    1    3    3    0    0  0.32175182539E+02  0.36569509950E+02 -0.15022341553E+03  0.20146253772E+03  0.12509000000E+03 0.  0.
         25    1    4    4    0    0 -0.54100348484E+02 -0.47179819865E+01 -0.20936730626E+03  0.24986253039E+03  0.12509000000E+03 0.  0.
<mgrwt>
<rscale>  2 0.40545342E+03</rscale>
<asrwt>0</asrwt>
<pdfrwt beam="1">  1       21 0.93949415E-02 0.40545342E+03</pdfrwt>
<pdfrwt beam="2">  1       21 0.94604116E-01 0.40545342E+03</pdfrwt>
<totfact> 0.79144737E+04</totfact>
</mgrwt>
</event>
<event>
 7    0  0.4766352E-002  0.4554918E+03  0.7546771E-02  0.1026097E+00
         21   -1    0    0  502  501  0.00000000000E+00  0.00000000000E+00  0.82301665648E+02  0.82301665648E+02  0.00000000000E+00 0. -1.
         21   -1    0    0  501  502 -0.00000000000E+00 -0.00000000000E+00 -0.63022051931E+03  0.63022051931E+03  0.00000000000E+00 0. -1.
      99926    2    1    2    0    0  0.00000000000E+00  0.00000000000E+00 -0.54791885366E+03  0.71252218496E+03  0.45549181536E+03 0.  0.
      99925    2    3    3    0    0 -0.30870882232E+02  0.93471197210E+02 -0.25481737389E+03  0.37898678710E+03  0.26269605000E+03 0.  0.
         25    1    4    4    0    0 -0.39173739878E+01  0.79374023876E+02 -0.16631821107E+03  0.22276632806E+03  0.12509000000E+03 0.  0.
         25    1    3    3    0    0  0.30870882232E+02 -0.93471197210E+02 -0.29310147978E+03  0.33353539786E+03  0.12509000000E+03 0.  0.
         25    1    4    4    0    0 -0.26953508245E+02  0.14097173334E+02 -0.88499162822E+02  0.15622045904E+03  0.12509000000E+03 0.  0.
<mgrwt>
<rscale>  2 0.45549182E+03</rscale>
<asrwt>0</asrwt>
<pdfrwt beam="1">  1       21 0.12103186E-01 0.45549182E+03</pdfrwt>
<pdfrwt beam="2">  1       21 0.92679488E-01 0.45549182E+03</pdfrwt>
<totfact> 0.52026778E+04</totfact>
</mgrwt>
</event>
<event>
 7    0  0.4766352E-002  0.4489858E+03  0.7546771E-02  0.1028025E+00
         21   -1    0    0  502  501  0.00000000000E+00  0.00000000000E+00  0.27612864166E+03  0.27612864166E+03  0.00000000000E+00 0. -1.
         21   -1    0    0  501  502 -0.00000000000E+00 -0.00000000000E+00 -0.18251296996E+03  0.18251296996E+03  0.00000000000E+00 0. -1.
      99926    2    1    2    0    0  0.14210854715E-13  0.00000000000E+00  0.93615671699E+02  0.45864161163E+03  0.44898578366E+03 0.  0.
      99925    2    3    3    0    0  0.91934508520E+02 -0.32508110057E+02  0.13187523460E+02  0.28080762667E+03  0.26300243601E+03 0.  0.
         25    1    4    4    0    0  0.27845271781E+02  0.20272741407E+02 -0.31648810783E+01  0.12978392727E+03  0.12509000000E+03 0.  0.
         25    1    3    3    0    0 -0.91934508520E+02  0.32508110057E+02  0.80428148239E+02  0.17783398496E+03  0.12509000000E+03 0.  0.
         25    1    4    4    0    0  0.64089236739E+02 -0.52780851464E+02  0.16352404538E+02  0.15102369940E+03  0.12509000000E+03 0.  0.
<mgrwt>
<rscale>  2 0.44898578E+03</rscale>
<asrwt>0</asrwt>
<pdfrwt beam="1">  1       21 0.40607154E-01 0.44898578E+03</pdfrwt>
<pdfrwt beam="2">  1       21 0.26840142E-01 0.44898578E+03</pdfrwt>
<totfact> 0.71647968E+04</totfact>
</mgrwt>
</event>
<event>
 7    0  0.4766352E-002  0.4471889E+03  0.7546771E-02  0.1028564E+00
         21   -1    0    0  502  501  0.00000000000E+00  0.00000000000E+00  0.21545341869E+03  0.21545341869E+03  0.00000000000E+00 0. -1.
         21   -1    0    0  501  502 -0.00000000000E+00 -0.00000000000E+00 -0.23204313778E+03  0.23204313778E+03  0.00000000000E+00 0. -1.
      99926    2    1    2    0    0  0.14210854715E-13  0.00000000000E+00 -0.16589719092E+02  0.44749655647E+03  0.44718894136E+03 0.  0.
      99925    2    3    3    0    0 -0.99608027854E+02  0.33856516796E+02 -0.21410594547E+02  0.28397661309E+03  0.26289975329E+03 0.  0.
         25    1    3    3    0    0  0.99608027854E+02 -0.33856516796E+02  0.48208754548E+01  0.16351994338E+03  0.12509000000E+03 0.  0.
         25    1    4    4    0    0 -0.61180639180E+02  0.41772601841E+02 -0.41873032727E+02  0.15129071302E+03  0.12509000000E+03 0.  0.
         25    1    4    4    0    0 -0.38427388673E+02 -0.79160850456E+01  0.20462438180E+02  0.13268590008E+03  0.12509000000E+03 0.  0.
<mgrwt>
<rscale>  2 0.44718894E+03</rscale>
<asrwt>0</asrwt>
<pdfrwt beam="1">  1       21 0.31684326E-01 0.44718894E+03</pdfrwt>
<pdfrwt beam="2">  1       21 0.34123991E-01 0.44718894E+03</pdfrwt>
<totfact> 0.73578929E+04</totfact>
</mgrwt>
</event>
<event>
 7    0  0.4766352E-002  0.4473712E+03  0.7546771E-02  0.1028509E+00
         21   -1    0    0  502  501  0.00000000000E+00  0.00000000000E+00  0.66162138193E+03  0.66162138193E+03  0.00000000000E+00 0.  1.
         21   -1    0    0  501  502 -0.00000000000E+00 -0.00000000000E+00 -0.75625194294E+02  0.75625194294E+02  0.00000000000E+00 0.  1.
      99926    2    1    2    0    0  0.00000000000E+00 -0.71054273576E-14  0.58599618764E+03  0.73724657623E+03  0.44737119066E+03 0.  0.
      99925    2    3    3    0    0 -0.84594376496E+02  0.47510625563E+02  0.44030929714E+03  0.52210558469E+03  0.26326506859E+03 0.  0.
         25    1    3    3    0    0  0.84594376496E+02 -0.47510625563E+02  0.14568689049E+03  0.21514099153E+03  0.12509000000E+03 0.  0.
         25    1    4    4    0    0 -0.59707133837E+02  0.62632481842E+02  0.24291779403E+03  0.28660832571E+03  0.12509000000E+03 0.  0.
         25    1    4    4    0    0 -0.24887242659E+02 -0.15121856279E+02  0.19739150311E+03  0.23549725898E+03  0.12509000000E+03 0.  0.
<mgrwt>
<rscale>  2 0.44737119E+03</rscale>
<asrwt>0</asrwt>
<pdfrwt beam="1">  1       21 0.97297259E-01 0.44737119E+03</pdfrwt>
<pdfrwt beam="2">  1       21 0.11121352E-01 0.44737119E+03</pdfrwt>
<totfact> 0.54099401E+04</totfact>
</mgrwt>
</event>
<event>
 7    0  0.4766352E-002  0.4394021E+03  0.7546771E-02  0.1030930E+00
         21   -1    0    0  502  501  0.00000000000E+00  0.00000000000E+00  0.81543349702E+02  0.81543349702E+02  0.00000000000E+00 0.  1.
         21   -1    0    0  501  502 -0.00000000000E+00 -0.00000000000E+00 -0.59193718741E+03  0.59193718741E+03  0.00000000000E+00 0.  1.
      99926    2    1    2    0    0  0.00000000000E+00  0.17763568394E-14 -0.51039383771E+03  0.67348053711E+03  0.43940205313E+03 0.  0.
      99925    2    3    3    0    0 -0.43480487457E+02  0.13966162347E+02 -0.45848939576E+03  0.53055683133E+03  0.26304451860E+03 0.  0.
         25    1    4    4    0    0  0.18159678637E+01  0.95446802531E+01 -0.28888163337E+03  0.31495159129E+03  0.12509000000E+03 0.  0.
         25    1    3    3    0    0  0.43480487457E+02 -0.13966162347E+02 -0.51904441948E+02  0.14292370578E+03  0.12509000000E+03 0.  0.
         25    1    4    4    0    0 -0.45296455321E+02  0.44214820937E+01 -0.16960776239E+03  0.21560524004E+03  0.12509000000E+03 0.  0.
<mgrwt>
<rscale>  2 0.43940205E+03</rscale>
<asrwt>0</asrwt>
<pdfrwt beam="1">  1       21 0.11991669E-01 0.43940205E+03</pdfrwt>
<pdfrwt beam="2">  1       21 0.87049586E-01 0.43940205E+03</pdfrwt>
<totfact> 0.61591625E+04</totfact>
</mgrwt>
</event>
<event>
 7    0  0.4766352E-002  0.4327193E+03  0.7546771E-02  0.1033004E+00
         21   -1    0    0  502  501  0.00000000000E+00  0.00000000000E+00  0.57053287258E+03  0.57053287258E+03  0.00000000000E+00 0. -1.
         21   -1    0    0  501  502 -0.00000000000E+00 -0.00000000000E+00 -0.82048728277E+02  0.82048728277E+02  0.00000000000E+00 0. -1.
      99926    2    1    2    0    0  0.00000000000E+00  0.00000000000E+00  0.48848414430E+03  0.65258160085E+03  0.43271929301E+03 0.  0.
      99925    2    3    3    0    0 -0.55117100969E+02 -0.66602949320E+02  0.27299119760E+03  0.38884202124E+03  0.26305907290E+03 0.  0.
         25    1    4    4    0    0 -0.52803654161E+01 -0.54942979890E+02  0.17410081056E+03  0.22137121230E+03  0.12509000000E+03 0.  0.
         25    1    4    4    0    0 -0.49836735553E+02 -0.11659969430E+02  0.98890387041E+02  0.16747080894E+03  0.12509000000E+03 0.  0.
         25    1    3    3    0    0  0.55117100969E+02  0.66602949320E+02  0.21549294670E+03  0.26373957962E+03  0.12509000000E+03 0.  0.
<mgrwt>
<rscale>  2 0.43271929E+03</rscale>
<asrwt>0</asrwt>
<pdfrwt beam="1">  1       21 0.83901891E-01 0.43271929E+03</pdfrwt>
<pdfrwt beam="2">  1       21 0.12065990E-01 0.43271929E+03</pdfrwt>
<totfact> 0.66482943E+04</totfact>
</mgrwt>
</event>
<event>
 7    0  0.4766352E-002  0.4407562E+03  0.7546771E-02  0.1030515E+00
         21   -1    0    0  502  501  0.00000000000E+00  0.00000000000E+00  0.40832507437E+03  0.40832507437E+03  0.00000000000E+00 0.  1.
         21   -1    0    0  501  502 -0.00000000000E+00 -0.00000000000E+00 -0.11894079725E+03  0.11894079725E+03  0.00000000000E+00 0.  1.
      99926    2    1    2    0    0  0.00000000000E+00  0.00000000000E+00  0.28938427712E+03  0.52726587161E+03  0.44075621325E+03 0.  0.
      99925    2    3    3    0    0 -0.56826593054E+02 -0.76548776115E+02  0.21259710830E+03  0.35224371816E+03  0.26417632317E+03 0.  0.
         25    1    4    4    0    0 -0.21417270390E+02  0.24978942693E+01  0.77167198399E+02  0.14855040746E+03  0.12509000000E+03 0.  0.
         25    1    4    4    0    0 -0.35409322664E+02 -0.79046670385E+02  0.13542990990E+03  0.20369331070E+03  0.12509000000E+03 0.  0.
         25    1    3    3    0    0  0.56826593054E+02  0.76548776115E+02  0.76787168826E+02  0.17502215345E+03  0.12509000000E+03 0.  0.
<mgrwt>
<rscale>  2 0.44075621E+03</rscale>
<asrwt>0</asrwt>
<pdfrwt beam="1">  1       21 0.60047805E-01 0.44075621E+03</pdfrwt>
<pdfrwt beam="2">  1       21 0.17491294E-01 0.44075621E+03</pdfrwt>
<totfact> 0.71076025E+04</totfact>
</mgrwt>
</event>
<event>
 7    0  0.4766352E-002  0.4524616E+03  0.7546771E-02  0.1026991E+00
         21   -1    0    0  502  501  0.00000000000E+00  0.00000000000E+00  0.35610318262E+03  0.35610318262E+03  0.00000000000E+00 0. -1.
         21   -1    0    0  501  502 -0.00000000000E+00 -0.00000000000E+00 -0.14372341639E+03  0.14372341639E+03  0.00000000000E+00 0. -1.
      99926    2    1    2    0    0  0.00000000000E+00 -0.14210854715E-13  0.21237976623E+03  0.49982659902E+03  0.45246156078E+03 0.  0.
      99925    2    3    3    0    0 -0.75119661452E+02  0.81326963413E+02  0.13070418516E+03  0.31388185680E+03  0.26302318813E+03 0.  0.
         25    1    3    3    0    0  0.75119661452E+02 -0.81326963413E+02  0.81675581071E+02  0.18594474222E+03  0.12509000000E+03 0.  0.
         25    1    4    4    0    0 -0.56009349311E+02  0.80156836730E+02  0.69767436702E+02  0.17342770542E+03  0.12509000000E+03 0.  0.
         25    1    4    4    0    0 -0.19110312141E+02  0.11701266832E+01  0.60936748455E+02  0.14045415138E+03  0.12509000000E+03 0.  0.
<mgrwt>
<rscale>  2 0.45246156E+03</rscale>
<asrwt>0</asrwt>
<pdfrwt beam="1">  1       21 0.52368115E-01 0.45246156E+03</pdfrwt>
<pdfrwt beam="2">  1       21 0.21135797E-01 0.45246156E+03</pdfrwt>
<totfact> 0.66615041E+04</totfact>
</mgrwt>
</event>
<event>
 7    0  0.4766352E-002  0.4476704E+03  0.7546771E-02  0.1028419E+00
         21   -1    0    0  502  501  0.00000000000E+00  0.00000000000E+00  0.72352956566E+03  0.72352956566E+03  0.00000000000E+00 0.  1.
         21   -1    0    0  501  502 -0.00000000000E+00 -0.00000000000E+00 -0.69246913774E+02  0.69246913774E+02  0.00000000000E+00 0.  1.
      99926    2    1    2    0    0 -0.14210854715E-13  0.00000000000E+00  0.65428265189E+03  0.79277647943E+03  0.44767036733E+03 0.  0.
      99925    2    3    3    0    0  0.97229431649E+02  0.41753483253E+02  0.42409210521E+03  0.51023071036E+03  0.26321920209E+03 0.  0.
         25    1    4    4    0    0  0.73283412717E+02  0.46292335351E+02  0.18742004150E+03  0.24142746105E+03  0.12509000000E+03 0.  0.
         25    1    4    4    0    0  0.23946018932E+02 -0.45388520984E+01  0.23667206371E+03  0.26880324931E+03  0.12509000000E+03 0.  0.
         25    1    3    3    0    0 -0.97229431649E+02 -0.41753483253E+02  0.23019054667E+03  0.28254576907E+03  0.12509000000E+03 0.  0.
<mgrwt>
<rscale>  2 0.44767037E+03</rscale>
<asrwt>0</asrwt>
<pdfrwt beam="1">  1       21 0.10640140E+00 0.44767037E+03</pdfrwt>
<pdfrwt beam="2">  1       21 0.10183370E-01 0.44767037E+03</pdfrwt>
<totfact> 0.50986557E+04</totfact>
</mgrwt>
</event>
<event>
 7    0  0.4766352E-002  0.4603375E+03  0.7546771E-02  0.1024683E+00
         21   -1    0    0  502  501  0.00000000000E+00  0.00000000000E+00  0.32923235750E+03  0.32923235750E+03  0.00000000000E+00 0. -1.
         21   -1    0    0  501  502 -0.00000000000E+00 -0.00000000000E+00 -0.16091266508E+03  0.16091266508E+03  0.00000000000E+00 0. -1.
      99926    2    1    2    0    0  0.00000000000E+00  0.00000000000E+00  0.16831969243E+03  0.49014502258E+03  0.46033751129E+03 0.  0.
      99925    2    3    3    0    0  0.95361351380E+02  0.23515985166E+02  0.35462772287E+02  0.28291264523E+03  0.26293567220E+03 0.  0.
         25    1    4    4    0    0  0.45152686037E+02 -0.96297798218E+01  0.52013103540E+02  0.14312361355E+03  0.12509000000E+03 0.  0.
         25    1    4    4    0    0  0.50208665343E+02  0.33145764988E+02 -0.16550331253E+02  0.13978903168E+03  0.12509000000E+03 0.  0.
         25    1    3    3    0    0 -0.95361351380E+02 -0.23515985166E+02  0.13285692014E+03  0.20723237736E+03  0.12509000000E+03 0.  0.
<mgrwt>
<rscale>  2 0.46033751E+03</rscale>
<asrwt>0</asrwt>
<pdfrwt beam="1">  1       21 0.48416523E-01 0.46033751E+03</pdfrwt>
<pdfrwt beam="2">  1       21 0.23663627E-01 0.46033751E+03</pdfrwt>
<totfact> 0.63246059E+04</totfact>
</mgrwt>
</event>
<event>
 7    0  0.4766352E-002  0.4550284E+03  0.7546771E-02  0.1026233E+00
         21   -1    0    0  502  501  0.00000000000E+00  0.00000000000E+00  0.47939094972E+02  0.47939094972E+02  0.00000000000E+00 0.  1.
         21   -1    0    0  501  502 -0.00000000000E+00 -0.00000000000E+00 -0.10797597301E+04  0.10797597301E+04  0.00000000000E+00 0.  1.
      99926    2    1    2    0    0 -0.71054273576E-14  0.00000000000E+00 -0.10318206351E+04  0.11276988251E+04  0.45502836944E+03 0.  0.
      99925    2    3    3    0    0  0.44938446257E+02  0.93460304569E+02 -0.76184506396E+03  0.81259787361E+03  0.26296978960E+03 0.  0.
         25    1    3    3    0    0 -0.44938446257E+02 -0.93460304569E+02 -0.26997557119E+03  0.31510095148E+03  0.12509000000E+03 0.  0.
         25    1    4    4    0    0  0.43638858826E+02  0.48291734160E+02 -0.49118161909E+03  0.51102185141E+03  0.12509000000E+03 0.  0.
         25    1    4    4    0    0  0.12995874308E+01  0.45168570409E+02 -0.27066344487E+03  0.30157602220E+03  0.12509000000E+03 0.  0.
<mgrwt>
<rscale>  2 0.45502837E+03</rscale>
<asrwt>0</asrwt>
<pdfrwt beam="1">  1       21 0.70498676E-02 0.45502837E+03</pdfrwt>
<pdfrwt beam="2">  1       21 0.15878818E+00 0.45502837E+03</pdfrwt>
<totfact> 0.34528106E+04</totfact>
</mgrwt>
</event>
<event>
 7    0  0.4766352E-002  0.4323756E+03  0.7546771E-02  0.1033112E+00
         21   -1    0    0  502  501  0.00000000000E+00  0.00000000000E+00  0.81103180704E+02  0.81103180704E+02  0.00000000000E+00 0.  1.
         21   -1    0    0  501  502 -0.00000000000E+00 -0.00000000000E+00 -0.57626797095E+03  0.57626797095E+03  0.00000000000E+00 0.  1.
      99926    2    1    2    0    0 -0.35527136788E-14  0.00000000000E+00 -0.49516479024E+03  0.65737115165E+03  0.43237560237E+03 0.  0.
      99925    2    3    3    0    0 -0.29270379286E+02 -0.84869995440E+02 -0.33590632420E+03  0.43585266859E+03  0.26282088740E+03 0.  0.
         25    1    4    4    0    0  0.23860040109E+02 -0.45033587858E+02 -0.14522654728E+03  0.19833200368E+03  0.12509000000E+03 0.  0.
         25    1    4    4    0    0 -0.53130419395E+02 -0.39836407582E+02 -0.19067977691E+03  0.23752066491E+03  0.12509000000E+03 0.  0.
         25    1    3    3    0    0  0.29270379286E+02  0.84869995440E+02 -0.15925846604E+03  0.22151848306E+03  0.12509000000E+03 0.  0.
<mgrwt>
<rscale>  2 0.43237560E+03</rscale>
<asrwt>0</asrwt>
<pdfrwt beam="1">  1       21 0.11926938E-01 0.43237560E+03</pdfrwt>
<pdfrwt beam="2">  1       21 0.84745291E-01 0.43237560E+03</pdfrwt>
<totfact> 0.66339269E+04</totfact>
</mgrwt>
</event>
<event>
 6    0  0.4766352E-002  0.4540889E+03  0.7546771E-02  0.1026510E+00
         21   -1    0    0  502  501  0.00000000000E+00  0.00000000000E+00  0.65056853284E+03  0.65056853284E+03  0.00000000000E+00 0. -1.
         21   -1    0    0  501  502 -0.00000000000E+00 -0.00000000000E+00 -0.79237141468E+02  0.79237141468E+02  0.00000000000E+00 0. -1.
      99926    2    1    2    0    0 -0.35527136788E-14 -0.71054273576E-14  0.57133139137E+03  0.72980567431E+03  0.45408893786E+03 0.  0.
         25    1    3    3    0    0 -0.29889570221E+02 -0.49540163922E+02  0.65684371889E+02  0.15267468376E+03  0.12509000000E+03 0.  0.
         25    1    3    3    0    0  0.10807786074E+02 -0.28830971586E+02  0.25269335483E+03  0.28363616278E+03  0.12509000000E+03 0.  0.
         25    1    3    3    0    0  0.19081784147E+02  0.78371135508E+02  0.25295366465E+03  0.29349482777E+03  0.12509000000E+03 0.  0.
<mgrwt>
<rscale>  2 0.45408894E+03</rscale>
<asrwt>0</asrwt>
<pdfrwt beam="1">  1       21 0.95671840E-01 0.45408894E+03</pdfrwt>
<pdfrwt beam="2">  1       21 0.11652521E-01 0.45408894E+03</pdfrwt>
<totfact> 0.51683713E+04</totfact>
</mgrwt>
</event>
<event>
 7    0  0.4766352E-002  0.4021061E+03  0.7546771E-02  0.1043053E+00
         21   -1    0    0  502  501  0.00000000000E+00  0.00000000000E+00  0.89831584678E+03  0.89831584678E+03  0.00000000000E+00 0.  1.
         21   -1    0    0  501  502 -0.00000000000E+00 -0.00000000000E+00 -0.44997900485E+02  0.44997900485E+02  0.00000000000E+00 0.  1.
      99926    2    1    2    0    0  0.71054273576E-14  0.00000000000E+00  0.85331794630E+03  0.94331374727E+03  0.40210609086E+03 0.  0.
      99925    2    3    3    0    0  0.40586265916E+02 -0.10521021406E+02  0.62950003166E+03  0.68350631110E+03  0.26296891563E+03 0.  0.
         25    1    3    3    0    0 -0.40586265916E+02  0.10521021406E+02  0.22381791464E+03  0.25980743617E+03  0.12509000000E+03 0.  0.
         25    1    4    4    0    0 -0.13815137639E+02 -0.27425323059E+02  0.29897320160E+03  0.32553876843E+03  0.12509000000E+03 0.  0.
         25    1    4    4    0    0  0.54401403555E+02  0.16904301653E+02  0.33052683005E+03  0.35796754267E+03  0.12509000000E+03 0.  0.
<mgrwt>
<rscale>  2 0.40210609E+03</rscale>
<asrwt>0</asrwt>
<pdfrwt beam="1">  1       21 0.13210526E+00 0.40210609E+03</pdfrwt>
<pdfrwt beam="2">  1       21 0.66173389E-02 0.40210609E+03</pdfrwt>
<totfact> 0.64099977E+04</totfact>
</mgrwt>
</event>
<event>
 7    0  0.4766352E-002  0.4471291E+03  0.7546771E-02  0.1028582E+00
         21   -1    0    0  502  501  0.00000000000E+00  0.00000000000E+00  0.99538890725E+03  0.99538890725E+03  0.00000000000E+00 0.  1.
         21   -1    0    0  501  502 -0.00000000000E+00 -0.00000000000E+00 -0.50212633211E+02  0.50212633211E+02  0.00000000000E+00 0.  1.
      99926    2    1    2    0    0  0.00000000000E+00  0.00000000000E+00  0.94517627404E+03  0.10456015405E+04  0.44712905565E+03 0.  0.
      99925    2    3    3    0    0  0.92481134243E+02 -0.13442686961E+02  0.48415554758E+03  0.55885614053E+03  0.26302115036E+03 0.  0.
         25    1    4    4    0    0  0.54298938451E+02 -0.43140474244E+02  0.28300103535E+03  0.31709079038E+03  0.12509000000E+03 0.  0.
         25    1    4    4    0    0  0.38182195793E+02  0.29697787283E+02  0.20115451223E+03  0.24176535016E+03  0.12509000000E+03 0.  0.
         25    1    3    3    0    0 -0.92481134243E+02  0.13442686961E+02  0.46102072646E+03  0.48674539993E+03  0.12509000000E+03 0.  0.
<mgrwt>
<rscale>  2 0.44712906E+03</rscale>
<asrwt>0</asrwt>
<pdfrwt beam="1">  1       21 0.14638071E+00 0.44712906E+03</pdfrwt>
<pdfrwt beam="2">  1       21 0.73842114E-02 0.44712906E+03</pdfrwt>
<totfact> 0.39830579E+04</totfact>
</mgrwt>
</event>
<event>
 7    0  0.4766352E-002  0.4559532E+03  0.7546771E-02  0.1025961E+00
         21   -1    0    0  502  501  0.00000000000E+00  0.00000000000E+00  0.74245810488E+03  0.74245810488E+03  0.00000000000E+00 0.  1.
         21   -1    0    0  501  502 -0.00000000000E+00 -0.00000000000E+00 -0.70001700732E+02  0.70001700732E+02  0.00000000000E+00 0.  1.
      99926    2    1    2    0    0  0.00000000000E+00  0.00000000000E+00  0.67245640415E+03  0.81245980561E+03  0.45595319963E+03 0.  0.
      99925    2    3    3    0    0  0.68631813134E+02  0.71058215855E+02  0.52474080163E+03  0.59514205866E+03  0.26283372172E+03 0.  0.
         25    1    3    3    0    0 -0.68631813134E+02 -0.71058215855E+02  0.14771560252E+03  0.21731774695E+03  0.12509000000E+03 0.  0.
         25    1    4    4    0    0  0.58608113628E+02  0.15826797193E+02  0.31799950856E+03  0.34706857253E+03  0.12509000000E+03 0.  0.
         25    1    4    4    0    0  0.10023699507E+02  0.55231418662E+02  0.20674129307E+03  0.24807348612E+03  0.12509000000E+03 0.  0.
<mgrwt>
<rscale>  2 0.45595320E+03</rscale>
<asrwt>0</asrwt>
<pdfrwt beam="1">  1       21 0.10918501E+00 0.45595320E+03</pdfrwt>
<pdfrwt beam="2">  1       21 0.10294368E-01 0.45595320E+03</pdfrwt>
<totfact> 0.46816878E+04</totfact>
</mgrwt>
</event>
<event>
 7    0  0.4766352E-002  0.4562225E+03  0.7546771E-02  0.1025883E+00
         21   -1    0    0  502  501  0.00000000000E+00  0.00000000000E+00  0.80431208236E+03  0.80431208236E+03  0.00000000000E+00 0. -1.
         21   -1    0    0  501  502 -0.00000000000E+00 -0.00000000000E+00 -0.64694727327E+02  0.64694727327E+02  0.00000000000E+00 0. -1.
      99926    2    1    2    0    0  0.00000000000E+00  0.00000000000E+00  0.73961735503E+03  0.86900680969E+03  0.45622253716E+03 0.  0.
      99925    2    3    3    0    0 -0.71920750004E+02  0.65734020099E+02  0.57877229829E+03  0.64314801296E+03  0.26299893085E+03 0.  0.
         25    1    4    4    0    0 -0.70808038682E+01  0.60426208779E+02  0.30396227122E+03  0.33427837937E+03  0.12509000000E+03 0.  0.
         25    1    4    4    0    0 -0.64839946136E+02  0.53078113205E+01  0.27481002707E+03  0.30886963359E+03  0.12509000000E+03 0.  0.
         25    1    3    3    0    0  0.71920750004E+02 -0.65734020099E+02  0.16084505675E+03  0.22585879673E+03  0.12509000000E+03 0.  0.
<mgrwt>
<rscale>  2 0.45622254E+03</rscale>
<asrwt>0</asrwt>
<pdfrwt beam="1">  1       21 0.11828118E+00 0.45622254E+03</pdfrwt>
<pdfrwt beam="2">  1       21 0.95139309E-02 0.45622254E+03</pdfrwt>
<totfact> 0.44175514E+04</totfact>
</mgrwt>
</event>
<event>
 7    0  0.4766352E-002  0.4567549E+03  0.7546771E-02  0.1025727E+00
         21   -1    0    0  502  501  0.00000000000E+00  0.00000000000E+00  0.17863958869E+03  0.17863958869E+03  0.00000000000E+00 0.  1.
         21   -1    0    0  501  502 -0.00000000000E+00 -0.00000000000E+00 -0.29196357623E+03  0.29196357623E+03  0.00000000000E+00 0.  1.
      99926    2    1    2    0    0  0.00000000000E+00  0.00000000000E+00 -0.11332398753E+03  0.47060316492E+03  0.45675487155E+03 0.  0.
      99925    2    3    3    0    0  0.35888633533E+02 -0.84783473699E+02 -0.14183769436E+03  0.31268935613E+03  0.26302180607E+03 0.  0.
         25    1    4    4    0    0  0.80338817546E+01 -0.81018017149E+02 -0.61744179495E+02  0.16151877340E+03  0.12509000000E+03 0.  0.
         25    1    3    3    0    0 -0.35888633533E+02  0.84783473699E+02  0.28513706828E+02  0.15791380879E+03  0.12509000000E+03 0.  0.
         25    1    4    4    0    0  0.27854751778E+02 -0.37654565493E+01 -0.80093514867E+02  0.15117058273E+03  0.12509000000E+03 0.  0.
<mgrwt>
<rscale>  2 0.45675487E+03</rscale>
<asrwt>0</asrwt>
<pdfrwt beam="1">  1       21 0.26270528E-01 0.45675487E+03</pdfrwt>
<pdfrwt beam="2">  1       21 0.42935820E-01 0.45675487E+03</pdfrwt>
<totfact> 0.66460877E+04</totfact>
</mgrwt>
</event>
<event>
 7    0  0.4766352E-002  0.4586177E+03  0.7546771E-02  0.1025183E+00
         21   -1    0    0  502  501  0.00000000000E+00  0.00000000000E+00  0.12371110031E+03  0.12371110031E+03  0.00000000000E+00 0.  1.
         21   -1    0    0  501  502 -0.00000000000E+00 -0.00000000000E+00 -0.42504305021E+03  0.42504305021E+03  0.00000000000E+00 0.  1.
      99926    2    1    2    0    0 -0.35527136788E-14  0.00000000000E+00 -0.30133194990E+03  0.54875415052E+03  0.45861767703E+03 0.  0.
      99925    2    3    3    0    0 -0.38777401862E+01 -0.11633759772E+03 -0.19638242197E+03  0.34822638430E+03  0.26295643280E+03 0.  0.
         25    1    4    4    0    0 -0.37561747251E+02 -0.72535167865E+02 -0.85225584946E+02  0.17199751121E+03  0.12509000000E+03 0.  0.
         25    1    4    4    0    0  0.33684007065E+02 -0.43802429859E+02 -0.11115683702E+03  0.17622887309E+03  0.12509000000E+03 0.  0.
         25    1    3    3    0    0  0.38777401862E+01  0.11633759772E+03 -0.10494952793E+03  0.20052776622E+03  0.12509000000E+03 0.  0.
<mgrwt>
<rscale>  2 0.45861768E+03</rscale>
<asrwt>0</asrwt>
<pdfrwt beam="1">  1       21 0.18192809E-01 0.45861768E+03</pdfrwt>
<pdfrwt beam="2">  1       21 0.62506329E-01 0.45861768E+03</pdfrwt>
<totfact> 0.60206962E+04</totfact>
</mgrwt>
</event>
<event>
 7    0  0.4766352E-002  0.4557835E+03  0.7546771E-02  0.1026011E+00
         21   -1    0    0  502  501  0.00000000000E+00  0.00000000000E+00  0.28379526950E+04  0.28379526950E+04  0.00000000000E+00 0.  1.
         21   -1    0    0  501  502 -0.00000000000E+00 -0.00000000000E+00 -0.18300043282E+02  0.18300043282E+02  0.00000000000E+00 0.  1.
      99926    2    1    2    0    0  0.00000000000E+00  0.17763568394E-14  0.28196526517E+04  0.28562527382E+04  0.45578353261E+03 0.  0.
      99925    2    3    3    0    0 -0.78210853037E+01 -0.94670636372E+01  0.10650039596E+04  0.10971079644E+04  0.26317609483E+03 0.  0.
         25    1    3    3    0    0  0.78210853037E+01  0.94670636372E+01  0.17546486920E+04  0.17591447738E+04  0.12509000000E+03 0.  0.
         25    1    4    4    0    0  0.77727147735E+01 -0.43410022179E+02  0.56191882833E+03  0.57736047912E+03  0.12509000000E+03 0.  0.
         25    1    4    4    0    0 -0.15593800077E+02  0.33942958542E+02  0.50308513132E+03  0.51974748531E+03  0.12509000000E+03 0.  0.
<mgrwt>
<rscale>  2 0.45578353E+03</rscale>
<asrwt>0</asrwt>
<pdfrwt beam="1">  1       21 0.41734568E+00 0.45578353E+03</pdfrwt>
<pdfrwt beam="2">  1       21 0.26911848E-02 0.45578353E+03</pdfrwt>
<totfact> 0.41053729E+03</totfact>
</mgrwt>
</event>
<event>
 7    0  0.4766352E-002  0.4528146E+03  0.7546771E-02  0.1026886E+00
         21   -1    0    0  502  501  0.00000000000E+00  0.00000000000E+00  0.27696030207E+03  0.27696030207E+03  0.00000000000E+00 0.  1.
         21   -1    0    0  501  502 -0.00000000000E+00 -0.00000000000E+00 -0.18508160906E+03  0.18508160906E+03  0.00000000000E+00 0.  1.
      99926    2    1    2    0    0  0.00000000000E+00  0.44408920985E-15  0.91878693001E+02  0.46204191113E+03  0.45281456846E+03 0.  0.
      99925    2    3    3    0    0 -0.45640136053E+02  0.32584844005E+01  0.16115534711E+03  0.31190729606E+03  0.26309974476E+03 0.  0.
         25    1    4    4    0    0 -0.70417593661E+01  0.39187521036E+02  0.81345945532E+02  0.15443419030E+03  0.12509000000E+03 0.  0.
         25    1    3    3    0    0  0.45640136053E+02 -0.32584844005E+01 -0.69276654105E+02  0.15013461507E+03  0.12509000000E+03 0.  0.
         25    1    4    4    0    0 -0.38598376686E+02 -0.35929036635E+02  0.79809401574E+02  0.15747310575E+03  0.12509000000E+03 0.  0.
<mgrwt>
<rscale>  2 0.45281457E+03</rscale>
<asrwt>0</asrwt>
<pdfrwt beam="1">  1       21 0.40729456E-01 0.45281457E+03</pdfrwt>
<pdfrwt beam="2">  1       21 0.27217884E-01 0.45281457E+03</pdfrwt>
<totfact> 0.69225221E+04</totfact>
</mgrwt>
</event>
<event>
 7    0  0.4766352E-002  0.4546819E+03  0.7546771E-02  0.1026335E+00
         21   -1    0    0  502  501  0.00000000000E+00  0.00000000000E+00  0.25359107220E+03  0.25359107220E+03  0.00000000000E+00 0.  1.
         21   -1    0    0  501  502 -0.00000000000E+00 -0.00000000000E+00 -0.20380803209E+03  0.20380803209E+03  0.00000000000E+00 0.  1.
      99926    2    1    2    0    0  0.71054273576E-14  0.00000000000E+00  0.49783040115E+02  0.45739910429E+03  0.45468185528E+03 0.  0.
      99925    2    3    3    0    0 -0.59424336768E+02  0.81751356721E+02  0.82131158846E+02  0.29336116657E+03  0.26287014032E+03 0.  0.
         25    1    4    4    0    0 -0.56197755597E+02  0.44124296225E+02  0.75216130023E+02  0.16251189362E+03  0.12509000000E+03 0.  0.
         25    1    3    3    0    0  0.59424336768E+02 -0.81751356721E+02 -0.32348118731E+02  0.16403793772E+03  0.12509000000E+03 0.  0.
         25    1    4    4    0    0 -0.32265811713E+01  0.37627060496E+02  0.69150288228E+01  0.13084927295E+03  0.12509000000E+03 0.  0.
<mgrwt>
<rscale>  2 0.45468186E+03</rscale>
<asrwt>0</asrwt>
<pdfrwt beam="1">  1       21 0.37292805E-01 0.45468186E+03</pdfrwt>
<pdfrwt beam="2">  1       21 0.29971769E-01 0.45468186E+03</pdfrwt>
<totfact> 0.68544163E+04</totfact>
</mgrwt>
</event>
<event>
 7    0  0.4766352E-002  0.4603995E+03  0.7546771E-02  0.1024665E+00
         21   -1    0    0  502  501  0.00000000000E+00  0.00000000000E+00  0.43511255270E+02  0.43511255270E+02  0.00000000000E+00 0.  1.
         21   -1    0    0  501  502 -0.00000000000E+00 -0.00000000000E+00 -0.12178898389E+04  0.12178898389E+04  0.00000000000E+00 0.  1.
      99926    2    1    2    0    0  0.00000000000E+00  0.00000000000E+00 -0.11743785836E+04  0.12614010942E+04  0.46039945991E+03 0.  0.
      99925    2    3    3    0    0 -0.54907772977E+02  0.54728538761E+01 -0.10216918150E+04  0.10564484824E+04  0.26302930530E+03 0.  0.
         25    1    4    4    0    0 -0.57220380275E+02  0.88805608018E+01 -0.42583652014E+03  0.44759053415E+03  0.12509000000E+03 0.  0.
         25    1    3    3    0    0  0.54907772977E+02 -0.54728538761E+01 -0.15268676865E+03  0.20495261180E+03  0.12509000000E+03 0.  0.
         25    1    4    4    0    0  0.23126072977E+01 -0.34077069257E+01 -0.59585529484E+03  0.60885794822E+03  0.12509000000E+03 0.  0.
<mgrwt>
<rscale>  2 0.46039946E+03</rscale>
<asrwt>0</asrwt>
<pdfrwt beam="1">  1       21 0.63987147E-02 0.46039946E+03</pdfrwt>
<pdfrwt beam="2">  1       21 0.17910143E+00 0.46039946E+03</pdfrwt>
<totfact> 0.29017754E+04</totfact>
</mgrwt>
</event>
<event>
 7    0  0.4766352E-002  0.4461474E+03  0.7546771E-02  0.1028877E+00
         21   -1    0    0  502  501  0.00000000000E+00  0.00000000000E+00  0.39496738493E+02  0.39496738493E+02  0.00000000000E+00 0. -1.
         21   -1    0    0  501  502 -0.00000000000E+00 -0.00000000000E+00 -0.12598982130E+04  0.12598982130E+04  0.00000000000E+00 0. -1.
      99926    2    1    2    0    0  0.35527136788E-14  0.00000000000E+00 -0.12204014745E+04  0.12993949515E+04  0.44614737585E+03 0.  0.
      99925    2    3    3    0    0  0.19740821361E+02  0.88244363835E+02 -0.62093555763E+03  0.68037664694E+03  0.26301073589E+03 0.  0.
         25    1    3    3    0    0 -0.19740821361E+02 -0.88244363835E+02 -0.59946591685E+03  0.61901830453E+03  0.12509000000E+03 0.  0.
         25    1    4    4    0    0 -0.29651790766E+02  0.35025550632E+02 -0.28353977763E+03  0.31328634105E+03  0.12509000000E+03 0.  0.
         25    1    4    4    0    0  0.49392612126E+02  0.53218813203E+02 -0.33739578001E+03  0.36709030589E+03  0.12509000000E+03 0.  0.
<mgrwt>
<rscale>  2 0.44614738E+03</rscale>
<asrwt>0</asrwt>
<pdfrwt beam="1">  1       21 0.58083440E-02 0.44614738E+03</pdfrwt>
<pdfrwt beam="2">  1       21 0.18527914E+00 0.44614738E+03</pdfrwt>
<totfact> 0.31227499E+04</totfact>
</mgrwt>
</event>
<event>
 7    0  0.4766352E-002  0.4520471E+03  0.7546771E-02  0.1027113E+00
         21   -1    0    0  502  501  0.00000000000E+00  0.00000000000E+00  0.94951293411E+03  0.94951293411E+03  0.00000000000E+00 0. -1.
         21   -1    0    0  501  502 -0.00000000000E+00 -0.00000000000E+00 -0.53803011199E+02  0.53803011199E+02  0.00000000000E+00 0. -1.
      99926    2    1    2    0    0  0.00000000000E+00  0.00000000000E+00  0.89570992291E+03  0.10033159453E+04  0.45204714368E+03 0.  0.
      99925    2    3    3    0    0  0.89027128188E+01 -0.88356409417E+02  0.42000871696E+03  0.50349071703E+03  0.26307692113E+03 0.  0.
         25    1    4    4    0    0 -0.25463460535E+02 -0.54624825148E+02  0.16712309794E+03  0.21727838666E+03  0.12509000000E+03 0.  0.
         25    1    4    4    0    0  0.34366173354E+02 -0.33731584269E+02  0.25288561902E+03  0.28621233037E+03  0.12509000000E+03 0.  0.
         25    1    3    3    0    0 -0.89027128188E+01  0.88356409417E+02  0.47570120595E+03  0.49982522828E+03  0.12509000000E+03 0.  0.
<mgrwt>
<rscale>  2 0.45204714E+03</rscale>
<asrwt>0</asrwt>
<pdfrwt beam="1">  1       21 0.13963425E+00 0.45204714E+03</pdfrwt>
<pdfrwt beam="2">  1       21 0.79122081E-02 0.45204714E+03</pdfrwt>
<totfact> 0.39951431E+04</totfact>
</mgrwt>
</event>
<event>
 7    0  0.4766352E-002  0.4677415E+03  0.7546771E-02  0.1022560E+00
         21   -1    0    0  502  501  0.00000000000E+00  0.00000000000E+00  0.80610827287E+03  0.80610827287E+03  0.00000000000E+00 0.  1.
         21   -1    0    0  501  502 -0.00000000000E+00 -0.00000000000E+00 -0.67851344307E+02  0.67851344307E+02  0.00000000000E+00 0.  1.
      99926    2    1    2    0    0  0.00000000000E+00  0.00000000000E+00  0.73825692856E+03  0.87395961718E+03  0.46774150969E+03 0.  0.
      99925    2    3    3    0    0 -0.43339864181E+02  0.11444487017E+03  0.41459392270E+03  0.50601774460E+03  0.26303966425E+03 0.  0.
         25    1    4    4    0    0 -0.11487795097E+02  0.17147618826E+02  0.15547527385E+03  0.20061425459E+03  0.12509000000E+03 0.  0.
         25    1    4    4    0    0 -0.31852069085E+02  0.97297251340E+02  0.25911864885E+03  0.30540349000E+03  0.12509000000E+03 0.  0.
         25    1    3    3    0    0  0.43339864181E+02 -0.11444487017E+03  0.32366300586E+03  0.36794187258E+03  0.12509000000E+03 0.  0.
<mgrwt>
<rscale>  2 0.46774151E+03</rscale>
<asrwt>0</asrwt>
<pdfrwt beam="1">  1       21 0.11854533E+00 0.46774151E+03</pdfrwt>
<pdfrwt beam="2">  1       21 0.99781393E-02 0.46774151E+03</pdfrwt>
<totfact> 0.40212707E+04</totfact>
</mgrwt>
</event>
<event>
 7    0  0.4766352E-002  0.4547798E+03  0.7546771E-02  0.1026306E+00
         21   -1    0    0  502  501  0.00000000000E+00  0.00000000000E+00  0.80351608637E+03  0.80351608637E+03  0.00000000000E+00 0. -1.
         21   -1    0    0  501  502 -0.00000000000E+00 -0.00000000000E+00 -0.64349875933E+02  0.64349875933E+02  0.00000000000E+00 0. -1.
      99926    2    1    2    0    0  0.00000000000E+00  0.00000000000E+00  0.73916621044E+03  0.86786596231E+03  0.45477977294E+03 0.  0.
      99925    2    3    3    0    0 -0.98672835086E+02  0.33125704628E+02  0.38112497858E+03  0.47457895196E+03  0.26293590789E+03 0.  0.
         25    1    4    4    0    0 -0.47627715070E+02  0.19339000629E+02  0.25786412261E+03  0.29117659593E+03  0.12509000000E+03 0.  0.
         25    1    4    4    0    0 -0.51045120016E+02  0.13786703999E+02  0.12326085597E+03  0.18340235603E+03  0.12509000000E+03 0.  0.
         25    1    3    3    0    0  0.98672835086E+02 -0.33125704628E+02  0.35804123186E+03  0.39328701034E+03  0.12509000000E+03 0.  0.
<mgrwt>
<rscale>  2 0.45477977E+03</rscale>
<asrwt>0</asrwt>
<pdfrwt beam="1">  1       21 0.11816412E+00 0.45477977E+03</pdfrwt>
<pdfrwt beam="2">  1       21 0.94632175E-02 0.45477977E+03</pdfrwt>
<totfact> 0.44727512E+04</totfact>
</mgrwt>
</event>
<event>
 7    0  0.4766352E-002  0.4632738E+03  0.7546771E-02  0.1023836E+00
         21   -1    0    0  502  501  0.00000000000E+00  0.00000000000E+00  0.36564311819E+03  0.36564311819E+03  0.00000000000E+00 0. -1.
         21   -1    0    0  501  502 -0.00000000000E+00 -0.00000000000E+00 -0.14674323422E+03  0.14674323422E+03  0.00000000000E+00 0. -1.
      99926    2    1    2    0    0  0.71054273576E-14  0.71054273576E-14  0.21889988397E+03  0.51238635241E+03  0.46327380126E+03 0.  0.
      99925    2    3    3    0    0  0.45086758737E+02  0.45686292538E+02  0.24983347445E+03  0.36842646821E+03  0.26306129397E+03 0.  0.
         25    1    4    4    0    0  0.26861583217E+02  0.49993002612E+02  0.88422140505E+02  0.16336103573E+03  0.12509000000E+03 0.  0.
         25    1    4    4    0    0  0.18225175519E+02 -0.43067100737E+01  0.16141133394E+03  0.20506543248E+03  0.12509000000E+03 0.  0.
         25    1    3    3    0    0 -0.45086758737E+02 -0.45686292538E+02 -0.30933590476E+02  0.14395988420E+03  0.12509000000E+03 0.  0.
<mgrwt>
<rscale>  2 0.46327380E+03</rscale>
<asrwt>0</asrwt>
<pdfrwt beam="1">  1       21 0.53771047E-01 0.46327380E+03</pdfrwt>
<pdfrwt beam="2">  1       21 0.21579887E-01 0.46327380E+03</pdfrwt>
<totfact> 0.60347653E+04</totfact>
</mgrwt>
</event>
<event>
 7    0  0.4766352E-002  0.4525641E+03  0.7546771E-02  0.1026960E+00
         21   -1    0    0  502  501  0.00000000000E+00  0.00000000000E+00  0.31532274612E+03  0.31532274612E+03  0.00000000000E+00 0.  1.
         21   -1    0    0  501  502 -0.00000000000E+00 -0.00000000000E+00 -0.16238462211E+03  0.16238462211E+03  0.00000000000E+00 0.  1.
      99926    2    1    2    0    0 -0.17763568394E-14 -0.35527136788E-14  0.15293812400E+03  0.47770736823E+03  0.45256409478E+03 0.  0.
      99925    2    3    3    0    0  0.11012370001E+02  0.28824729185E+02  0.20868003850E+03  0.33732643492E+03  0.26322923075E+03 0.  0.
         25    1    4    4    0    0  0.10882340954E+02  0.12482171527E+02  0.52771369407E+02  0.13677191042E+03  0.12509000000E+03 0.  0.
         25    1    3    3    0    0 -0.11012370001E+02 -0.28824729185E+02 -0.55741914499E+02  0.14038093331E+03  0.12509000000E+03 0.  0.
         25    1    4    4    0    0  0.13002904697E+00  0.16342557658E+02  0.15590866909E+03  0.20055452450E+03  0.12509000000E+03 0.  0.
<mgrwt>
<rscale>  2 0.45256409E+03</rscale>
<asrwt>0</asrwt>
<pdfrwt beam="1">  1       21 0.46370992E-01 0.45256409E+03</pdfrwt>
<pdfrwt beam="2">  1       21 0.23880091E-01 0.45256409E+03</pdfrwt>
<totfact> 0.68175994E+04</totfact>
</mgrwt>
</event>
<event>
 7    0  0.4766352E-002  0.4602593E+03  0.7546771E-02  0.1024706E+00
         21   -1    0    0  502  501  0.00000000000E+00  0.00000000000E+00  0.45050589772E+02  0.45050589772E+02  0.00000000000E+00 0.  1.
         21   -1    0    0  501  502 -0.00000000000E+00 -0.00000000000E+00 -0.11755596349E+04  0.11755596349E+04  0.00000000000E+00 0.  1.
      99926    2    1    2    0    0 -0.71054273576E-14  0.14210854715E-13 -0.11305090451E+04  0.12206102247E+04  0.46025929590E+03 0.  0.
      99925    2    3    3    0    0  0.50040757523E+02 -0.73372747422E+02 -0.91420847875E+03  0.95542900250E+03  0.26302052910E+03 0.  0.
         25    1    3    3    0    0 -0.50040757523E+02  0.73372747422E+02 -0.21630056640E+03  0.26518122219E+03  0.12509000000E+03 0.  0.
         25    1    4    4    0    0  0.14745032460E+02 -0.76734784796E+02 -0.47287345961E+03  0.49534075149E+03  0.12509000000E+03 0.  0.
         25    1    4    4    0    0  0.35295725063E+02  0.33620373738E+01 -0.44133501914E+03  0.46008825102E+03  0.12509000000E+03 0.  0.
<mgrwt>
<rscale>  2 0.46025930E+03</rscale>
<asrwt>0</asrwt>
<pdfrwt beam="1">  1       21 0.66250875E-02 0.46025930E+03</pdfrwt>
<pdfrwt beam="2">  1       21 0.17287640E+00 0.46025930E+03</pdfrwt>
<totfact> 0.30251179E+04</totfact>
</mgrwt>
</event>
<event>
 7    0  0.4766352E-002  0.4623652E+03  0.7546771E-02  0.1024097E+00
         21   -1    0    0  502  501  0.00000000000E+00  0.00000000000E+00  0.55019942374E+03  0.55019942374E+03  0.00000000000E+00 0. -1.
         21   -1    0    0  501  502 -0.00000000000E+00 -0.00000000000E+00 -0.97138203910E+02  0.97138203910E+02  0.00000000000E+00 0. -1.
      99926    2    1    2    0    0  0.14210854715E-13 -0.44408920985E-15  0.45306121983E+03  0.64733762765E+03  0.46236515359E+03 0.  0.
      99925    2    3    3    0    0 -0.78578369055E+02 -0.34586052021E+01  0.41000282017E+03  0.49342838194E+03  0.26302610806E+03 0.  0.
         25    1    3    3    0    0  0.78578369055E+02  0.34586052021E+01  0.43058399655E+02  0.15390924571E+03  0.12509000000E+03 0.  0.
         25    1    4    4    0    0 -0.12316696365E+01 -0.35337644928E+01  0.15688275387E+03  0.20068311105E+03  0.12509000000E+03 0.  0.
         25    1    4    4    0    0 -0.77346699419E+02  0.75159290698E-01  0.25312006630E+03  0.29274527088E+03  0.12509000000E+03 0.  0.
<mgrwt>
<rscale>  2 0.46236515E+03</rscale>
<asrwt>0</asrwt>
<pdfrwt beam="1">  1       21 0.80911678E-01 0.46236515E+03</pdfrwt>
<pdfrwt beam="2">  1       21 0.14285030E-01 0.46236515E+03</pdfrwt>
<totfact> 0.52723786E+04</totfact>
</mgrwt>
</event>
<event>
 7    0  0.4766352E-002  0.4572041E+03  0.7546771E-02  0.1025595E+00
         21   -1    0    0  502  501  0.00000000000E+00  0.00000000000E+00  0.49076452429E+02  0.49076452429E+02  0.00000000000E+00 0.  1.
         21   -1    0    0  501  502 -0.00000000000E+00 -0.00000000000E+00 -0.10648465730E+04  0.10648465730E+04  0.00000000000E+00 0.  1.
      99926    2    1    2    0    0  0.00000000000E+00  0.00000000000E+00 -0.10157701206E+04  0.11139230255E+04  0.45720407778E+03 0.  0.
      99925    2    3    3    0    0  0.14862983313E+02  0.10679778946E+03 -0.53695076320E+03  0.60742311309E+03  0.26271665366E+03 0.  0.
         25    1    3    3    0    0 -0.14862983313E+02 -0.10679778946E+03 -0.47881935740E+03  0.50649991236E+03  0.12509000000E+03 0.  0.
         25    1    4    4    0    0  0.22173022752E+02  0.22464280304E+02 -0.29815588153E+03  0.32487031970E+03  0.12509000000E+03 0.  0.
         25    1    4    4    0    0 -0.73100394387E+01  0.84333509160E+02 -0.23879488167E+03  0.28255279339E+03  0.12509000000E+03 0.  0.
<mgrwt>
<rscale>  2 0.45720408E+03</rscale>
<asrwt>0</asrwt>
<pdfrwt beam="1">  1       21 0.72171248E-02 0.45720408E+03</pdfrwt>
<pdfrwt beam="2">  1       21 0.15659510E+00 0.45720408E+03</pdfrwt>
<totfact> 0.34414708E+04</totfact>
</mgrwt>
</event>
<event>
 7    0  0.4766352E-002  0.4543041E+03  0.7546771E-02  0.1026446E+00
         21   -1    0    0  502  501  0.00000000000E+00  0.00000000000E+00  0.58928714474E+03  0.58928714474E+03  0.00000000000E+00 0.  1.
         21   -1    0    0  501  502 -0.00000000000E+00 -0.00000000000E+00 -0.87560132475E+02  0.87560132475E+02  0.00000000000E+00 0.  1.
      99926    2    1    2    0    0  0.00000000000E+00  0.14210854715E-13  0.50172701227E+03  0.67684727722E+03  0.45430412923E+03 0.  0.
      99925    2    3    3    0    0  0.27264545664E+02  0.78908388851E+02  0.20370749042E+03  0.34303141063E+03  0.26306637517E+03 0.  0.
         25    1    4    4    0    0  0.35702723376E+02  0.28776907467E+02  0.60875881834E+02  0.14647926798E+03  0.12509000000E+03 0.  0.
         25    1    4    4    0    0 -0.84381777115E+01  0.50131481385E+02  0.14283160859E+03  0.19655214265E+03  0.12509000000E+03 0.  0.
         25    1    3    3    0    0 -0.27264545664E+02 -0.78908388851E+02  0.29801952185E+03  0.33381586659E+03  0.12509000000E+03 0.  0.
<mgrwt>
<rscale>  2 0.45430413E+03</rscale>
<asrwt>0</asrwt>
<pdfrwt beam="1">  1       21 0.86659872E-01 0.45430413E+03</pdfrwt>
<pdfrwt beam="2">  1       21 0.12876490E-01 0.45430413E+03</pdfrwt>
<totfact> 0.54476613E+04</totfact>
</mgrwt>
</event>
<event>
 7    0  0.4766352E-002  0.4032412E+03  0.7546771E-02  0.1042663E+00
         21   -1    0    0  502  501  0.00000000000E+00  0.00000000000E+00  0.22491225364E+03  0.22491225364E+03  0.00000000000E+00 0. -1.
         21   -1    0    0  501  502 -0.00000000000E+00 -0.00000000000E+00 -0.18074104161E+03  0.18074104161E+03  0.00000000000E+00 0. -1.
      99926    2    1    2    0    0  0.00000000000E+00  0.00000000000E+00  0.44171212035E+02  0.40565329525E+03  0.40324124290E+03 0.  0.
      99925    2    3    3    0    0  0.38218632930E+02  0.39739493703E+01  0.65437964687E+02  0.27307788635E+03  0.26232222287E+03 0.  0.
         25    1    3    3    0    0 -0.38218632930E+02 -0.39739493703E+01 -0.21266752652E+02  0.13257540890E+03  0.12509000000E+03 0.  0.
         25    1    4    4    0    0  0.15990520494E+02  0.22149463147E+02  0.67452101844E+02  0.14471900223E+03  0.12509000000E+03 0.  0.
         25    1    4    4    0    0  0.22228112437E+02 -0.18175513777E+02 -0.20141371575E+01  0.12835888412E+03  0.12509000000E+03 0.  0.
<mgrwt>
<rscale>  2 0.40324124E+03</rscale>
<asrwt>0</asrwt>
<pdfrwt beam="1">  1       21 0.33075332E-01 0.40324124E+03</pdfrwt>
<pdfrwt beam="2">  1       21 0.26579565E-01 0.40324124E+03</pdfrwt>
<totfact> 0.11185328E+05</totfact>
</mgrwt>
</event>
<event>
 7    0  0.4766352E-002  0.5032761E+03  0.7546771E-02  0.1012927E+00
         21   -1    0    0  502  501  0.00000000000E+00  0.00000000000E+00  0.26344466990E+03  0.26344466990E+03  0.00000000000E+00 0. -1.
         21   -1    0    0  501  502 -0.00000000000E+00 -0.00000000000E+00 -0.24036056160E+03  0.24036056160E+03  0.00000000000E+00 0. -1.
      99926    2    1    2    0    0  0.00000000000E+00  0.71054273576E-14  0.23084108301E+02  0.50380523151E+03  0.50327610239E+03 0.  0.
      99925    2    3    3    0    0 -0.14952835859E+03  0.35489803261E+02  0.24318519495E+01  0.30457601691E+03  0.26294938679E+03 0.  0.
         25    1    3    3    0    0  0.14952835859E+03 -0.35489803261E+02  0.20652256352E+02  0.19922921460E+03  0.12509000000E+03 0.  0.
         25    1    4    4    0    0 -0.47131556316E+02  0.45862686092E+02  0.14910920172E+02  0.14210775213E+03  0.12509000000E+03 0.  0.
         25    1    4    4    0    0 -0.10239680227E+03 -0.10372882831E+02 -0.12479068223E+02  0.16246826477E+03  0.12509000000E+03 0.  0.
<mgrwt>
<rscale>  2 0.50327610E+03</rscale>
<asrwt>0</asrwt>
<pdfrwt beam="1">  1       21 0.38741864E-01 0.50327610E+03</pdfrwt>
<pdfrwt beam="2">  1       21 0.35347141E-01 0.50327610E+03</pdfrwt>
<totfact> 0.45079020E+04</totfact>
</mgrwt>
</event>
<event>
 7    0  0.4766352E-002  0.4772496E+03  0.7546771E-02  0.1019894E+00
         21   -1    0    0  502  501  0.00000000000E+00  0.00000000000E+00  0.73662725131E+02  0.73662725131E+02  0.00000000000E+00 0.  1.
         21   -1    0    0  501  502 -0.00000000000E+00 -0.00000000000E+00 -0.77300689232E+03  0.77300689232E+03  0.00000000000E+00 0.  1.
      99926    2    1    2    0    0 -0.14210854715E-13  0.00000000000E+00 -0.69934416719E+03  0.84666961745E+03  0.47724959605E+03 0.  0.
      99925    2    3    3    0    0 -0.96170357671E+02  0.84332272915E+02 -0.49638847100E+03  0.57611612428E+03  0.26295932113E+03 0.  0.
         25    1    4    4    0    0 -0.40966606083E+02  0.27931749577E+02 -0.16280949447E+03  0.21121762483E+03  0.12509000000E+03 0.  0.
         25    1    4    4    0    0 -0.55203751587E+02  0.56400523338E+02 -0.33357897653E+03  0.36489849945E+03  0.12509000000E+03 0.  0.
         25    1    3    3    0    0  0.96170357671E+02 -0.84332272915E+02 -0.20295569619E+03  0.27055349317E+03  0.12509000000E+03 0.  0.
<mgrwt>
<rscale>  2 0.47724960E+03</rscale>
<asrwt>0</asrwt>
<pdfrwt beam="1">  1       21 0.10832754E-01 0.47724960E+03</pdfrwt>
<pdfrwt beam="2">  1       21 0.11367748E+00 0.47724960E+03</pdfrwt>
<totfact> 0.38428659E+04</totfact>
</mgrwt>
</event>
<event>
 7    0  0.4766352E-002  0.4565687E+03  0.7546771E-02  0.1025781E+00
         21   -1    0    0  502  501  0.00000000000E+00  0.00000000000E+00  0.32158718384E+02  0.32158718384E+02  0.00000000000E+00 0.  1.
         21   -1    0    0  501  502 -0.00000000000E+00 -0.00000000000E+00 -0.16205166658E+04  0.16205166658E+04  0.00000000000E+00 0.  1.
      99926    2    1    2    0    0  0.00000000000E+00  0.00000000000E+00 -0.15883579474E+04  0.16526753842E+04  0.45656867651E+03 0.  0.
      99925    2    3    3    0    0 -0.24831654881E+02  0.91415026376E+02 -0.76498473093E+03  0.81448430820E+03  0.26307742514E+03 0.  0.
         25    1    4    4    0    0 -0.17657740313E+02  0.50869348543E+02 -0.50509707445E+03  0.52313482882E+03  0.12509000000E+03 0.  0.
         25    1    3    3    0    0  0.24831654881E+02 -0.91415026376E+02 -0.82337321649E+03  0.83819107599E+03  0.12509000000E+03 0.  0.
         25    1    4    4    0    0 -0.71739145683E+01  0.40545677834E+02 -0.25988765649E+03  0.29134947938E+03  0.12509000000E+03 0.  0.
<mgrwt>
<rscale>  2 0.45656868E+03</rscale>
<asrwt>0</asrwt>
<pdfrwt beam="1">  1       21 0.47292224E-02 0.45656868E+03</pdfrwt>
<pdfrwt beam="2">  1       21 0.23831132E+00 0.45656868E+03</pdfrwt>
<totfact> 0.20020240E+04</totfact>
</mgrwt>
</event>
<event>
 7    0  0.4766352E-002  0.4741553E+03  0.7546771E-02  0.1020754E+00
         21   -1    0    0  502  501  0.00000000000E+00  0.00000000000E+00  0.47778628335E+02  0.47778628335E+02  0.00000000000E+00 0.  1.
         21   -1    0    0  501  502 -0.00000000000E+00 -0.00000000000E+00 -0.11763798402E+04  0.11763798402E+04  0.00000000000E+00 0.  1.
      99926    2    1    2    0    0  0.00000000000E+00  0.11102230246E-15 -0.11286012119E+04  0.12241584686E+04  0.47415531281E+03 0.  0.
      99925    2    3    3    0    0 -0.80842956216E+02  0.42873223374E+00 -0.96238806205E+03  0.10009767340E+04  0.26311190122E+03 0.  0.
         25    1    4    4    0    0 -0.82057702523E+02  0.89163764362E+01 -0.52332147919E+03  0.54435819733E+03  0.12509000000E+03 0.  0.
         25    1    3    3    0    0  0.80842956216E+02 -0.42873223374E+00 -0.16621314984E+03  0.22318173461E+03  0.12509000000E+03 0.  0.
         25    1    4    4    0    0  0.12147463079E+01 -0.84876442024E+01 -0.43906658286E+03  0.45661853663E+03  0.12509000000E+03 0.  0.
<mgrwt>
<rscale>  2 0.47415531E+03</rscale>
<asrwt>0</asrwt>
<pdfrwt beam="1">  1       21 0.70262698E-02 0.47415531E+03</pdfrwt>
<pdfrwt beam="2">  1       21 0.17299701E+00 0.47415531E+03</pdfrwt>
<totfact> 0.27121645E+04</totfact>
</mgrwt>
</event>
<event>
 7    0  0.4766352E-002  0.4558487E+03  0.7546771E-02  0.1025992E+00
         21   -1    0    0  502  501  0.00000000000E+00  0.00000000000E+00  0.39114773030E+02  0.39114773030E+02  0.00000000000E+00 0. -1.
         21   -1    0    0  501  502 -0.00000000000E+00 -0.00000000000E+00 -0.13281302539E+04  0.13281302539E+04  0.00000000000E+00 0. -1.
      99926    2    1    2    0    0  0.00000000000E+00  0.17763568394E-14 -0.12890154809E+04  0.13672450270E+04  0.45584871805E+03 0.  0.
      99925    2    3    3    0    0  0.11098520641E+03 -0.11698695923E+02 -0.74068189300E+03  0.79385876340E+03  0.26295911103E+03 0.  0.
         25    1    4    4    0    0  0.24937151084E+02  0.11534591621E+02 -0.40358733636E+03  0.42342077710E+03  0.12509000000E+03 0.  0.
         25    1    4    4    0    0  0.86048055322E+02 -0.23233287544E+02 -0.33709455665E+03  0.37043798630E+03  0.12509000000E+03 0.  0.
         25    1    3    3    0    0 -0.11098520641E+03  0.11698695923E+02 -0.54833358791E+03  0.57338626358E+03  0.12509000000E+03 0.  0.
<mgrwt>
<rscale>  2 0.45584872E+03</rscale>
<asrwt>0</asrwt>
<pdfrwt beam="1">  1       21 0.57521725E-02 0.45584872E+03</pdfrwt>
<pdfrwt beam="2">  1       21 0.19531327E+00 0.45584872E+03</pdfrwt>
<totfact> 0.27039291E+04</totfact>
</mgrwt>
</event>
<event>
 7    0  0.4766352E-002  0.4639288E+03  0.7546771E-02  0.1023648E+00
         21   -1    0    0  502  501  0.00000000000E+00  0.00000000000E+00  0.27934130334E+03  0.27934130334E+03  0.00000000000E+00 0.  1.
         21   -1    0    0  501  502 -0.00000000000E+00 -0.00000000000E+00 -0.19262269683E+03  0.19262269683E+03  0.00000000000E+00 0.  1.
      99926    2    1    2    0    0  0.00000000000E+00  0.00000000000E+00  0.86718606516E+02  0.47196400017E+03  0.46392876688E+03 0.  0.
      99925    2    3    3    0    0 -0.45044359702E+02 -0.10823525765E+03  0.22412548233E+02  0.28886118050E+03  0.26304865318E+03 0.  0.
         25    1    4    4    0    0 -0.27442095693E+02 -0.97479184908E+02  0.18714300435E+02  0.16202775456E+03  0.12509000000E+03 0.  0.
         25    1    3    3    0    0  0.45044359702E+02  0.10823525765E+03  0.64306058283E+02  0.18310281967E+03  0.12509000000E+03 0.  0.
         25    1    4    4    0    0 -0.17602264008E+02 -0.10756072740E+02  0.36982477978E+01  0.12683342594E+03  0.12509000000E+03 0.  0.
<mgrwt>
<rscale>  2 0.46392877E+03</rscale>
<asrwt>0</asrwt>
<pdfrwt beam="1">  1       21 0.41079604E-01 0.46392877E+03</pdfrwt>
<pdfrwt beam="2">  1       21 0.28326867E-01 0.46392877E+03</pdfrwt>
<totfact> 0.62724685E+04</totfact>
</mgrwt>
</event>
<event>
 7    0  0.4766352E-002  0.4586405E+03  0.7546771E-02  0.1025176E+00
         21   -1    0    0  502  501  0.00000000000E+00  0.00000000000E+00  0.83322116558E+02  0.83322116558E+02  0.00000000000E+00 0. -1.
         21   -1    0    0  501  502 -0.00000000000E+00 -0.00000000000E+00 -0.63113835899E+03  0.63113835899E+03  0.00000000000E+00 0. -1.
      99926    2    1    2    0    0  0.71054273576E-14  0.14210854715E-13 -0.54781624243E+03  0.71446047555E+03  0.45864052988E+03 0.  0.
      99925    2    3    3    0    0  0.42464106479E+02  0.10215812731E+03 -0.28649180625E+03  0.40433557755E+03  0.26300232111E+03 0.  0.
         25    1    4    4    0    0  0.17437192246E+02  0.36114939807E+02 -0.19110822799E+03  0.23190128817E+03  0.12509000000E+03 0.  0.
         25    1    3    3    0    0 -0.42464106479E+02 -0.10215812731E+03 -0.26132443618E+03  0.31012489799E+03  0.12509000000E+03 0.  0.
         25    1    4    4    0    0  0.25026914233E+02  0.66043187499E+02 -0.95383578264E+02  0.17243428938E+03  0.12509000000E+03 0.  0.
<mgrwt>
<rscale>  2 0.45864053E+03</rscale>
<asrwt>0</asrwt>
<pdfrwt beam="1">  1       21 0.12253253E-01 0.45864053E+03</pdfrwt>
<pdfrwt beam="2">  1       21 0.92814462E-01 0.45864053E+03</pdfrwt>
<totfact> 0.50658409E+04</totfact>
</mgrwt>
</event>
<event>
 7    0  0.4766352E-002  0.4526045E+03  0.7546771E-02  0.1026948E+00
         21   -1    0    0  502  501  0.00000000000E+00  0.00000000000E+00  0.16214630231E+04  0.16214630231E+04  0.00000000000E+00 0. -1.
         21   -1    0    0  501  502 -0.00000000000E+00 -0.00000000000E+00 -0.31584264829E+02  0.31584264829E+02  0.00000000000E+00 0. -1.
      99926    2    1    2    0    0  0.35527136788E-14  0.71054273576E-14  0.15898787583E+04  0.16530472880E+04  0.45260454055E+03 0.  0.
      99925    2    3    3    0    0  0.18004334234E+02  0.61427318980E+02  0.67152298886E+03  0.72400353284E+03  0.26294584884E+03 0.  0.
         25    1    4    4    0    0 -0.19731190446E+02  0.98630651788E+00  0.30942805637E+03  0.33434042957E+03  0.12509000000E+03 0.  0.
         25    1    4    4    0    0  0.37735524681E+02  0.60441012462E+02  0.36209493249E+03  0.38966310327E+03  0.12509000000E+03 0.  0.
         25    1    3    3    0    0 -0.18004334234E+02 -0.61427318980E+02  0.91835576943E+03  0.92904375512E+03  0.12509000000E+03 0.  0.
<mgrwt>
<rscale>  2 0.45260454E+03</rscale>
<asrwt>0</asrwt>
<pdfrwt beam="1">  1       21 0.23845039E+00 0.45260454E+03</pdfrwt>
<pdfrwt beam="2">  1       21 0.46447459E-02 0.45260454E+03</pdfrwt>
<totfact> 0.20638366E+04</totfact>
</mgrwt>
</event>
<event>
 7    0  0.4766352E-002  0.4459402E+03  0.7546771E-02  0.1028940E+00
         21   -1    0    0  502  501  0.00000000000E+00  0.00000000000E+00  0.39157938980E+02  0.39157938980E+02  0.00000000000E+00 0. -1.
         21   -1    0    0  501  502 -0.00000000000E+00 -0.00000000000E+00 -0.12696190917E+04  0.12696190917E+04  0.00000000000E+00 0. -1.
      99926    2    1    2    0    0  0.35527136788E-14  0.00000000000E+00 -0.12304611527E+04  0.13087770307E+04  0.44594020640E+03 0.  0.
      99925    2    3    3    0    0  0.14876539642E+02 -0.92186712819E+02 -0.91832734248E+03  0.95978602070E+03  0.26295322043E+03 0.  0.
         25    1    4    4    0    0 -0.29233942382E+02 -0.60972925537E+02 -0.49988322607E+03  0.51971441085E+03  0.12509000000E+03 0.  0.
         25    1    3    3    0    0 -0.14876539642E+02  0.92186712819E+02 -0.31213381024E+03  0.34899100998E+03  0.12509000000E+03 0.  0.
         25    1    4    4    0    0  0.44110482024E+02 -0.31213787282E+02 -0.41844411641E+03  0.44007160985E+03  0.12509000000E+03 0.  0.
<mgrwt>
<rscale>  2 0.44594021E+03</rscale>
<asrwt>0</asrwt>
<pdfrwt beam="1">  1       21 0.57585196E-02 0.44594021E+03</pdfrwt>
<pdfrwt beam="2">  1       21 0.18670872E+00 0.44594021E+03</pdfrwt>
<totfact> 0.30987185E+04</totfact>
</mgrwt>
</event>
<event>
 7    0  0.4766352E-002  0.4551944E+03  0.7546771E-02  0.1026184E+00
         21   -1    0    0  502  501  0.00000000000E+00  0.00000000000E+00  0.19958168663E+03  0.19958168663E+03  0.00000000000E+00 0.  1.
         21   -1    0    0  501  502 -0.00000000000E+00 -0.00000000000E+00 -0.25954529809E+03  0.25954529809E+03  0.00000000000E+00 0.  1.
      99926    2    1    2    0    0 -0.14210854715E-13  0.00000000000E+00 -0.59963611462E+02  0.45912698472E+03  0.45519441275E+03 0.  0.
      99925    2    3    3    0    0  0.90845105289E+02  0.55048867103E+02  0.11405434907E+01  0.28401434447E+03  0.26340014446E+03 0.  0.
         25    1    3    3    0    0 -0.90845105289E+02 -0.55048867103E+02 -0.61104154953E+02  0.17511264025E+03  0.12509000000E+03 0.  0.
         25    1    4    4    0    0  0.51315627759E+02  0.13599827203E+00  0.30958532701E+02  0.13870562712E+03  0.12509000000E+03 0.  0.
         25    1    4    4    0    0  0.39529477530E+02  0.54912868830E+02 -0.29817989210E+02  0.14530871735E+03  0.12509000000E+03 0.  0.
<mgrwt>
<rscale>  2 0.45519441E+03</rscale>
<asrwt>0</asrwt>
<pdfrwt beam="1">  1       21 0.29350248E-01 0.45519441E+03</pdfrwt>
<pdfrwt beam="2">  1       21 0.38168426E-01 0.45519441E+03</pdfrwt>
<totfact> 0.68138525E+04</totfact>
</mgrwt>
</event>
<event>
 7    0  0.4766352E-002  0.4579839E+03  0.7546771E-02  0.1025368E+00
         21   -1    0    0  502  501  0.00000000000E+00  0.00000000000E+00  0.29180791558E+03  0.29180791558E+03  0.00000000000E+00 0.  1.
         21   -1    0    0  501  502 -0.00000000000E+00 -0.00000000000E+00 -0.17969801120E+03  0.17969801120E+03  0.00000000000E+00 0.  1.
      99926    2    1    2    0    0  0.00000000000E+00  0.00000000000E+00  0.11210990439E+03  0.47150592678E+03  0.45798385160E+03 0.  0.
      99925    2    3    3    0    0 -0.96130090845E+01  0.26183496223E+02 -0.45452949595E+02  0.26840115954E+03  0.26304985535E+03 0.  0.
         25    1    4    4    0    0 -0.18216028625E+02  0.76588114862E+01 -0.61247575981E+02  0.14067428605E+03  0.12509000000E+03 0.  0.
         25    1    3    3    0    0  0.96130090845E+01 -0.26183496223E+02  0.15756285398E+03  0.20310476723E+03  0.12509000000E+03 0.  0.
         25    1    4    4    0    0  0.86030195407E+01  0.18524684736E+02  0.15794626386E+02  0.12772687349E+03  0.12509000000E+03 0.  0.
<mgrwt>
<rscale>  2 0.45798385E+03</rscale>
<asrwt>0</asrwt>
<pdfrwt beam="1">  1       21 0.42912929E-01 0.45798385E+03</pdfrwt>
<pdfrwt beam="2">  1       21 0.26426178E-01 0.45798385E+03</pdfrwt>
<totfact> 0.65753668E+04</totfact>
</mgrwt>
</event>
<event>
 6    0  0.4766352E-002  0.4571729E+03  0.7546771E-02  0.1025604E+00
         21   -1    0    0  502  501  0.00000000000E+00  0.00000000000E+00  0.14582044074E+03  0.14582044074E+03  0.00000000000E+00 0. -1.
         21   -1    0    0  501  502 -0.00000000000E+00 -0.00000000000E+00 -0.35832944331E+03  0.35832944331E+03  0.00000000000E+00 0. -1.
      99926    2    1    2    0    0  0.14210854715E-13  0.71054273576E-14 -0.21250900257E+03  0.50414988405E+03  0.45717286600E+03 0.  0.
         25    1    3    3    0    0  0.46452723277E+02  0.50924053617E+02 -0.27081796886E+02  0.14536865742E+03  0.12509000000E+03 0.  0.
         25    1    3    3    0    0  0.21650840079E+02 -0.87477039980E+01 -0.81685327551E+01  0.12751280025E+03  0.12509000000E+03 0.  0.
         25    1    3    3    0    0 -0.68103563355E+02 -0.42176349619E+02 -0.17725867293E+03  0.23126842638E+03  0.12509000000E+03 0.  0.
<mgrwt>
<rscale>  2 0.45717287E+03</rscale>
<asrwt>0</asrwt>
<pdfrwt beam="1">  1       21 0.21444183E-01 0.45717287E+03</pdfrwt>
<pdfrwt beam="2">  1       21 0.52695506E-01 0.45717287E+03</pdfrwt>
<totfact> 0.63871348E+04</totfact>
</mgrwt>
</event>
<event>
 7    0  0.4766352E-002  0.4547208E+03  0.7546771E-02  0.1026324E+00
         21   -1    0    0  502  501  0.00000000000E+00  0.00000000000E+00  0.77400803856E+03  0.77400803856E+03  0.00000000000E+00 0. -1.
         21   -1    0    0  501  502 -0.00000000000E+00 -0.00000000000E+00 -0.66785806260E+02  0.66785806260E+02  0.00000000000E+00 0. -1.
      99926    2    1    2    0    0  0.71054273576E-14 -0.88817841970E-15  0.70722223230E+03  0.84079384482E+03  0.45472079744E+03 0.  0.
      99925    2    3    3    0    0  0.33372135765E+02 -0.79942879772E+01  0.64423366694E+03  0.69659718899E+03  0.26274135192E+03 0.  0.
         25    1    4    4    0    0  0.34188881379E+02  0.15954901597E+02  0.24675655394E+03  0.27921272089E+03  0.12509000000E+03 0.  0.
         25    1    3    3    0    0 -0.33372135765E+02  0.79942879772E+01  0.62988565363E+02  0.14419665583E+03  0.12509000000E+03 0.  0.
         25    1    4    4    0    0 -0.81674561420E+00 -0.23949189574E+02  0.39747711299E+03  0.41738446810E+03  0.12509000000E+03 0.  0.
<mgrwt>
<rscale>  2 0.45472080E+03</rscale>
<asrwt>0</asrwt>
<pdfrwt beam="1">  1       21 0.11382471E+00 0.45472080E+03</pdfrwt>
<pdfrwt beam="2">  1       21 0.98214425E-02 0.45472080E+03</pdfrwt>
<totfact> 0.45954629E+04</totfact>
</mgrwt>
</event>
<event>
 7    0  0.4766352E-002  0.4271218E+03  0.7546771E-02  0.1034773E+00
         21   -1    0    0  502  501  0.00000000000E+00  0.00000000000E+00  0.18871477206E+03  0.18871477206E+03  0.00000000000E+00 0.  1.
         21   -1    0    0  501  502 -0.00000000000E+00 -0.00000000000E+00 -0.24167829754E+03  0.24167829754E+03  0.00000000000E+00 0.  1.
      99926    2    1    2    0    0  0.00000000000E+00  0.00000000000E+00 -0.52963525480E+02  0.43039306961E+03  0.42712183196E+03 0.  0.
      99925    2    3    3    0    0  0.83346749478E+02 -0.89086146618E+01 -0.22916115301E+02  0.27684698850E+03  0.26285559275E+03 0.  0.
         25    1    4    4    0    0  0.57636106009E+02  0.29429611743E+02 -0.27206664236E+02  0.14344243947E+03  0.12509000000E+03 0.  0.
         25    1    3    3    0    0 -0.83346749478E+02  0.89086146618E+01 -0.30047410179E+02  0.15354608110E+03  0.12509000000E+03 0.  0.
         25    1    4    4    0    0  0.25710643470E+02 -0.38338226404E+02  0.42905489354E+01  0.13340454903E+03  0.12509000000E+03 0.  0.
<mgrwt>
<rscale>  2 0.42712183E+03</rscale>
<asrwt>0</asrwt>
<pdfrwt beam="1">  1       21 0.27752172E-01 0.42712183E+03</pdfrwt>
<pdfrwt beam="2">  1       21 0.35540926E-01 0.42712183E+03</pdfrwt>
<totfact> 0.88491635E+04</totfact>
</mgrwt>
</event>
<event>
 7    0  0.4766352E-002  0.4551510E+03  0.7546771E-02  0.1026197E+00
         21   -1    0    0  502  501  0.00000000000E+00  0.00000000000E+00  0.31115776611E+03  0.31115776611E+03  0.00000000000E+00 0. -1.
         21   -1    0    0  501  502 -0.00000000000E+00 -0.00000000000E+00 -0.16644483973E+03  0.16644483973E+03  0.00000000000E+00 0. -1.
      99926    2    1    2    0    0  0.00000000000E+00  0.00000000000E+00  0.14471292638E+03  0.47760260584E+03  0.45515098378E+03 0.  0.
      99925    2    3    3    0    0  0.93004745204E+02  0.53438613928E+02  0.12893163459E+03  0.31206673250E+03  0.26316669821E+03 0.  0.
         25    1    3    3    0    0 -0.93004745204E+02 -0.53438613928E+02  0.15781291791E+02  0.16553587333E+03  0.12509000000E+03 0.  0.
         25    1    4    4    0    0  0.26123328853E+02  0.58503475494E+02  0.81220296674E+02  0.16232476597E+03  0.12509000000E+03 0.  0.
         25    1    4    4    0    0  0.66881416351E+02 -0.50648615668E+01  0.47711337917E+02  0.14974196653E+03  0.12509000000E+03 0.  0.
<mgrwt>
<rscale>  2 0.45515098E+03</rscale>
<asrwt>0</asrwt>
<pdfrwt beam="1">  1       21 0.45758495E-01 0.45515098E+03</pdfrwt>
<pdfrwt beam="2">  1       21 0.24477182E-01 0.45515098E+03</pdfrwt>
<totfact> 0.66794948E+04</totfact>
</mgrwt>
</event>
<event>
 7    0  0.4766352E-002  0.4707377E+03  0.7546771E-02  0.1021712E+00
         21   -1    0    0  502  501  0.00000000000E+00  0.00000000000E+00  0.13001346151E+03  0.13001346151E+03  0.00000000000E+00 0. -1.
         21   -1    0    0  501  502 -0.00000000000E+00 -0.00000000000E+00 -0.42609813030E+03  0.42609813030E+03  0.00000000000E+00 0. -1.
      99926    2    1    2    0    0  0.00000000000E+00  0.14210854715E-13 -0.29608466879E+03  0.55611159181E+03  0.47073768858E+03 0.  0.
      99925    2    3    3    0    0 -0.74649821813E+02  0.87826230814E+02 -0.12011033053E+03  0.31136576745E+03  0.26312754877E+03 0.  0.
         25    1    4    4    0    0 -0.65306030210E+02  0.76867754466E+02 -0.56829052230E+02  0.17044230266E+03  0.12509000000E+03 0.  0.
         25    1    4    4    0    0 -0.93437916038E+01  0.10958476348E+02 -0.63281278299E+02  0.14092346479E+03  0.12509000000E+03 0.  0.
         25    1    3    3    0    0  0.74649821813E+02 -0.87826230814E+02 -0.17597433826E+03  0.24474582436E+03  0.12509000000E+03 0.  0.
<mgrwt>
<rscale>  2 0.47073769E+03</rscale>
<asrwt>0</asrwt>
<pdfrwt beam="1">  1       21 0.19119627E-01 0.47073769E+03</pdfrwt>
<pdfrwt beam="2">  1       21 0.62661490E-01 0.47073769E+03</pdfrwt>
<totfact> 0.54370451E+04</totfact>
</mgrwt>
</event>
<event>
 7    0  0.4766352E-002  0.4517658E+03  0.7546771E-02  0.1027197E+00
         21   -1    0    0  502  501  0.00000000000E+00  0.00000000000E+00  0.18301602128E+03  0.18301602128E+03  0.00000000000E+00 0. -1.
         21   -1    0    0  501  502 -0.00000000000E+00 -0.00000000000E+00 -0.27879020074E+03  0.27879020074E+03  0.00000000000E+00 0. -1.
      99926    2    1    2    0    0 -0.14210854715E-13  0.00000000000E+00 -0.95774179465E+02  0.46180622203E+03  0.45176575042E+03 0.  0.
      99925    2    3    3    0    0 -0.91810011395E+02  0.60335468991E+02 -0.54257113081E+02  0.29022352502E+03  0.26309012362E+03 0.  0.
         25    1    4    4    0    0 -0.63382397626E+02  0.69386830919E+02 -0.27089441843E+02  0.15878667007E+03  0.12509000000E+03 0.  0.
         25    1    3    3    0    0  0.91810011395E+02 -0.60335468991E+02 -0.41517066384E+02  0.17158269701E+03  0.12509000000E+03 0.  0.
         25    1    4    4    0    0 -0.28427613769E+02 -0.90513619280E+01 -0.27167671238E+02  0.13143685494E+03  0.12509000000E+03 0.  0.
<mgrwt>
<rscale>  2 0.45176575E+03</rscale>
<asrwt>0</asrwt>
<pdfrwt beam="1">  1       21 0.26914121E-01 0.45176575E+03</pdfrwt>
<pdfrwt beam="2">  1       21 0.40998559E-01 0.45176575E+03</pdfrwt>
<totfact> 0.69824833E+04</totfact>
</mgrwt>
</event>
<event>
 7    0  0.4766352E-002  0.4562824E+03  0.7546771E-02  0.1025865E+00
         21   -1    0    0  502  501  0.00000000000E+00  0.00000000000E+00  0.25110258836E+03  0.25110258836E+03  0.00000000000E+00 0. -1.
         21   -1    0    0  501  502 -0.00000000000E+00 -0.00000000000E+00 -0.20727946464E+03  0.20727946464E+03  0.00000000000E+00 0. -1.
      99926    2    1    2    0    0  0.71054273576E-14  0.00000000000E+00  0.43823123717E+02  0.45838205299E+03  0.45628241291E+03 0.  0.
      99925    2    3    3    0    0 -0.63929530957E+02 -0.69027850910E+01 -0.67445862169E+02  0.27904179346E+03  0.26302232757E+03 0.  0.
         25    1    4    4    0    0 -0.28847260495E+02 -0.12115938403E+02  0.71501827262E+01  0.12914175783E+03  0.12509000000E+03 0.  0.
         25    1    4    4    0    0 -0.35082270462E+02  0.52131533118E+01 -0.74596044895E+02  0.14990003563E+03  0.12509000000E+03 0.  0.
         25    1    3    3    0    0  0.63929530957E+02  0.69027850910E+01  0.11126898589E+03  0.17934025954E+03  0.12509000000E+03 0.  0.
<mgrwt>
<rscale>  2 0.45628241E+03</rscale>
<asrwt>0</asrwt>
<pdfrwt beam="1">  1       21 0.36926851E-01 0.45628241E+03</pdfrwt>
<pdfrwt beam="2">  1       21 0.30482274E-01 0.45628241E+03</pdfrwt>
<totfact> 0.67604366E+04</totfact>
</mgrwt>
</event>
<event>
 7    0  0.4766352E-002  0.4714479E+03  0.7546771E-02  0.1021512E+00
         21   -1    0    0  502  501  0.00000000000E+00  0.00000000000E+00  0.47882405312E+03  0.47882405312E+03  0.00000000000E+00 0.  1.
         21   -1    0    0  501  502 -0.00000000000E+00 -0.00000000000E+00 -0.11604633776E+03  0.11604633776E+03  0.00000000000E+00 0.  1.
      99926    2    1    2    0    0 -0.14210854715E-13  0.00000000000E+00  0.36277771536E+03  0.59487039088E+03  0.47144788809E+03 0.  0.
      99925    2    3    3    0    0  0.69516149275E+02 -0.10108237185E+03  0.17813381853E+03  0.34032959327E+03  0.26275926976E+03 0.  0.
         25    1    4    4    0    0  0.31759322827E+01 -0.47986666697E+02  0.53248857008E+02  0.14420733546E+03  0.12509000000E+03 0.  0.
         25    1    3    3    0    0 -0.69516149275E+02  0.10108237185E+03  0.18464389683E+03  0.25454079760E+03  0.12509000000E+03 0.  0.
         25    1    4    4    0    0  0.66340216992E+02 -0.53095705154E+02  0.12488496152E+03  0.19612225781E+03  0.12509000000E+03 0.  0.
<mgrwt>
<rscale>  2 0.47144789E+03</rscale>
<asrwt>0</asrwt>
<pdfrwt beam="1">  1       21 0.70415301E-01 0.47144789E+03</pdfrwt>
<pdfrwt beam="2">  1       21 0.17065638E-01 0.47144789E+03</pdfrwt>
<totfact> 0.51910990E+04</totfact>
</mgrwt>
</event>
<event>
 7    0  0.4766352E-002  0.4567756E+03  0.7546771E-02  0.1025721E+00
         21   -1    0    0  502  501  0.00000000000E+00  0.00000000000E+00  0.78593265991E+02  0.78593265991E+02  0.00000000000E+00 0.  1.
         21   -1    0    0  501  502 -0.00000000000E+00 -0.00000000000E+00 -0.66368268812E+03  0.66368268812E+03  0.00000000000E+00 0.  1.
      99926    2    1    2    0    0  0.14210854715E-13  0.14210854715E-13 -0.58508942213E+03  0.74227595411E+03  0.45677561249E+03 0.  0.
      99925    2    3    3    0    0  0.86619693354E+02 -0.69772402146E+02 -0.32117462692E+03  0.42975445627E+03  0.26299162028E+03 0.  0.
         25    1    4    4    0    0  0.11685790889E+01 -0.33461022471E+02 -0.13651917857E+03  0.18816482089E+03  0.12509000000E+03 0.  0.
         25    1    4    4    0    0  0.85451114265E+02 -0.36311379675E+02 -0.18465544834E+03  0.24158963539E+03  0.12509000000E+03 0.  0.
         25    1    3    3    0    0 -0.86619693354E+02  0.69772402146E+02 -0.26391479522E+03  0.31252149784E+03  0.12509000000E+03 0.  0.
<mgrwt>
<rscale>  2 0.45677561E+03</rscale>
<asrwt>0</asrwt>
<pdfrwt beam="1">  1       21 0.11557834E-01 0.45677561E+03</pdfrwt>
<pdfrwt beam="2">  1       21 0.97600390E-01 0.45677561E+03</pdfrwt>
<totfact> 0.49965926E+04</totfact>
</mgrwt>
</event>
<event>
 7    0  0.4766352E-002  0.4463049E+03  0.7546771E-02  0.1028830E+00
         21   -1    0    0  502  501  0.00000000000E+00  0.00000000000E+00  0.89128848215E+03  0.89128848215E+03  0.00000000000E+00 0. -1.
         21   -1    0    0  501  502 -0.00000000000E+00 -0.00000000000E+00 -0.55870810426E+02  0.55870810426E+02  0.00000000000E+00 0. -1.
      99926    2    1    2    0    0  0.17763568394E-14  0.00000000000E+00  0.83541767172E+03  0.94715929258E+03  0.44630487257E+03 0.  0.
      99925    2    3    3    0    0  0.66866844138E+01  0.43565555745E+02  0.32869389880E+03  0.42336624227E+03  0.26316653776E+03 0.  0.
         25    1    4    4    0    0  0.15098927829E+02 -0.16125465637E+02  0.17490745054E+03  0.21616690916E+03  0.12509000000E+03 0.  0.
         25    1    3    3    0    0 -0.66866844138E+01 -0.43565555745E+02  0.50672377293E+03  0.52379305030E+03  0.12509000000E+03 0.  0.
         25    1    4    4    0    0 -0.84122434150E+01  0.59691021382E+02  0.15378644826E+03  0.20719933311E+03  0.12509000000E+03 0.  0.
<mgrwt>
<rscale>  2 0.44630487E+03</rscale>
<asrwt>0</asrwt>
<pdfrwt beam="1">  1       21 0.13107183E+00 0.44630487E+03</pdfrwt>
<pdfrwt beam="2">  1       21 0.82162962E-02 0.44630487E+03</pdfrwt>
<totfact> 0.44184761E+04</totfact>
</mgrwt>
</event>
<event>
 7    0  0.4766352E-002  0.4578271E+03  0.7546771E-02  0.1025413E+00
         21   -1    0    0  502  501  0.00000000000E+00  0.00000000000E+00  0.60310610181E+03  0.60310610181E+03  0.00000000000E+00 0.  1.
         21   -1    0    0  501  502 -0.00000000000E+00 -0.00000000000E+00 -0.86885902296E+02  0.86885902296E+02  0.00000000000E+00 0.  1.
      99926    2    1    2    0    0 -0.66613381478E-15  0.13877787808E-15  0.51622019951E+03  0.68999200410E+03  0.45782711949E+03 0.  0.
      99925    2    3    3    0    0 -0.78616188538E+00  0.76899389839E-02  0.49857004781E+03  0.56366047967E+03  0.26294567055E+03 0.  0.
         25    1    4    4    0    0  0.23404138145E+02 -0.15362182962E+02  0.31109906843E+03  0.33647271632E+03  0.12509000000E+03 0.  0.
         25    1    4    4    0    0 -0.24190300030E+02  0.15369872901E+02  0.18747097938E+03  0.22718776336E+03  0.12509000000E+03 0.  0.
         25    1    3    3    0    0  0.78616188538E+00 -0.76899389839E-02  0.17650151699E+02  0.12633152443E+03  0.12509000000E+03 0.  0.
<mgrwt>
<rscale>  2 0.45782712E+03</rscale>
<asrwt>0</asrwt>
<pdfrwt beam="1">  1       21 0.88692072E-01 0.45782712E+03</pdfrwt>
<pdfrwt beam="2">  1       21 0.12777339E-01 0.45782712E+03</pdfrwt>
<totfact> 0.52276628E+04</totfact>
</mgrwt>
</event>
<event>
 7    0  0.4766352E-002  0.4386260E+03  0.7546771E-02  0.1031169E+00
         21   -1    0    0  502  501  0.00000000000E+00  0.00000000000E+00  0.16649808112E+03  0.16649808112E+03  0.00000000000E+00 0. -1.
         21   -1    0    0  501  502 -0.00000000000E+00 -0.00000000000E+00 -0.28888138540E+03  0.28888138540E+03  0.00000000000E+00 0. -1.
      99926    2    1    2    0    0  0.00000000000E+00  0.00000000000E+00 -0.12238330429E+03  0.45537946652E+03  0.43862601993E+03 0.  0.
      99925    2    3    3    0    0 -0.62872219414E+02 -0.43689442954E+02 -0.13989113879E+03  0.30767802520E+03  0.26312459611E+03 0.  0.
         25    1    4    4    0    0 -0.11738681615E+02  0.14420390894E+02 -0.73675644854E+02  0.14636035346E+03  0.12509000000E+03 0.  0.
         25    1    4    4    0    0 -0.51133537799E+02 -0.58109833848E+02 -0.66215493938E+02  0.16131767174E+03  0.12509000000E+03 0.  0.
         25    1    3    3    0    0  0.62872219414E+02  0.43689442954E+02  0.17507834504E+02  0.14770144132E+03  0.12509000000E+03 0.  0.
<mgrwt>
<rscale>  2 0.43862602E+03</rscale>
<asrwt>0</asrwt>
<pdfrwt beam="1">  1       21 0.24485012E-01 0.43862602E+03</pdfrwt>
<pdfrwt beam="2">  1       21 0.42482556E-01 0.43862602E+03</pdfrwt>
<totfact> 0.78214828E+04</totfact>
</mgrwt>
</event>
<event>
 7    0  0.4766352E-002  0.4494977E+03  0.7546771E-02  0.1027872E+00
         21   -1    0    0  502  501  0.00000000000E+00  0.00000000000E+00  0.26031464624E+03  0.26031464624E+03  0.00000000000E+00 0.  1.
         21   -1    0    0  501  502 -0.00000000000E+00 -0.00000000000E+00 -0.19404227837E+03  0.19404227837E+03  0.00000000000E+00 0.  1.
      99926    2    1    2    0    0 -0.14210854715E-13  0.00000000000E+00  0.66272367872E+02  0.45435692461E+03  0.44949770655E+03 0.  0.
      99925    2    3    3    0    0 -0.10042319519E+03 -0.23475220629E+02  0.74438618386E+02  0.29202978620E+03  0.26287712720E+03 0.  0.
         25    1    3    3    0    0  0.10042319519E+03  0.23475220629E+02 -0.81662505140E+01  0.16232713841E+03  0.12509000000E+03 0.  0.
         25    1    4    4    0    0 -0.83334718143E+02  0.56071103949E+01  0.20946388797E+02  0.15186301142E+03  0.12509000000E+03 0.  0.
         25    1    4    4    0    0 -0.17088477049E+02 -0.29082331024E+02  0.53492229589E+02  0.14016677478E+03  0.12509000000E+03 0.  0.
<mgrwt>
<rscale>  2 0.44949771E+03</rscale>
<asrwt>0</asrwt>
<pdfrwt beam="1">  1       21 0.38281566E-01 0.44949771E+03</pdfrwt>
<pdfrwt beam="2">  1       21 0.28535629E-01 0.44949771E+03</pdfrwt>
<totfact> 0.71688131E+04</totfact>
</mgrwt>
</event>
<event>
 7    0  0.4766352E-002  0.4558628E+03  0.7546771E-02  0.1025988E+00
         21   -1    0    0  502  501  0.00000000000E+00  0.00000000000E+00  0.48557718689E+03  0.48557718689E+03  0.00000000000E+00 0.  1.
         21   -1    0    0  501  502 -0.00000000000E+00 -0.00000000000E+00 -0.10699167980E+03  0.10699167980E+03  0.00000000000E+00 0.  1.
      99926    2    1    2    0    0  0.35527136788E-14  0.00000000000E+00  0.37858550709E+03  0.59256886669E+03  0.45586278153E+03 0.  0.
      99925    2    3    3    0    0  0.31759199943E+02 -0.72784078979E+02  0.13160040082E+03  0.30454921501E+03  0.26291707805E+03 0.  0.
         25    1    4    4    0    0  0.42140848057E+02 -0.90028608755E+01  0.79916722782E+02  0.15456743919E+03  0.12509000000E+03 0.  0.
         25    1    3    3    0    0 -0.31759199943E+02  0.72784078979E+02  0.24698510628E+03  0.28801965168E+03  0.12509000000E+03 0.  0.
         25    1    4    4    0    0 -0.10381648114E+02 -0.63781218103E+02  0.51683678036E+02  0.14998177581E+03  0.12509000000E+03 0.  0.
<mgrwt>
<rscale>  2 0.45586278E+03</rscale>
<asrwt>0</asrwt>
<pdfrwt beam="1">  1       21 0.71408409E-01 0.45586278E+03</pdfrwt>
<pdfrwt beam="2">  1       21 0.15734071E-01 0.45586278E+03</pdfrwt>
<totfact> 0.58736496E+04</totfact>
</mgrwt>
</event>
<event>
 7    0  0.4766352E-002  0.4546559E+03  0.7546771E-02  0.1026343E+00
         21   -1    0    0  502  501  0.00000000000E+00  0.00000000000E+00  0.21859784694E+03  0.21859784694E+03  0.00000000000E+00 0.  1.
         21   -1    0    0  501  502 -0.00000000000E+00 -0.00000000000E+00 -0.23640670593E+03  0.23640670593E+03  0.00000000000E+00 0.  1.
      99926    2    1    2    0    0 -0.71054273576E-14  0.00000000000E+00 -0.17808858988E+02  0.45500455287E+03  0.45465590030E+03 0.  0.
      99925    2    3    3    0    0 -0.44969842461E+02  0.50656549388E+02  0.79115996868E+02  0.28286998775E+03  0.26299755946E+03 0.  0.
         25    1    4    4    0    0 -0.43188457634E+02  0.24038973673E+02  0.76930881711E+02  0.15494832619E+03  0.12509000000E+03 0.  0.
         25    1    3    3    0    0  0.44969842461E+02 -0.50656549388E+02 -0.96924855856E+02  0.17213456512E+03  0.12509000000E+03 0.  0.
         25    1    4    4    0    0 -0.17813848274E+01  0.26617575714E+02  0.21851151569E+01  0.12792166156E+03  0.12509000000E+03 0.  0.
<mgrwt>
<rscale>  2 0.45465590E+03</rscale>
<asrwt>0</asrwt>
<pdfrwt beam="1">  1       21 0.32146742E-01 0.45465590E+03</pdfrwt>
<pdfrwt beam="2">  1       21 0.34765692E-01 0.45465590E+03</pdfrwt>
<totfact> 0.68733995E+04</totfact>
</mgrwt>
</event>
<event>
 6    0  0.4766352E-002  0.4541972E+03  0.7546771E-02  0.1026478E+00
         21   -1    0    0  502  501  0.00000000000E+00  0.00000000000E+00  0.38411464378E+04  0.38411464378E+04  0.00000000000E+00 0.  1.
         21   -1    0    0  501  502 -0.00000000000E+00 -0.00000000000E+00 -0.13426659380E+02  0.13426659380E+02  0.00000000000E+00 0.  1.
      99926    2    1    2    0    0 -0.17763568394E-14  0.71054273576E-14  0.38277197784E+04  0.38545730971E+04  0.45419715916E+03 0.  0.
         25    1    3    3    0    0  0.21369306158E+01  0.61827136195E+02  0.63116693044E+03  0.64641036766E+03  0.12509000000E+03 0.  0.
         25    1    3    3    0    0  0.14777735384E+02 -0.55633220910E+02  0.20620260518E+04  0.20666185867E+04  0.12509000000E+03 0.  0.
         25    1    3    3    0    0 -0.16914666000E+02 -0.61939152848E+01  0.11345267962E+04  0.11415441428E+04  0.12509000000E+03 0.  0.
<mgrwt>
<rscale>  2 0.45419716E+03</rscale>
<asrwt>0</asrwt>
<pdfrwt beam="1">  1       21 0.56487371E+00 0.45419716E+03</pdfrwt>
<pdfrwt beam="2">  1       21 0.19745114E-02 0.45419716E+03</pdfrwt>
<totfact> 0.62328100E+02</totfact>
</mgrwt>
</event>
<event>
 7    0  0.4766352E-002  0.4517334E+03  0.7546771E-02  0.1027206E+00
         21   -1    0    0  502  501  0.00000000000E+00  0.00000000000E+00  0.19844941175E+03  0.19844941175E+03  0.00000000000E+00 0. -1.
         21   -1    0    0  501  502 -0.00000000000E+00 -0.00000000000E+00 -0.25707184269E+03  0.25707184269E+03  0.00000000000E+00 0. -1.
      99926    2    1    2    0    0  0.00000000000E+00  0.00000000000E+00 -0.58622430935E+02  0.45552125444E+03  0.45173335480E+03 0.  0.
      99925    2    3    3    0    0 -0.11823032349E+02 -0.10704976063E+03 -0.14099381374E+02  0.28455562811E+03  0.26300889260E+03 0.  0.
         25    1    3    3    0    0  0.11823032349E+02  0.10704976063E+03 -0.44523049561E+02  0.17096562633E+03  0.12509000000E+03 0.  0.
         25    1    4    4    0    0 -0.14814057490E+02 -0.37535907890E+02 -0.43460710396E+02  0.13843678026E+03  0.12509000000E+03 0.  0.
         25    1    4    4    0    0  0.29910251412E+01 -0.69513852744E+02  0.29361329022E+02  0.14611884785E+03  0.12509000000E+03 0.  0.
<mgrwt>
<rscale>  2 0.45173335E+03</rscale>
<asrwt>0</asrwt>
<pdfrwt beam="1">  1       21 0.29183737E-01 0.45173335E+03</pdfrwt>
<pdfrwt beam="2">  1       21 0.37804682E-01 0.45173335E+03</pdfrwt>
<totfact> 0.70322381E+04</totfact>
</mgrwt>
</event>
<event>
 7    0  0.4766352E-002  0.4364884E+03  0.7546771E-02  0.1031830E+00
         21   -1    0    0  502  501  0.00000000000E+00  0.00000000000E+00  0.52183145406E+03  0.52183145406E+03  0.00000000000E+00 0. -1.
         21   -1    0    0  501  502 -0.00000000000E+00 -0.00000000000E+00 -0.91275688765E+02  0.91275688765E+02  0.00000000000E+00 0. -1.
      99926    2    1    2    0    0 -0.14210854715E-13  0.71054273576E-14  0.43055576529E+03  0.61310714282E+03  0.43648837505E+03 0.  0.
      99925    2    3    3    0    0  0.71133540512E+02 -0.56990772432E+02  0.31229722930E+03  0.41832388337E+03  0.26297791398E+03 0.  0.
         25    1    4    4    0    0  0.77278768347E+02 -0.29908989065E+02  0.17513196055E+03  0.23061931265E+03  0.12509000000E+03 0.  0.
         25    1    4    4    0    0 -0.61452278344E+01 -0.27081783367E+02  0.13716526875E+03  0.18770457071E+03  0.12509000000E+03 0.  0.
         25    1    3    3    0    0 -0.71133540512E+02  0.56990772432E+02  0.11825853600E+03  0.19478325946E+03  0.12509000000E+03 0.  0.
<mgrwt>
<rscale>  2 0.43648838E+03</rscale>
<asrwt>0</asrwt>
<pdfrwt beam="1">  1       21 0.76739918E-01 0.43648838E+03</pdfrwt>
<pdfrwt beam="2">  1       21 0.13422896E-01 0.43648838E+03</pdfrwt>
<totfact> 0.67173317E+04</totfact>
</mgrwt>
</event>
<event>
 7    0  0.4766352E-002  0.5290224E+03  0.7546771E-02  0.1006469E+00
         21   -1    0    0  502  501  0.00000000000E+00  0.00000000000E+00  0.92196760623E+02  0.92196760623E+02  0.00000000000E+00 0.  1.
         21   -1    0    0  501  502 -0.00000000000E+00 -0.00000000000E+00 -0.75887896017E+03  0.75887896017E+03  0.00000000000E+00 0.  1.
      99926    2    1    2    0    0  0.00000000000E+00  0.00000000000E+00 -0.66668219955E+03  0.85107572079E+03  0.52902242611E+03 0.  0.
      99925    2    3    3    0    0  0.56497946259E+02 -0.25542294788E+02 -0.13630089298E+03  0.30262675762E+03  0.26298401899E+03 0.  0.
         25    1    4    4    0    0  0.29463249271E+02 -0.17050018070E+02 -0.23356343433E+02  0.13172628080E+03  0.12509000000E+03 0.  0.
         25    1    4    4    0    0  0.27034696988E+02 -0.84922767174E+01 -0.11294454955E+03  0.17090047682E+03  0.12509000000E+03 0.  0.
         25    1    3    3    0    0 -0.56497946259E+02  0.25542294788E+02 -0.53038130656E+03  0.54844896317E+03  0.12509000000E+03 0.  0.
<mgrwt>
<rscale>  2 0.52902243E+03</rscale>
<asrwt>0</asrwt>
<pdfrwt beam="1">  1       21 0.13558347E-01 0.52902243E+03</pdfrwt>
<pdfrwt beam="2">  1       21 0.11159985E+00 0.52902243E+03</pdfrwt>
<totfact> 0.26390434E+04</totfact>
</mgrwt>
</event>
<event>
 7    0  0.4766352E-002  0.4541471E+03  0.7546771E-02  0.1026492E+00
         21   -1    0    0  502  501  0.00000000000E+00  0.00000000000E+00  0.77309122654E+02  0.77309122654E+02  0.00000000000E+00 0. -1.
         21   -1    0    0  501  502 -0.00000000000E+00 -0.00000000000E+00 -0.66696408588E+03  0.66696408588E+03  0.00000000000E+00 0. -1.
      99926    2    1    2    0    0  0.00000000000E+00 -0.14210854715E-13 -0.58965496322E+03  0.74427320853E+03  0.45414714937E+03 0.  0.
      99925    2    3    3    0    0  0.61287737178E+02 -0.78565540147E+02 -0.28619605859E+03  0.40125200550E+03  0.26299478538E+03 0.  0.
         25    1    4    4    0    0  0.19886707451E+02 -0.59097164863E+02 -0.19464214234E+03  0.23962685096E+03  0.12509000000E+03 0.  0.
         25    1    4    4    0    0  0.41401029727E+02 -0.19468375284E+02 -0.91553916250E+02  0.16162515454E+03  0.12509000000E+03 0.  0.
         25    1    3    3    0    0 -0.61287737178E+02  0.78565540147E+02 -0.30345890464E+03  0.34302120303E+03  0.12509000000E+03 0.  0.
<mgrwt>
<rscale>  2 0.45414715E+03</rscale>
<asrwt>0</asrwt>
<pdfrwt beam="1">  1       21 0.11368988E-01 0.45414715E+03</pdfrwt>
<pdfrwt beam="2">  1       21 0.98082955E-01 0.45414715E+03</pdfrwt>
<totfact> 0.50904645E+04</totfact>
</mgrwt>
</event>
<event>
 7    0  0.4766352E-002  0.4452886E+03  0.7546771E-02  0.1029136E+00
         21   -1    0    0  502  501  0.00000000000E+00  0.00000000000E+00  0.11895337529E+03  0.11895337529E+03  0.00000000000E+00 0. -1.
         21   -1    0    0  501  502 -0.00000000000E+00 -0.00000000000E+00 -0.41672199411E+03  0.41672199411E+03  0.00000000000E+00 0. -1.
      99926    2    1    2    0    0  0.00000000000E+00  0.00000000000E+00 -0.29776861882E+03  0.53567536940E+03  0.44528861543E+03 0.  0.
      99925    2    3    3    0    0  0.50135052533E+02  0.53383423423E+02 -0.10047410895E+03  0.29085718153E+03  0.26294398660E+03 0.  0.
         25    1    3    3    0    0 -0.50135052533E+02 -0.53383423423E+02 -0.19729450987E+03  0.24481818787E+03  0.12509000000E+03 0.  0.
         25    1    4    4    0    0 -0.14799116683E+02  0.15221955530E+02 -0.49725553126E+02  0.13627494457E+03  0.12509000000E+03 0.  0.
         25    1    4    4    0    0  0.64934169216E+02  0.38161467892E+02 -0.50748555825E+02  0.15458223695E+03  0.12509000000E+03 0.  0.
<mgrwt>
<rscale>  2 0.44528862E+03</rscale>
<asrwt>0</asrwt>
<pdfrwt beam="1">  1       21 0.17493144E-01 0.44528862E+03</pdfrwt>
<pdfrwt beam="2">  1       21 0.61282646E-01 0.44528862E+03</pdfrwt>
<totfact> 0.67893003E+04</totfact>
</mgrwt>
</event>
<event>
 7    0  0.4766352E-002  0.4495385E+03  0.7546771E-02  0.1027860E+00
         21   -1    0    0  502  501  0.00000000000E+00  0.00000000000E+00  0.25289385892E+04  0.25289385892E+04  0.00000000000E+00 0. -1.
         21   -1    0    0  501  502 -0.00000000000E+00 -0.00000000000E+00 -0.19977244237E+02  0.19977244237E+02  0.00000000000E+00 0. -1.
      99926    2    1    2    0    0  0.00000000000E+00 -0.17763568394E-14  0.25089613450E+04  0.25489158335E+04  0.44953853609E+03 0.  0.
      99925    2    3    3    0    0 -0.94813298749E+02  0.11961898616E+02  0.18719203898E+04  0.18927136273E+04  0.26295680389E+03 0.  0.
         25    1    4    4    0    0 -0.31523756259E+02  0.18357548261E+02  0.11433498910E+04  0.11507507237E+04  0.12509000000E+03 0.  0.
         25    1    3    3    0    0  0.94813298749E+02 -0.11961898616E+02  0.63704095522E+03  0.65620220615E+03  0.12509000000E+03 0.  0.
         25    1    4    4    0    0 -0.63289542490E+02 -0.63956496453E+01  0.72857049876E+03  0.74196290358E+03  0.12509000000E+03 0.  0.
<mgrwt>
<rscale>  2 0.44953854E+03</rscale>
<asrwt>0</asrwt>
<pdfrwt beam="1">  1       21 0.37190251E+00 0.44953854E+03</pdfrwt>
<pdfrwt beam="2">  1       21 0.29378318E-02 0.44953854E+03</pdfrwt>
<totfact> 0.69340140E+03</totfact>
</mgrwt>
</event>
<event>
 7    0  0.4766352E-002  0.4518035E+03  0.7546771E-02  0.1027186E+00
         21   -1    0    0  502  501  0.00000000000E+00  0.00000000000E+00  0.24722036955E+03  0.24722036955E+03  0.00000000000E+00 0. -1.
         21   -1    0    0  501  502 -0.00000000000E+00 -0.00000000000E+00 -0.20642149634E+03  0.20642149634E+03  0.00000000000E+00 0. -1.
      99926    2    1    2    0    0  0.00000000000E+00  0.71054273576E-14  0.40798873214E+02  0.45364186589E+03  0.45180349095E+03 0.  0.
      99925    2    3    3    0    0 -0.14863414526E+01  0.48122016089E+02  0.12521410472E+03  0.29523928683E+03  0.26300138179E+03 0.  0.
         25    1    4    4    0    0 -0.30283934254E+02  0.33919117576E+02  0.34744667844E+02  0.13755843578E+03  0.12509000000E+03 0.  0.
         25    1    3    3    0    0  0.14863414526E+01 -0.48122016089E+02 -0.84415231507E+02  0.15840257906E+03  0.12509000000E+03 0.  0.
         25    1    4    4    0    0  0.28797592801E+02  0.14202898513E+02  0.90469436878E+02  0.15768085104E+03  0.12509000000E+03 0.  0.
<mgrwt>
<rscale>  2 0.45180349E+03</rscale>
<asrwt>0</asrwt>
<pdfrwt beam="1">  1       21 0.36355937E-01 0.45180349E+03</pdfrwt>
<pdfrwt beam="2">  1       21 0.30356102E-01 0.45180349E+03</pdfrwt>
<totfact> 0.70424443E+04</totfact>
</mgrwt>
</event>
<event>
 7    0  0.4766352E-002  0.4537431E+03  0.7546771E-02  0.1026612E+00
         21   -1    0    0  502  501  0.00000000000E+00  0.00000000000E+00  0.34602764114E+03  0.34602764114E+03  0.00000000000E+00 0.  1.
         21   -1    0    0  501  502 -0.00000000000E+00 -0.00000000000E+00 -0.14874736952E+03  0.14874736952E+03  0.00000000000E+00 0.  1.
      99926    2    1    2    0    0  0.00000000000E+00  0.00000000000E+00  0.19728027162E+03  0.49477501067E+03  0.45374310530E+03 0.  0.
      99925    2    3    3    0    0 -0.10480914895E+03  0.14290014553E+02  0.83808985894E+02  0.29549530020E+03  0.26287708935E+03 0.  0.
         25    1    3    3    0    0  0.10480914895E+03 -0.14290014553E+02  0.11347128573E+03  0.19927971047E+03  0.12509000000E+03 0.  0.
         25    1    4    4    0    0 -0.34081684265E+02  0.76055879395E+01  0.78055636068E+02  0.15152424424E+03  0.12509000000E+03 0.  0.
         25    1    4    4    0    0 -0.70727464684E+02  0.66844266134E+01  0.57533498260E+01  0.14397105596E+03  0.12509000000E+03 0.  0.
<mgrwt>
<rscale>  2 0.45374311E+03</rscale>
<asrwt>0</asrwt>
<pdfrwt beam="1">  1       21 0.50886418E-01 0.45374311E+03</pdfrwt>
<pdfrwt beam="2">  1       21 0.21874613E-01 0.45374311E+03</pdfrwt>
<totfact> 0.66298359E+04</totfact>
</mgrwt>
</event>
<event>
 7    0  0.4766352E-002  0.4651747E+03  0.7546771E-02  0.1023291E+00
         21   -1    0    0  502  501  0.00000000000E+00  0.00000000000E+00  0.23620531062E+03  0.23620531062E+03  0.00000000000E+00 0. -1.
         21   -1    0    0  501  502 -0.00000000000E+00 -0.00000000000E+00 -0.22902476613E+03  0.22902476613E+03  0.00000000000E+00 0. -1.
      99926    2    1    2    0    0 -0.71054273576E-14  0.00000000000E+00  0.71805444961E+01  0.46523007675E+03  0.46517465977E+03 0.  0.
      99925    2    3    3    0    0  0.46904004782E+02  0.76505012272E+02  0.87825707942E+02  0.29143665612E+03  0.26299993723E+03 0.  0.
         25    1    3    3    0    0 -0.46904004782E+02 -0.76505012272E+02 -0.80645163446E+02  0.17379342063E+03  0.12509000000E+03 0.  0.
         25    1    4    4    0    0 -0.44153718400E+01  0.43078683095E+02  0.12157973333E+02  0.13293078222E+03  0.12509000000E+03 0.  0.
         25    1    4    4    0    0  0.51319376622E+02  0.33426329176E+02  0.75667734609E+02  0.15850587390E+03  0.12509000000E+03 0.  0.
<mgrwt>
<rscale>  2 0.46517466E+03</rscale>
<asrwt>0</asrwt>
<pdfrwt beam="1">  1       21 0.34736075E-01 0.46517466E+03</pdfrwt>
<pdfrwt beam="2">  1       21 0.33680112E-01 0.46517466E+03</pdfrwt>
<totfact> 0.62566993E+04</totfact>
</mgrwt>
</event>
<event>
 7    0  0.4766352E-002  0.4524334E+03  0.7546771E-02  0.1026999E+00
         21   -1    0    0  502  501  0.00000000000E+00  0.00000000000E+00  0.12590002681E+03  0.12590002681E+03  0.00000000000E+00 0. -1.
         21   -1    0    0  501  502 -0.00000000000E+00 -0.00000000000E+00 -0.40646532740E+03  0.40646532740E+03  0.00000000000E+00 0. -1.
      99926    2    1    2    0    0  0.14210854715E-13  0.00000000000E+00 -0.28056530059E+03  0.53236535421E+03  0.45243340114E+03 0.  0.
      99925    2    3    3    0    0  0.90257337148E+02 -0.56686382408E+02 -0.21286046199E+03  0.35462625854E+03  0.26285066884E+03 0.  0.
         25    1    4    4    0    0  0.12109597194E+02 -0.51323499216E+02 -0.11006899178E+03  0.17476680167E+03  0.12509000000E+03 0.  0.
         25    1    3    3    0    0 -0.90257337148E+02  0.56686382408E+02 -0.67704838599E+02  0.17773909567E+03  0.12509000000E+03 0.  0.
         25    1    4    4    0    0  0.78147739954E+02 -0.53628831924E+01 -0.10279147021E+03  0.17985945687E+03  0.12509000000E+03 0.  0.
<mgrwt>
<rscale>  2 0.45243340E+03</rscale>
<asrwt>0</asrwt>
<pdfrwt beam="1">  1       21 0.18514710E-01 0.45243340E+03</pdfrwt>
<pdfrwt beam="2">  1       21 0.59774312E-01 0.45243340E+03</pdfrwt>
<totfact> 0.64344352E+04</totfact>
</mgrwt>
</event>
<event>
 7    0  0.4766352E-002  0.4518147E+03  0.7546771E-02  0.1027182E+00
         21   -1    0    0  502  501  0.00000000000E+00  0.00000000000E+00  0.60546343056E+02  0.60546343056E+02  0.00000000000E+00 0.  1.
         21   -1    0    0  501  502 -0.00000000000E+00 -0.00000000000E+00 -0.84289363811E+03  0.84289363811E+03  0.00000000000E+00 0.  1.
      99926    2    1    2    0    0  0.00000000000E+00  0.00000000000E+00 -0.78234729506E+03  0.90343998117E+03  0.45181468490E+03 0.  0.
      99925    2    3    3    0    0  0.97167368423E+02 -0.13769071016E+02 -0.39347011383E+03  0.48331612445E+03  0.26295372383E+03 0.  0.
         25    1    3    3    0    0 -0.97167368423E+02  0.13769071016E+02 -0.38887718123E+03  0.42012385672E+03  0.12509000000E+03 0.  0.
         25    1    4    4    0    0  0.78716579913E+02 -0.35330097761E+02 -0.19982213764E+03  0.25103965932E+03  0.12509000000E+03 0.  0.
         25    1    4    4    0    0  0.18450788511E+02  0.21561026746E+02 -0.19364797619E+03  0.23227646513E+03  0.12509000000E+03 0.  0.
<mgrwt>
<rscale>  2 0.45181468E+03</rscale>
<asrwt>0</asrwt>
<pdfrwt beam="1">  1       21 0.89038734E-02 0.45181468E+03</pdfrwt>
<pdfrwt beam="2">  1       21 0.12395495E+00 0.45181468E+03</pdfrwt>
<totfact> 0.44176717E+04</totfact>
</mgrwt>
</event>
<event>
 7    0  0.4766352E-002  0.4551218E+03  0.7546771E-02  0.1026206E+00
         21   -1    0    0  502  501  0.00000000000E+00  0.00000000000E+00  0.46628912325E+03  0.46628912325E+03  0.00000000000E+00 0. -1.
         21   -1    0    0  501  502 -0.00000000000E+00 -0.00000000000E+00 -0.11105546493E+03  0.11105546493E+03  0.00000000000E+00 0. -1.
      99926    2    1    2    0    0  0.35527136788E-14  0.00000000000E+00  0.35523365832E+03  0.57734458818E+03  0.45512176557E+03 0.  0.
      99925    2    3    3    0    0 -0.17250090918E+02  0.17227820752E+02  0.83187276284E+02  0.27692637049E+03  0.26300898899E+03 0.  0.
         25    1    4    4    0    0  0.29577468435E+02  0.15872768067E+02  0.53268126136E+02  0.14004203929E+03  0.12509000000E+03 0.  0.
         25    1    3    3    0    0  0.17250090918E+02 -0.17227820752E+02  0.27204638203E+03  0.30041821769E+03  0.12509000000E+03 0.  0.
         25    1    4    4    0    0 -0.46827559352E+02  0.13550526852E+01  0.29919150148E+02  0.13688433120E+03  0.12509000000E+03 0.  0.
<mgrwt>
<rscale>  2 0.45512177E+03</rscale>
<asrwt>0</asrwt>
<pdfrwt beam="1">  1       21 0.68571929E-01 0.45512177E+03</pdfrwt>
<pdfrwt beam="2">  1       21 0.16331686E-01 0.45512177E+03</pdfrwt>
<totfact> 0.60037077E+04</totfact>
</mgrwt>
</event>
<event>
 7    0  0.4766352E-002  0.4542073E+03  0.7546771E-02  0.1026475E+00
         21   -1    0    0  502  501  0.00000000000E+00  0.00000000000E+00  0.91491579960E+02  0.91491579960E+02  0.00000000000E+00 0.  1.
         21   -1    0    0  501  502 -0.00000000000E+00 -0.00000000000E+00 -0.56372485892E+03  0.56372485892E+03  0.00000000000E+00 0.  1.
      99926    2    1    2    0    0  0.00000000000E+00  0.00000000000E+00 -0.47223327896E+03  0.65521643888E+03  0.45420734475E+03 0.  0.
      99925    2    3    3    0    0 -0.34904049054E+02  0.69411951034E+02 -0.41463528653E+03  0.49709829186E+03  0.26296003374E+03 0.  0.
         25    1    3    3    0    0  0.34904049054E+02 -0.69411951034E+02 -0.57597992440E+02  0.15811814703E+03  0.12509000000E+03 0.  0.
         25    1    4    4    0    0 -0.31392554152E+02  0.61717807356E+01 -0.24567540590E+03  0.27753827934E+03  0.12509000000E+03 0.  0.
         25    1    4    4    0    0 -0.35114949024E+01  0.63240170299E+02 -0.16895988063E+03  0.21956001252E+03  0.12509000000E+03 0.  0.
<mgrwt>
<rscale>  2 0.45420734E+03</rscale>
<asrwt>0</asrwt>
<pdfrwt beam="1">  1       21 0.13454644E-01 0.45420734E+03</pdfrwt>
<pdfrwt beam="2">  1       21 0.82900714E-01 0.45420734E+03</pdfrwt>
<totfact> 0.55749709E+04</totfact>
</mgrwt>
</event>
<event>
 7    0  0.4766352E-002  0.4434735E+03  0.7546771E-02  0.1029686E+00
         21   -1    0    0  502  501  0.00000000000E+00  0.00000000000E+00  0.12812795185E+03  0.12812795185E+03  0.00000000000E+00 0. -1.
         21   -1    0    0  501  502 -0.00000000000E+00 -0.00000000000E+00 -0.38373510874E+03  0.38373510874E+03  0.00000000000E+00 0. -1.
      99926    2    1    2    0    0  0.00000000000E+00  0.00000000000E+00 -0.25560715689E+03  0.51186306058E+03  0.44347353262E+03 0.  0.
      99925    2    3    3    0    0  0.36960928515E+02 -0.72394588958E+02 -0.23380287927E+03  0.36109827235E+03  0.26290889904E+03 0.  0.
         25    1    3    3    0    0 -0.36960928515E+02  0.72394588958E+02 -0.21804277618E+02  0.15076478823E+03  0.12509000000E+03 0.  0.
         25    1    4    4    0    0  0.28700948352E+02 -0.75678960912E+01 -0.14752289668E+03  0.19568221849E+03  0.12509000000E+03 0.  0.
         25    1    4    4    0    0  0.82599801630E+01 -0.64826692867E+02 -0.86279982592E+02  0.16541605387E+03  0.12509000000E+03 0.  0.
<mgrwt>
<rscale>  2 0.44347353E+03</rscale>
<asrwt>0</asrwt>
<pdfrwt beam="1">  1       21 0.18842346E-01 0.44347353E+03</pdfrwt>
<pdfrwt beam="2">  1       21 0.56431633E-01 0.44347353E+03</pdfrwt>
<totfact> 0.70692095E+04</totfact>
</mgrwt>
</event>
<event>
 7    0  0.4766352E-002  0.4393367E+03  0.7546771E-02  0.1030951E+00
         21   -1    0    0  502  501  0.00000000000E+00  0.00000000000E+00  0.23392221842E+03  0.23392221842E+03  0.00000000000E+00 0. -1.
         21   -1    0    0  501  502 -0.00000000000E+00 -0.00000000000E+00 -0.20628303498E+03  0.20628303498E+03  0.00000000000E+00 0. -1.
      99926    2    1    2    0    0  0.88817841970E-15  0.00000000000E+00  0.27639183436E+02  0.44020525340E+03  0.43933670534E+03 0.  0.
      99925    2    3    3    0    0 -0.65330878526E+01  0.93466951592E+02 -0.10465050872E+02  0.27933824917E+03  0.26294788055E+03 0.  0.
         25    1    4    4    0    0 -0.37945994462E+02  0.54795028167E+02  0.14208799320E+02  0.14244926004E+03  0.12509000000E+03 0.  0.
         25    1    3    3    0    0  0.65330878526E+01 -0.93466951592E+02  0.38104234308E+02  0.16086700423E+03  0.12509000000E+03 0.  0.
         25    1    4    4    0    0  0.31412906610E+02  0.38671923425E+02 -0.24673850191E+02  0.13688898913E+03  0.12509000000E+03 0.  0.
<mgrwt>
<rscale>  2 0.43933671E+03</rscale>
<asrwt>0</asrwt>
<pdfrwt beam="1">  1       21 0.34400327E-01 0.43933671E+03</pdfrwt>
<pdfrwt beam="2">  1       21 0.30335740E-01 0.43933671E+03</pdfrwt>
<totfact> 0.79073162E+04</totfact>
</mgrwt>
</event>
<event>
 7    0  0.4766352E-002  0.4530701E+03  0.7546771E-02  0.1026810E+00
         21   -1    0    0  502  501  0.00000000000E+00  0.00000000000E+00  0.79127862302E+02  0.79127862302E+02  0.00000000000E+00 0.  1.
         21   -1    0    0  501  502 -0.00000000000E+00 -0.00000000000E+00 -0.64854680442E+03  0.64854680442E+03  0.00000000000E+00 0.  1.
      99926    2    1    2    0    0  0.00000000000E+00  0.71054273576E-14 -0.56941894212E+03  0.72767466672E+03  0.45307007068E+03 0.  0.
      99925    2    3    3    0    0 -0.51385910035E+02  0.60354253884E+02 -0.48421243494E+03  0.55682149971E+03  0.26325909800E+03 0.  0.
         25    1    4    4    0    0  0.96872031203E+01  0.46845010931E+02 -0.26236018390E+03  0.29456522393E+03  0.12509000000E+03 0.  0.
         25    1    4    4    0    0 -0.61073113156E+02  0.13509242953E+02 -0.22185225104E+03  0.26225627578E+03  0.12509000000E+03 0.  0.
         25    1    3    3    0    0  0.51385910035E+02 -0.60354253884E+02 -0.85206507181E+02  0.17085316701E+03  0.12509000000E+03 0.  0.
<mgrwt>
<rscale>  2 0.45307007E+03</rscale>
<asrwt>0</asrwt>
<pdfrwt beam="1">  1       21 0.11636450E-01 0.45307007E+03</pdfrwt>
<pdfrwt beam="2">  1       21 0.95374533E-01 0.45307007E+03</pdfrwt>
<totfact> 0.52214011E+04</totfact>
</mgrwt>
</event>
<event>
 7    0  0.4766352E-002  0.4537538E+03  0.7546771E-02  0.1026608E+00
         21   -1    0    0  502  501  0.00000000000E+00  0.00000000000E+00  0.27882884460E+03  0.27882884460E+03  0.00000000000E+00 0.  1.
         21   -1    0    0  501  502 -0.00000000000E+00 -0.00000000000E+00 -0.18460476853E+03  0.18460476853E+03  0.00000000000E+00 0.  1.
      99926    2    1    2    0    0  0.14210854715E-13 -0.71054273576E-14  0.94224076079E+02  0.46343361313E+03  0.45375382893E+03 0.  0.
      99925    2    3    3    0    0  0.75295898033E+02 -0.61546343727E+02  0.11607243155E+03  0.30348898701E+03  0.26301203620E+03 0.  0.
         25    1    3    3    0    0 -0.75295898033E+02  0.61546343727E+02 -0.21848355467E+02  0.15994462612E+03  0.12509000000E+03 0.  0.
         25    1    4    4    0    0  0.62538115942E+02 -0.22220455160E+02  0.93850364663E+02  0.16988279377E+03  0.12509000000E+03 0.  0.
         25    1    4    4    0    0  0.12757782091E+02 -0.39325888567E+02  0.22222066883E+02  0.13360619324E+03  0.12509000000E+03 0.  0.
<mgrwt>
<rscale>  2 0.45375383E+03</rscale>
<asrwt>0</asrwt>
<pdfrwt beam="1">  1       21 0.41004242E-01 0.45375383E+03</pdfrwt>
<pdfrwt beam="2">  1       21 0.27147760E-01 0.45375383E+03</pdfrwt>
<totfact> 0.68603629E+04</totfact>
</mgrwt>
</event>
<event>
 7    0  0.4766352E-002  0.4547271E+03  0.7546771E-02  0.1026322E+00
         21   -1    0    0  502  501  0.00000000000E+00  0.00000000000E+00  0.34182356066E+03  0.34182356066E+03  0.00000000000E+00 0. -1.
         21   -1    0    0  501  502 -0.00000000000E+00 -0.00000000000E+00 -0.15123063376E+03  0.15123063376E+03  0.00000000000E+00 0. -1.
      99926    2    1    2    0    0  0.00000000000E+00  0.00000000000E+00  0.19059292690E+03  0.49305419442E+03  0.45472714330E+03 0.  0.
      99925    2    3    3    0    0  0.10962137840E+03 -0.25472627075E+02  0.12006063282E+03  0.31060416307E+03  0.26342871755E+03 0.  0.
         25    1    4    4    0    0  0.63335736593E+02  0.16160445322E+02  0.90872387901E+02  0.16786266561E+03  0.12509000000E+03 0.  0.
         25    1    3    3    0    0 -0.10962137840E+03  0.25472627075E+02  0.70532294080E+02  0.18245003136E+03  0.12509000000E+03 0.  0.
         25    1    4    4    0    0  0.46285641812E+02 -0.41633072397E+02  0.29188244916E+02  0.14274149746E+03  0.12509000000E+03 0.  0.
<mgrwt>
<rscale>  2 0.45472714E+03</rscale>
<asrwt>0</asrwt>
<pdfrwt beam="1">  1       21 0.50268171E-01 0.45472714E+03</pdfrwt>
<pdfrwt beam="2">  1       21 0.22239799E-01 0.45472714E+03</pdfrwt>
<totfact> 0.65904066E+04</totfact>
</mgrwt>
</event>
<event>
 7    0  0.4766352E-002  0.3943515E+03  0.7546771E-02  0.1045753E+00
         21   -1    0    0  502  501  0.00000000000E+00  0.00000000000E+00  0.37185456013E+02  0.37185456013E+02  0.00000000000E+00 0.  1.
         21   -1    0    0  501  502 -0.00000000000E+00 -0.00000000000E+00 -0.10455236577E+04  0.10455236577E+04  0.00000000000E+00 0.  1.
      99926    2    1    2    0    0  0.00000000000E+00 -0.71054273576E-14 -0.10083382016E+04  0.10827091137E+04  0.39435148780E+03 0.  0.
      99925    2    3    3    0    0  0.35808796468E+01  0.32213551024E+02 -0.69373002566E+03  0.74259685563E+03  0.26294144962E+03 0.  0.
         25    1    3    3    0    0 -0.35808796468E+01 -0.32213551024E+02 -0.31460817598E+03  0.34011225803E+03  0.12509000000E+03 0.  0.
         25    1    4    4    0    0  0.30219168718E+02  0.34255126197E+02 -0.29058554852E+03  0.31964680655E+03  0.12509000000E+03 0.  0.
         25    1    4    4    0    0 -0.26638289071E+02 -0.20415751732E+01 -0.40314447714E+03  0.42295004908E+03  0.12509000000E+03 0.  0.
<mgrwt>
<rscale>  2 0.39435149E+03</rscale>
<asrwt>0</asrwt>
<pdfrwt beam="1">  1       21 0.54684493E-02 0.39435149E+03</pdfrwt>
<pdfrwt beam="2">  1       21 0.15375348E+00 0.39435149E+03</pdfrwt>
<totfact> 0.59753831E+04</totfact>
</mgrwt>
</event>
<event>
 7    0  0.4766352E-002  0.4492149E+03  0.7546771E-02  0.1027956E+00
         21   -1    0    0  502  501  0.00000000000E+00  0.00000000000E+00  0.75412293199E+02  0.75412293199E+02  0.00000000000E+00 0. -1.
         21   -1    0    0  501  502 -0.00000000000E+00 -0.00000000000E+00 -0.66896914093E+03  0.66896914093E+03  0.00000000000E+00 0. -1.
      99926    2    1    2    0    0  0.00000000000E+00  0.00000000000E+00 -0.59355684773E+03  0.74438143413E+03  0.44921485727E+03 0.  0.
      99925    2    3    3    0    0  0.30297391844E+02 -0.68520277016E+02 -0.24720833313E+03  0.36859191594E+03  0.26293550580E+03 0.  0.
         25    1    4    4    0    0 -0.19752819275E+02 -0.23209190514E+02 -0.92740868417E+02  0.15867330326E+03  0.12509000000E+03 0.  0.
         25    1    3    3    0    0 -0.30297391844E+02  0.68520277016E+02 -0.34634851460E+03  0.37578951819E+03  0.12509000000E+03 0.  0.
         25    1    4    4    0    0  0.50050211119E+02 -0.45311086502E+02 -0.15446746471E+03  0.20991861267E+03  0.12509000000E+03 0.  0.
<mgrwt>
<rscale>  2 0.44921486E+03</rscale>
<asrwt>0</asrwt>
<pdfrwt beam="1">  1       21 0.11090043E-01 0.44921486E+03</pdfrwt>
<pdfrwt beam="2">  1       21 0.98377815E-01 0.44921486E+03</pdfrwt>
<totfact> 0.52924646E+04</totfact>
</mgrwt>
</event>
<event>
 7    0  0.4766352E-002  0.4569156E+03  0.7546771E-02  0.1025680E+00
         21   -1    0    0  502  501  0.00000000000E+00  0.00000000000E+00  0.50952793594E+03  0.50952793594E+03  0.00000000000E+00 0.  1.
         21   -1    0    0  501  502 -0.00000000000E+00 -0.00000000000E+00 -0.10243398245E+03  0.10243398245E+03  0.00000000000E+00 0.  1.
      99926    2    1    2    0    0  0.00000000000E+00  0.00000000000E+00  0.40709395349E+03  0.61196191840E+03  0.45691564057E+03 0.  0.
      99925    2    3    3    0    0 -0.10842206376E+03  0.35199757032E+02  0.23631051078E+03  0.37152718878E+03  0.26305023796E+03 0.  0.
         25    1    4    4    0    0 -0.74150928058E+02 -0.16874032663E+02  0.13219798383E+03  0.19724834129E+03  0.12509000000E+03 0.  0.
         25    1    4    4    0    0 -0.34271135699E+02  0.52073789695E+02  0.10411252695E+03  0.17427884749E+03  0.12509000000E+03 0.  0.
         25    1    3    3    0    0  0.10842206376E+03 -0.35199757032E+02  0.17078344271E+03  0.24043472962E+03  0.12509000000E+03 0.  0.
<mgrwt>
<rscale>  2 0.45691564E+03</rscale>
<asrwt>0</asrwt>
<pdfrwt beam="1">  1       21 0.74930578E-01 0.45691564E+03</pdfrwt>
<pdfrwt beam="2">  1       21 0.15063821E-01 0.45691564E+03</pdfrwt>
<totfact> 0.57079388E+04</totfact>
</mgrwt>
</event>
<event>
 7    0  0.4766352E-002  0.4548411E+03  0.7546771E-02  0.1026288E+00
         21   -1    0    0  502  501  0.00000000000E+00  0.00000000000E+00  0.69405806527E+03  0.69405806527E+03  0.00000000000E+00 0. -1.
         21   -1    0    0  501  502 -0.00000000000E+00 -0.00000000000E+00 -0.74518414361E+02  0.74518414361E+02  0.00000000000E+00 0. -1.
      99926    2    1    2    0    0  0.00000000000E+00  0.00000000000E+00  0.61953965091E+03  0.76857647963E+03  0.45484109972E+03 0.  0.
      99925    2    3    3    0    0 -0.49251974987E+02  0.99250058918E+02  0.42851121689E+03  0.51477399355E+03  0.26285750932E+03 0.  0.
         25    1    3    3    0    0  0.49251974987E+02 -0.99250058918E+02  0.19102843403E+03  0.25380248608E+03  0.12509000000E+03 0.  0.
         25    1    4    4    0    0 -0.13538919632E+01  0.79327263717E+02  0.19566549293E+03  0.24541218595E+03  0.12509000000E+03 0.  0.
         25    1    4    4    0    0 -0.47898083023E+02  0.19922795201E+02  0.23284572396E+03  0.26936180760E+03  0.12509000000E+03 0.  0.
<mgrwt>
<rscale>  2 0.45484110E+03</rscale>
<asrwt>0</asrwt>
<pdfrwt beam="1">  1       21 0.10206736E+00 0.45484110E+03</pdfrwt>
<pdfrwt beam="2">  1       21 0.10958591E-01 0.45484110E+03</pdfrwt>
<totfact> 0.49383771E+04</totfact>
</mgrwt>
</event>
<event>
 7    0  0.4766352E-002  0.4474815E+03  0.7546771E-02  0.1028476E+00
         21   -1    0    0  502  501  0.00000000000E+00  0.00000000000E+00  0.61933643442E+03  0.61933643442E+03  0.00000000000E+00 0.  1.
         21   -1    0    0  501  502 -0.00000000000E+00 -0.00000000000E+00 -0.80828324291E+02  0.80828324291E+02  0.00000000000E+00 0.  1.
      99926    2    1    2    0    0 -0.71054273576E-14  0.00000000000E+00  0.53850811013E+03  0.70016475871E+03  0.44748151321E+03 0.  0.
      99925    2    3    3    0    0 -0.34138370469E+02  0.93045909753E+02  0.28535159316E+03  0.40090116279E+03  0.26357777021E+03 0.  0.
         25    1    3    3    0    0  0.34138370469E+02 -0.93045909753E+02  0.25315651697E+03  0.29926359592E+03  0.12509000000E+03 0.  0.
         25    1    4    4    0    0  0.43363931062E+01  0.53459493591E+02  0.19198498190E+03  0.23533478947E+03  0.12509000000E+03 0.  0.
         25    1    4    4    0    0 -0.38474763575E+02  0.39586416162E+02  0.93366611266E+02  0.16556637333E+03  0.12509000000E+03 0.  0.
<mgrwt>
<rscale>  2 0.44748151E+03</rscale>
<asrwt>0</asrwt>
<pdfrwt beam="1">  1       21 0.91078885E-01 0.44748151E+03</pdfrwt>
<pdfrwt beam="2">  1       21 0.11886519E-01 0.44748151E+03</pdfrwt>
<totfact> 0.56142840E+04</totfact>
</mgrwt>
</event>
<event>
 7    0  0.4766352E-002  0.4557947E+03  0.7546771E-02  0.1026008E+00
         21   -1    0    0  502  501  0.00000000000E+00  0.00000000000E+00  0.27201346515E+02  0.27201346515E+02  0.00000000000E+00 0. -1.
         21   -1    0    0  501  502 -0.00000000000E+00 -0.00000000000E+00 -0.19093610488E+04  0.19093610488E+04  0.00000000000E+00 0. -1.
      99926    2    1    2    0    0  0.00000000000E+00  0.00000000000E+00 -0.18821597023E+04  0.19365623953E+04  0.45579465336E+03 0.  0.
      99925    2    3    3    0    0  0.10057982110E+03 -0.22419465059E+02 -0.97623534935E+03  0.10162551780E+04  0.26290720178E+03 0.  0.
         25    1    4    4    0    0  0.10732601158E+02  0.18429497968E-01 -0.38993993168E+03  0.40965332598E+03  0.12509000000E+03 0.  0.
         25    1    3    3    0    0 -0.10057982110E+03  0.22419465059E+02 -0.90592435291E+03  0.92030721725E+03  0.12509000000E+03 0.  0.
         25    1    4    4    0    0  0.89847219938E+02 -0.22437894557E+02 -0.58629541767E+03  0.60660185206E+03  0.12509000000E+03 0.  0.
<mgrwt>
<rscale>  2 0.45579465E+03</rscale>
<asrwt>0</asrwt>
<pdfrwt beam="1">  1       21 0.40001974E-02 0.45579465E+03</pdfrwt>
<pdfrwt beam="2">  1       21 0.28078843E+00 0.45579465E+03</pdfrwt>
<totfact> 0.14682584E+04</totfact>
</mgrwt>
</event>
<event>
 7    0  0.4766352E-002  0.4471540E+03  0.7546771E-02  0.1028574E+00
         21   -1    0    0  502  501  0.00000000000E+00  0.00000000000E+00  0.59231727484E+03  0.59231727484E+03  0.00000000000E+00 0.  1.
         21   -1    0    0  501  502 -0.00000000000E+00 -0.00000000000E+00 -0.84391705406E+02  0.84391705406E+02  0.00000000000E+00 0.  1.
      99926    2    1    2    0    0  0.00000000000E+00  0.00000000000E+00  0.50792556943E+03  0.67670898024E+03  0.44715395543E+03 0.  0.
      99925    2    3    3    0    0  0.93128942272E+02 -0.47195961593E+02  0.34469086115E+03  0.44607173961E+03  0.26318766772E+03 0.  0.
         25    1    3    3    0    0 -0.93128942272E+02  0.47195961593E+02  0.16323470828E+03  0.23063724063E+03  0.12509000000E+03 0.  0.
         25    1    4    4    0    0  0.75795016947E+02 -0.30915152649E+02  0.23223913040E+03  0.27619404962E+03  0.12509000000E+03 0.  0.
         25    1    4    4    0    0  0.17333925325E+02 -0.16280808944E+02  0.11245173075E+03  0.16987768999E+03  0.12509000000E+03 0.  0.
<mgrwt>
<rscale>  2 0.44715396E+03</rscale>
<asrwt>0</asrwt>
<pdfrwt beam="1">  1       21 0.87105480E-01 0.44715396E+03</pdfrwt>
<pdfrwt beam="2">  1       21 0.12410545E-01 0.44715396E+03</pdfrwt>
<totfact> 0.57667709E+04</totfact>
</mgrwt>
</event>
<event>
 7    0  0.4766352E-002  0.4539897E+03  0.7546771E-02  0.1026539E+00
         21   -1    0    0  502  501  0.00000000000E+00  0.00000000000E+00  0.43745802731E+03  0.43745802731E+03  0.00000000000E+00 0.  1.
         21   -1    0    0  501  502 -0.00000000000E+00 -0.00000000000E+00 -0.11778651515E+03  0.11778651515E+03  0.00000000000E+00 0.  1.
      99926    2    1    2    0    0  0.00000000000E+00  0.00000000000E+00  0.31967151217E+03  0.55524454246E+03  0.45398967636E+03 0.  0.
      99925    2    3    3    0    0 -0.30359501518E+02  0.67036188755E+02  0.30496417865E+03  0.40937006321E+03  0.26299267758E+03 0.  0.
         25    1    4    4    0    0  0.15642708176E+02  0.56769521330E+02  0.17389110186E+03  0.22215556774E+03  0.12509000000E+03 0.  0.
         25    1    4    4    0    0 -0.46002209694E+02  0.10266667425E+02  0.13107307679E+03  0.18721449548E+03  0.12509000000E+03 0.  0.
         25    1    3    3    0    0  0.30359501518E+02 -0.67036188755E+02  0.14707333516E+02  0.14587447924E+03  0.12509000000E+03 0.  0.
<mgrwt>
<rscale>  2 0.45398968E+03</rscale>
<asrwt>0</asrwt>
<pdfrwt beam="1">  1       21 0.64332062E-01 0.45398968E+03</pdfrwt>
<pdfrwt beam="2">  1       21 0.17321547E-01 0.45398968E+03</pdfrwt>
<totfact> 0.62015447E+04</totfact>
</mgrwt>
</event>
<event>
 7    0  0.4766352E-002  0.4691308E+03  0.7546771E-02  0.1022166E+00
         21   -1    0    0  502  501  0.00000000000E+00  0.00000000000E+00  0.60650869891E+03  0.60650869891E+03  0.00000000000E+00 0.  1.
         21   -1    0    0  501  502 -0.00000000000E+00 -0.00000000000E+00 -0.90717446234E+02  0.90717446234E+02  0.00000000000E+00 0.  1.
      99926    2    1    2    0    0  0.14210854715E-13  0.00000000000E+00  0.51579125267E+03  0.69722614514E+03  0.46913077189E+03 0.  0.
      99925    2    3    3    0    0 -0.10051732480E+03  0.13976915171E+02  0.43141383950E+03  0.51538516325E+03  0.26306820188E+03 0.  0.
         25    1    4    4    0    0 -0.77284782281E+01  0.25589745798E+01  0.20654876915E+03  0.24161163024E+03  0.12509000000E+03 0.  0.
         25    1    4    4    0    0 -0.92788846571E+02  0.11417940591E+02  0.22486507034E+03  0.27377353301E+03  0.12509000000E+03 0.  0.
         25    1    3    3    0    0  0.10051732480E+03 -0.13976915171E+02  0.84377413176E+02  0.18184098190E+03  0.12509000000E+03 0.  0.
<mgrwt>
<rscale>  2 0.46913077E+03</rscale>
<asrwt>0</asrwt>
<pdfrwt beam="1">  1       21 0.89192454E-01 0.46913077E+03</pdfrwt>
<pdfrwt beam="2">  1       21 0.13340801E-01 0.46913077E+03</pdfrwt>
<totfact> 0.47539440E+04</totfact>
</mgrwt>
</event>
<event>
 7    0  0.4766352E-002  0.4560450E+03  0.7546771E-02  0.1025935E+00
         21   -1    0    0  502  501  0.00000000000E+00  0.00000000000E+00  0.26178413071E+03  0.26178413071E+03  0.00000000000E+00 0.  1.
         21   -1    0    0  501  502 -0.00000000000E+00 -0.00000000000E+00 -0.19861498985E+03  0.19861498985E+03  0.00000000000E+00 0.  1.
      99926    2    1    2    0    0  0.71054273576E-14  0.14210854715E-13  0.63169140860E+02  0.46039912057E+03  0.45604496474E+03 0.  0.
      99925    2    3    3    0    0 -0.43283596496E+02 -0.83391839121E+02 -0.25716831803E+02  0.28046609749E+03  0.26300609849E+03 0.  0.
         25    1    3    3    0    0  0.43283596496E+02  0.83391839121E+02  0.88885972663E+02  0.17993302308E+03  0.12509000000E+03 0.  0.
         25    1    4    4    0    0 -0.36436812055E+02 -0.35628654860E+01 -0.45594043408E+01  0.13041714439E+03  0.12509000000E+03 0.  0.
         25    1    4    4    0    0 -0.68467844401E+01 -0.79828973635E+02 -0.21157427462E+02  0.15004895310E+03  0.12509000000E+03 0.  0.
<mgrwt>
<rscale>  2 0.45604496E+03</rscale>
<asrwt>0</asrwt>
<pdfrwt beam="1">  1       21 0.38497666E-01 0.45604496E+03</pdfrwt>
<pdfrwt beam="2">  1       21 0.29208087E-01 0.45604496E+03</pdfrwt>
<totfact> 0.67586515E+04</totfact>
</mgrwt>
</event>
<event>
 7    0  0.4766352E-002  0.4561551E+03  0.7546771E-02  0.1025902E+00
         21   -1    0    0  502  501  0.00000000000E+00  0.00000000000E+00  0.34365855607E+02  0.34365855607E+02  0.00000000000E+00 0.  1.
         21   -1    0    0  501  502 -0.00000000000E+00 -0.00000000000E+00 -0.15136934431E+04  0.15136934431E+04  0.00000000000E+00 0.  1.
      99926    2    1    2    0    0  0.00000000000E+00  0.71054273576E-14 -0.14793275875E+04  0.15480592987E+04  0.45615510651E+03 0.  0.
      99925    2    3    3    0    0  0.99173904193E+02 -0.53133966163E+02 -0.99461564170E+03  0.10349785447E+04  0.26317604688E+03 0.  0.
         25    1    4    4    0    0  0.66352719077E+01 -0.17247071053E+02 -0.45219728983E+03  0.46954380555E+03  0.12509000000E+03 0.  0.
         25    1    4    4    0    0  0.92538632285E+02 -0.35886895110E+02 -0.54241835187E+03  0.56543473916E+03  0.12509000000E+03 0.  0.
         25    1    3    3    0    0 -0.99173904193E+02  0.53133966163E+02 -0.48471194577E+03  0.51308075398E+03  0.12509000000E+03 0.  0.
<mgrwt>
<rscale>  2 0.45615511E+03</rscale>
<asrwt>0</asrwt>
<pdfrwt beam="1">  1       21 0.50538031E-02 0.45615511E+03</pdfrwt>
<pdfrwt beam="2">  1       21 0.22260194E+00 0.45615511E+03</pdfrwt>
<totfact> 0.22423655E+04</totfact>
</mgrwt>
</event>
<event>
 7    0  0.4766352E-002  0.4200378E+03  0.7546771E-02  0.1037054E+00
         21   -1    0    0  502  501  0.00000000000E+00  0.00000000000E+00  0.33189387733E+03  0.33189387733E+03  0.00000000000E+00 0. -1.
         21   -1    0    0  501  502 -0.00000000000E+00 -0.00000000000E+00 -0.13289773141E+03  0.13289773141E+03  0.00000000000E+00 0. -1.
      99926    2    1    2    0    0  0.00000000000E+00  0.00000000000E+00  0.19899614592E+03  0.46479160874E+03  0.42003782385E+03 0.  0.
      99925    2    3    3    0    0  0.19826927937E+02  0.36120889123E+02  0.58971233090E+02  0.27256177230E+03  0.26289634400E+03 0.  0.
         25    1    4    4    0    0  0.28094899631E+02  0.32519803209E+02  0.64229945055E+02  0.14703691689E+03  0.12509000000E+03 0.  0.
         25    1    3    3    0    0 -0.19826927937E+02 -0.36120889123E+02  0.14002491283E+03  0.19222983643E+03  0.12509000000E+03 0.  0.
         25    1    4    4    0    0 -0.82679716937E+01  0.36010859145E+01 -0.52587119647E+01  0.12552485542E+03  0.12509000000E+03 0.  0.
<mgrwt>
<rscale>  2 0.42003782E+03</rscale>
<asrwt>0</asrwt>
<pdfrwt beam="1">  1       21 0.48807923E-01 0.42003782E+03</pdfrwt>
<pdfrwt beam="2">  1       21 0.19543784E-01 0.42003782E+03</pdfrwt>
<totfact> 0.90434002E+04</totfact>
</mgrwt>
</event>
<event>
 7    0  0.4766352E-002  0.4499243E+03  0.7546771E-02  0.1027745E+00
         21   -1    0    0  502  501  0.00000000000E+00  0.00000000000E+00  0.75668342822E+03  0.75668342822E+03  0.00000000000E+00 0. -1.
         21   -1    0    0  501  502 -0.00000000000E+00 -0.00000000000E+00 -0.66881287350E+02  0.66881287350E+02  0.00000000000E+00 0. -1.
      99926    2    1    2    0    0  0.00000000000E+00  0.00000000000E+00  0.68980214087E+03  0.82356471557E+03  0.44992426827E+03 0.  0.
      99925    2    3    3    0    0  0.75524759113E+02  0.77063124996E+02  0.45683247794E+03  0.53796869596E+03  0.26281493575E+03 0.  0.
         25    1    3    3    0    0 -0.75524759113E+02 -0.77063124996E+02  0.23296966293E+03  0.28559601961E+03  0.12509000000E+03 0.  0.
         25    1    4    4    0    0  0.57524633289E+02  0.58383604317E+02  0.18719141927E+03  0.23959520913E+03  0.12509000000E+03 0.  0.
         25    1    4    4    0    0  0.18000125824E+02  0.18679520680E+02  0.26964105867E+03  0.29837348683E+03  0.12509000000E+03 0.  0.
<mgrwt>
<rscale>  2 0.44992427E+03</rscale>
<asrwt>0</asrwt>
<pdfrwt beam="1">  1       21 0.11127697E+00 0.44992427E+03</pdfrwt>
<pdfrwt beam="2">  1       21 0.98354839E-02 0.44992427E+03</pdfrwt>
<totfact> 0.48550972E+04</totfact>
</mgrwt>
</event>
<event>
 7    0  0.4766352E-002  0.4531598E+03  0.7546771E-02  0.1026784E+00
         21   -1    0    0  502  501  0.00000000000E+00  0.00000000000E+00  0.84145693916E+02  0.84145693916E+02  0.00000000000E+00 0. -1.
         21   -1    0    0  501  502 -0.00000000000E+00 -0.00000000000E+00 -0.61011381487E+03  0.61011381487E+03  0.00000000000E+00 0. -1.
      99926    2    1    2    0    0  0.00000000000E+00 -0.14210854715E-13 -0.52596812095E+03  0.69425950878E+03  0.45315979663E+03 0.  0.
      99925    2    3    3    0    0 -0.84434409453E+02  0.67148806996E+02 -0.37527703964E+03  0.47066737595E+03  0.26278658740E+03 0.  0.
         25    1    3    3    0    0  0.84434409453E+02 -0.67148806996E+02 -0.15069108131E+03  0.22359213283E+03  0.12509000000E+03 0.  0.
         25    1    4    4    0    0 -0.68186982526E+02  0.62119173383E+02 -0.23715438165E+03  0.28354534932E+03  0.12509000000E+03 0.  0.
         25    1    4    4    0    0 -0.16247426928E+02  0.50296336136E+01 -0.13812265799E+03  0.18712202662E+03  0.12509000000E+03 0.  0.
<mgrwt>
<rscale>  2 0.45315980E+03</rscale>
<asrwt>0</asrwt>
<pdfrwt beam="1">  1       21 0.12374367E-01 0.45315980E+03</pdfrwt>
<pdfrwt beam="2">  1       21 0.89722621E-01 0.45315980E+03</pdfrwt>
<totfact> 0.53993592E+04</totfact>
</mgrwt>
</event>
<event>
 7    0  0.4766352E-002  0.4258405E+03  0.7546771E-02  0.1035182E+00
         21   -1    0    0  502  501  0.00000000000E+00  0.00000000000E+00  0.39178205344E+03  0.39178205344E+03  0.00000000000E+00 0.  1.
         21   -1    0    0  501  502 -0.00000000000E+00 -0.00000000000E+00 -0.11571494350E+03  0.11571494350E+03  0.00000000000E+00 0.  1.
      99926    2    1    2    0    0 -0.11102230246E-14  0.00000000000E+00  0.27606710994E+03  0.50749699694E+03  0.42584052497E+03 0.  0.
      99925    2    3    3    0    0  0.18843202418E+01 -0.30022085089E+02  0.27155274841E+03  0.37876174995E+03  0.26232554547E+03 0.  0.
         25    1    4    4    0    0 -0.23223767621E+02 -0.86569240929E+01  0.17866226504E+03  0.21950398349E+03  0.12509000000E+03 0.  0.
         25    1    3    3    0    0 -0.18843202418E+01  0.30022085089E+02  0.45143615363E+01  0.12873524698E+03  0.12509000000E+03 0.  0.
         25    1    4    4    0    0  0.25108087863E+02 -0.21365160996E+02  0.92890483366E+02  0.15925776647E+03  0.12509000000E+03 0.  0.
<mgrwt>
<rscale>  2 0.42584052E+03</rscale>
<asrwt>0</asrwt>
<pdfrwt beam="1">  1       21 0.57615007E-01 0.42584052E+03</pdfrwt>
<pdfrwt beam="2">  1       21 0.17016904E-01 0.42584052E+03</pdfrwt>
<totfact> 0.82159265E+04</totfact>
</mgrwt>
</event>
<event>
 7    0  0.4766352E-002  0.4401043E+03  0.7546771E-02  0.1030715E+00
         21   -1    0    0  502  501  0.00000000000E+00  0.00000000000E+00  0.25129992005E+04  0.25129992005E+04  0.00000000000E+00 0. -1.
         21   -1    0    0  501  502 -0.00000000000E+00 -0.00000000000E+00 -0.19268988550E+02  0.19268988550E+02  0.00000000000E+00 0. -1.
      99926    2    1    2    0    0  0.00000000000E+00  0.35527136788E-14  0.24937302119E+04  0.25322681890E+04  0.44010431864E+03 0.  0.
      99925    2    3    3    0    0 -0.50063097485E+02  0.27429289270E+02  0.20536347369E+04  0.20711931248E+04  0.26299552822E+03 0.  0.
         25    1    3    3    0    0  0.50063097485E+02 -0.27429289270E+02  0.44009547506E+03  0.46107506428E+03  0.12509000000E+03 0.  0.
         25    1    4    4    0    0 -0.63187416658E+02  0.27767552442E+02  0.10305515219E+04  0.10404074365E+04  0.12509000000E+03 0.  0.
         25    1    4    4    0    0  0.13124319173E+02 -0.33826317232E+00  0.10230832150E+04  0.10307856882E+04  0.12509000000E+03 0.  0.
<mgrwt>
<rscale>  2 0.44010432E+03</rscale>
<asrwt>0</asrwt>
<pdfrwt beam="1">  1       21 0.36955848E+00 0.44010432E+03</pdfrwt>
<pdfrwt beam="2">  1       21 0.28336765E-02 0.44010432E+03</pdfrwt>
<totfact> 0.76561943E+03</totfact>
</mgrwt>
</event>
<event>
 7    0  0.4766352E-002  0.4456402E+03  0.7546771E-02  0.1029030E+00
         21   -1    0    0  502  501  0.00000000000E+00  0.00000000000E+00  0.90094203987E+02  0.90094203987E+02  0.00000000000E+00 0. -1.
         21   -1    0    0  501  502 -0.00000000000E+00 -0.00000000000E+00 -0.55107641565E+03  0.55107641565E+03  0.00000000000E+00 0. -1.
      99926    2    1    2    0    0  0.00000000000E+00  0.00000000000E+00 -0.46098221166E+03  0.64117061964E+03  0.44564017325E+03 0.  0.
      99925    2    3    3    0    0 -0.59192230273E+02 -0.58166239219E+02 -0.38318205793E+03  0.47209252073E+03  0.26297495527E+03 0.  0.
         25    1    4    4    0    0 -0.10477014426E+02  0.83119213895E+01 -0.16702267238E+03  0.20910030382E+03  0.12509000000E+03 0.  0.
         25    1    4    4    0    0 -0.48715215847E+02 -0.66478160609E+02 -0.21615938555E+03  0.26299221691E+03  0.12509000000E+03 0.  0.
         25    1    3    3    0    0  0.59192230273E+02  0.58166239219E+02 -0.77800153732E+02  0.16907809891E+03  0.12509000000E+03 0.  0.
<mgrwt>
<rscale>  2 0.44564017E+03</rscale>
<asrwt>0</asrwt>
<pdfrwt beam="1">  1       21 0.13249147E-01 0.44564017E+03</pdfrwt>
<pdfrwt beam="2">  1       21 0.81040652E-01 0.44564017E+03</pdfrwt>
<totfact> 0.60563541E+04</totfact>
</mgrwt>
</event>
<event>
 7    0  0.4766352E-002  0.4417328E+03  0.7546771E-02  0.1030216E+00
         21   -1    0    0  502  501  0.00000000000E+00  0.00000000000E+00  0.80960983407E+02  0.80960983407E+02  0.00000000000E+00 0. -1.
         21   -1    0    0  501  502 -0.00000000000E+00 -0.00000000000E+00 -0.60253680942E+03  0.60253680942E+03  0.00000000000E+00 0. -1.
      99926    2    1    2    0    0  0.00000000000E+00  0.00000000000E+00 -0.52157582601E+03  0.68349779282E+03  0.44173282708E+03 0.  0.
      99925    2    3    3    0    0 -0.90770369577E+02  0.28199359177E+02 -0.38229738976E+03  0.47354433428E+03  0.26278979900E+03 0.  0.
         25    1    4    4    0    0 -0.44084177088E+02  0.47990943873E+02 -0.23221159760E+03  0.27169151537E+03  0.12509000000E+03 0.  0.
         25    1    3    3    0    0  0.90770369577E+02 -0.28199359177E+02 -0.13927843625E+03  0.20995345855E+03  0.12509000000E+03 0.  0.
         25    1    4    4    0    0 -0.46686192488E+02 -0.19791584696E+02 -0.15008579216E+03  0.20185281891E+03  0.12509000000E+03 0.  0.
<mgrwt>
<rscale>  2 0.44173283E+03</rscale>
<asrwt>0</asrwt>
<pdfrwt beam="1">  1       21 0.11906027E-01 0.44173283E+03</pdfrwt>
<pdfrwt beam="2">  1       21 0.88608354E-01 0.44173283E+03</pdfrwt>
<totfact> 0.59815803E+04</totfact>
</mgrwt>
</event>
<event>
 7    0  0.4766352E-002  0.4552359E+03  0.7546771E-02  0.1026172E+00
         21   -1    0    0  502  501  0.00000000000E+00  0.00000000000E+00  0.29510943622E+03  0.29510943622E+03  0.00000000000E+00 0. -1.
         21   -1    0    0  501  502 -0.00000000000E+00 -0.00000000000E+00 -0.17556178175E+03  0.17556178175E+03  0.00000000000E+00 0. -1.
      99926    2    1    2    0    0  0.00000000000E+00  0.00000000000E+00  0.11954765447E+03  0.47067121797E+03  0.45523593195E+03 0.  0.
      99925    2    3    3    0    0  0.51231210607E+02 -0.43115145312E+02  0.16980692421E+03  0.32014861173E+03  0.26301556872E+03 0.  0.
         25    1    4    4    0    0  0.18284566331E+02 -0.23372271901E+02  0.37167751392E+02  0.13382652317E+03  0.12509000000E+03 0.  0.
         25    1    3    3    0    0 -0.51231210607E+02  0.43115145312E+02 -0.50259269738E+02  0.15052260624E+03  0.12509000000E+03 0.  0.
         25    1    4    4    0    0  0.32946644276E+02 -0.19742873411E+02  0.13263917282E+03  0.18632208856E+03  0.12509000000E+03 0.  0.
<mgrwt>
<rscale>  2 0.45523593E+03</rscale>
<asrwt>0</asrwt>
<pdfrwt beam="1">  1       21 0.43398446E-01 0.45523593E+03</pdfrwt>
<pdfrwt beam="2">  1       21 0.25817909E-01 0.45523593E+03</pdfrwt>
<totfact> 0.67259843E+04</totfact>
</mgrwt>
</event>
<event>
 7    0  0.4766352E-002  0.4597008E+03  0.7546771E-02  0.1024868E+00
         21   -1    0    0  502  501  0.00000000000E+00  0.00000000000E+00  0.54069970701E+03  0.54069970701E+03  0.00000000000E+00 0.  1.
         21   -1    0    0  501  502 -0.00000000000E+00 -0.00000000000E+00 -0.97708942877E+02  0.97708942877E+02  0.00000000000E+00 0.  1.
      99926    2    1    2    0    0  0.00000000000E+00 -0.14210854715E-13  0.44299076413E+03  0.63840864988E+03  0.45970075826E+03 0.  0.
      99925    2    3    3    0    0  0.25505166827E+02 -0.98435331459E+02  0.19550270532E+03  0.34304806455E+03  0.26290804246E+03 0.  0.
         25    1    4    4    0    0  0.49679921077E+02 -0.42032718116E+02  0.11630063232E+03  0.18277907191E+03  0.12509000000E+03 0.  0.
         25    1    4    4    0    0 -0.24174754250E+02 -0.56402613343E+02  0.79202073005E+02  0.16026899264E+03  0.12509000000E+03 0.  0.
         25    1    3    3    0    0 -0.25505166827E+02  0.98435331459E+02  0.24748805881E+03  0.29536058533E+03  0.12509000000E+03 0.  0.
<mgrwt>
<rscale>  2 0.45970076E+03</rscale>
<asrwt>0</asrwt>
<pdfrwt beam="1">  1       21 0.79514661E-01 0.45970076E+03</pdfrwt>
<pdfrwt beam="2">  1       21 0.14368962E-01 0.45970076E+03</pdfrwt>
<totfact> 0.54330395E+04</totfact>
</mgrwt>
</event>
<event>
 7    0  0.4766352E-002  0.4523771E+03  0.7546771E-02  0.1027016E+00
         21   -1    0    0  502  501  0.00000000000E+00  0.00000000000E+00  0.26133984494E+03  0.26133984494E+03  0.00000000000E+00 0.  1.
         21   -1    0    0  501  502 -0.00000000000E+00 -0.00000000000E+00 -0.19576523084E+03  0.19576523084E+03  0.00000000000E+00 0.  1.
      99926    2    1    2    0    0 -0.71054273576E-14  0.00000000000E+00  0.65574614108E+02  0.45710507578E+03  0.45237707755E+03 0.  0.
      99925    2    3    3    0    0  0.49147685436E+02 -0.43189505011E+02 -0.48731671749E+02  0.27546184466E+03  0.26310382685E+03 0.  0.
         25    1    4    4    0    0 -0.68036626854E+01  0.42329141997E+01 -0.12298878397E+02  0.12594831439E+03  0.12509000000E+03 0.  0.
         25    1    3    3    0    0 -0.49147685436E+02  0.43189505011E+02  0.11430628586E+03  0.18164323112E+03  0.12509000000E+03 0.  0.
         25    1    4    4    0    0  0.55951348122E+02 -0.47422419211E+02 -0.36432793353E+02  0.14951353026E+03  0.12509000000E+03 0.  0.
<mgrwt>
<rscale>  2 0.45237708E+03</rscale>
<asrwt>0</asrwt>
<pdfrwt beam="1">  1       21 0.38432330E-01 0.45237708E+03</pdfrwt>
<pdfrwt beam="2">  1       21 0.28789005E-01 0.45237708E+03</pdfrwt>
<totfact> 0.69841549E+04</totfact>
</mgrwt>
</event>
<event>
 7    0  0.4766352E-002  0.4574258E+03  0.7546771E-02  0.1025530E+00
         21   -1    0    0  502  501  0.00000000000E+00  0.00000000000E+00  0.15588547712E+03  0.15588547712E+03  0.00000000000E+00 0. -1.
         21   -1    0    0  501  502 -0.00000000000E+00 -0.00000000000E+00 -0.33556419257E+03  0.33556419257E+03  0.00000000000E+00 0. -1.
      99926    2    1    2    0    0  0.35527136788E-14 -0.88817841970E-15 -0.17967871545E+03  0.49144966969E+03  0.45742577218E+03 0.  0.
      99925    2    3    3    0    0  0.13084138302E+02 -0.51739018628E+01 -0.23597869437E+03  0.35355420326E+03  0.26290048784E+03 0.  0.
         25    1    3    3    0    0 -0.13084138302E+02  0.51739018628E+01  0.56299978923E+02  0.13789546643E+03  0.12509000000E+03 0.  0.
         25    1    4    4    0    0  0.44594380268E+02  0.69507787962E+01 -0.13264758169E+03  0.18782934037E+03  0.12509000000E+03 0.  0.
         25    1    4    4    0    0 -0.31510241966E+02 -0.12124680659E+02 -0.10333111268E+03  0.16572486288E+03  0.12509000000E+03 0.  0.
<mgrwt>
<rscale>  2 0.45742577E+03</rscale>
<asrwt>0</asrwt>
<pdfrwt beam="1">  1       21 0.22924335E-01 0.45742577E+03</pdfrwt>
<pdfrwt beam="2">  1       21 0.49347676E-01 0.45742577E+03</pdfrwt>
<totfact> 0.64622168E+04</totfact>
</mgrwt>
</event>
<event>
 7    0  0.4766352E-002  0.4209819E+03  0.7546771E-02  0.1036747E+00
         21   -1    0    0  502  501  0.00000000000E+00  0.00000000000E+00  0.52717182243E+03  0.52717182243E+03  0.00000000000E+00 0.  1.
         21   -1    0    0  501  502 -0.00000000000E+00 -0.00000000000E+00 -0.84045537471E+02  0.84045537471E+02  0.00000000000E+00 0.  1.
      99926    2    1    2    0    0  0.35527136788E-14  0.14210854715E-13  0.44312628496E+03  0.61121735990E+03  0.42098189584E+03 0.  0.
      99925    2    3    3    0    0  0.25241824960E+02  0.72141693608E+02  0.27660170151E+03  0.38936263564E+03  0.26316000279E+03 0.  0.
         25    1    4    4    0    0  0.39180949123E+02  0.63777270181E+02  0.17222778342E+03  0.22563821584E+03  0.12509000000E+03 0.  0.
         25    1    4    4    0    0 -0.13939124163E+02  0.83644234274E+01  0.10437391810E+03  0.16372441981E+03  0.12509000000E+03 0.  0.
         25    1    3    3    0    0 -0.25241824960E+02 -0.72141693608E+02  0.16652458345E+03  0.22185472426E+03  0.12509000000E+03 0.  0.
<mgrwt>
<rscale>  2 0.42098190E+03</rscale>
<asrwt>0</asrwt>
<pdfrwt beam="1">  1       21 0.77525267E-01 0.42098190E+03</pdfrwt>
<pdfrwt beam="2">  1       21 0.12359638E-01 0.42098190E+03</pdfrwt>
<totfact> 0.76581295E+04</totfact>
</mgrwt>
</event>
<event>
 7    0  0.4766352E-002  0.4505963E+03  0.7546771E-02  0.1027544E+00
         21   -1    0    0  502  501  0.00000000000E+00  0.00000000000E+00  0.12972710537E+03  0.12972710537E+03  0.00000000000E+00 0. -1.
         21   -1    0    0  501  502 -0.00000000000E+00 -0.00000000000E+00 -0.39127725458E+03  0.39127725458E+03  0.00000000000E+00 0. -1.
      99926    2    1    2    0    0  0.00000000000E+00  0.00000000000E+00 -0.26155014921E+03  0.52100435995E+03  0.45059634101E+03 0.  0.
      99925    2    3    3    0    0 -0.41428457173E+02  0.11914684836E+02 -0.49515895610E+02  0.27107575098E+03  0.26300563126E+03 0.  0.
         25    1    4    4    0    0  0.12959872852E+02  0.17966408345E+01 -0.47024924740E+02  0.13427597652E+03  0.12509000000E+03 0.  0.
         25    1    4    4    0    0 -0.54388330024E+02  0.10118044001E+02 -0.24909708698E+01  0.13679977446E+03  0.12509000000E+03 0.  0.
         25    1    3    3    0    0  0.41428457173E+02 -0.11914684836E+02 -0.21203425361E+03  0.24992860897E+03  0.12509000000E+03 0.  0.
<mgrwt>
<rscale>  2 0.45059634E+03</rscale>
<asrwt>0</asrwt>
<pdfrwt beam="1">  1       21 0.19077515E-01 0.45059634E+03</pdfrwt>
<pdfrwt beam="2">  1       21 0.57540773E-01 0.45059634E+03</pdfrwt>
<totfact> 0.66097063E+04</totfact>
</mgrwt>
</event>
<event>
 7    0  0.4766352E-002  0.4599412E+03  0.7546771E-02  0.1024798E+00
         21   -1    0    0  502  501  0.00000000000E+00  0.00000000000E+00  0.64012634703E+02  0.64012634703E+02  0.00000000000E+00 0. -1.
         21   -1    0    0  501  502 -0.00000000000E+00 -0.00000000000E+00 -0.82618817213E+03  0.82618817213E+03  0.00000000000E+00 0. -1.
      99926    2    1    2    0    0  0.00000000000E+00  0.00000000000E+00 -0.76217553742E+03  0.89020080683E+03  0.45994122085E+03 0.  0.
      99925    2    3    3    0    0  0.73081176349E+02  0.48528505432E+02 -0.32662360417E+03  0.42862863606E+03  0.26333183375E+03 0.  0.
         25    1    3    3    0    0 -0.73081176349E+02 -0.48528505432E+02 -0.43555193325E+03  0.46157217077E+03  0.12509000000E+03 0.  0.
         25    1    4    4    0    0  0.60123589528E+01  0.86240254203E+01 -0.18933020263E+03  0.22716504133E+03  0.12509000000E+03 0.  0.
         25    1    4    4    0    0  0.67068817396E+02  0.39904480012E+02 -0.13729340154E+03  0.20146359472E+03  0.12509000000E+03 0.  0.
<mgrwt>
<rscale>  2 0.45994122E+03</rscale>
<asrwt>0</asrwt>
<pdfrwt beam="1">  1       21 0.94136235E-02 0.45994122E+03</pdfrwt>
<pdfrwt beam="2">  1       21 0.12149825E+00 0.45994122E+03</pdfrwt>
<totfact> 0.42010820E+04</totfact>
</mgrwt>
</event>
<event>
 7    0  0.4766352E-002  0.4532786E+03  0.7546771E-02  0.1026749E+00
         21   -1    0    0  502  501  0.00000000000E+00  0.00000000000E+00  0.26453700401E+03  0.26453700401E+03  0.00000000000E+00 0. -1.
         21   -1    0    0  501  502 -0.00000000000E+00 -0.00000000000E+00 -0.19417088091E+03  0.19417088091E+03  0.00000000000E+00 0. -1.
      99926    2    1    2    0    0  0.00000000000E+00  0.00000000000E+00  0.70366123098E+02  0.45870788491E+03  0.45327864764E+03 0.  0.
      99925    2    3    3    0    0  0.41855092488E+01 -0.77935524587E+02  0.12497934377E+03  0.30147691960E+03  0.26301526991E+03 0.  0.
         25    1    3    3    0    0 -0.41855092488E+01  0.77935524587E+02 -0.54613220675E+02  0.15723096531E+03  0.12509000000E+03 0.  0.
         25    1    4    4    0    0 -0.46732500724E+01 -0.33105821772E+02  0.18146840112E+02  0.13074651279E+03  0.12509000000E+03 0.  0.
         25    1    4    4    0    0  0.88587593211E+01 -0.44829702815E+02  0.10683250366E+03  0.17073040681E+03  0.12509000000E+03 0.  0.
<mgrwt>
<rscale>  2 0.45327865E+03</rscale>
<asrwt>0</asrwt>
<pdfrwt beam="1">  1       21 0.38902501E-01 0.45327865E+03</pdfrwt>
<pdfrwt beam="2">  1       21 0.28554541E-01 0.45327865E+03</pdfrwt>
<totfact> 0.69220143E+04</totfact>
</mgrwt>
</event>
<event>
 7    0  0.4766352E-002  0.4531511E+03  0.7546771E-02  0.1026787E+00
         21   -1    0    0  502  501  0.00000000000E+00  0.00000000000E+00  0.12071739065E+03  0.12071739065E+03  0.00000000000E+00 0.  1.
         21   -1    0    0  501  502 -0.00000000000E+00 -0.00000000000E+00 -0.42526166197E+03  0.42526166197E+03  0.00000000000E+00 0.  1.
      99926    2    1    2    0    0  0.71054273576E-14  0.71054273576E-14 -0.30454427132E+03  0.54597905262E+03  0.45315109258E+03 0.  0.
      99925    2    3    3    0    0  0.29442841432E+02  0.54618072763E+02 -0.80367557430E+02  0.28187164656E+03  0.26294993072E+03 0.  0.
         25    1    4    4    0    0 -0.21100408162E+02  0.68702381934E+01 -0.36400138895E+02  0.13215485466E+03  0.12509000000E+03 0.  0.
         25    1    4    4    0    0  0.50543249594E+02  0.47747834570E+02 -0.43967418535E+02  0.14971679190E+03  0.12509000000E+03 0.  0.
         25    1    3    3    0    0 -0.29442841432E+02 -0.54618072763E+02 -0.22417671389E+03  0.26410740606E+03  0.12509000000E+03 0.  0.
<mgrwt>
<rscale>  2 0.45315109E+03</rscale>
<asrwt>0</asrwt>
<pdfrwt beam="1">  1       21 0.17752557E-01 0.45315109E+03</pdfrwt>
<pdfrwt beam="2">  1       21 0.62538480E-01 0.45315109E+03</pdfrwt>
<totfact> 0.63050369E+04</totfact>
</mgrwt>
</event>
<event>
 7    0  0.4766352E-002  0.4447767E+03  0.7546771E-02  0.1029291E+00
         21   -1    0    0  502  501  0.00000000000E+00  0.00000000000E+00  0.36783901113E+03  0.36783901113E+03  0.00000000000E+00 0. -1.
         21   -1    0    0  501  502 -0.00000000000E+00 -0.00000000000E+00 -0.13445169480E+03  0.13445169480E+03  0.00000000000E+00 0. -1.
      99926    2    1    2    0    0  0.17763568394E-14  0.35527136788E-14  0.23338731633E+03  0.50229070593E+03  0.44477670109E+03 0.  0.
      99925    2    3    3    0    0 -0.14378933765E+02  0.25396410487E+02  0.36357990019E+02  0.26708910107E+03  0.26298850368E+03 0.  0.
         25    1    4    4    0    0 -0.17260203193E+02  0.39263179801E+02 -0.10749696701E+02  0.13267469985E+03  0.12509000000E+03 0.  0.
         25    1    4    4    0    0  0.28812694284E+01 -0.13866769314E+02  0.47107686720E+02  0.13441440121E+03  0.12509000000E+03 0.  0.
         25    1    3    3    0    0  0.14378933765E+02 -0.25396410487E+02  0.19702932631E+03  0.23520160486E+03  0.12509000000E+03 0.  0.
<mgrwt>
<rscale>  2 0.44477670E+03</rscale>
<asrwt>0</asrwt>
<pdfrwt beam="1">  1       21 0.54093972E-01 0.44477670E+03</pdfrwt>
<pdfrwt beam="2">  1       21 0.19772308E-01 0.44477670E+03</pdfrwt>
<totfact> 0.70672567E+04</totfact>
</mgrwt>
</event>
<event>
 7    0  0.4766352E-002  0.4542189E+03  0.7546771E-02  0.1026471E+00
         21   -1    0    0  502  501  0.00000000000E+00  0.00000000000E+00  0.22570925624E+04  0.22570925624E+04  0.00000000000E+00 0.  1.
         21   -1    0    0  501  502 -0.00000000000E+00 -0.00000000000E+00 -0.22851831732E+02  0.22851831732E+02  0.00000000000E+00 0.  1.
      99926    2    1    2    0    0  0.17763568394E-14  0.00000000000E+00  0.22342407307E+04  0.22799443941E+04  0.45421888750E+03 0.  0.
      99925    2    3    3    0    0 -0.13425056606E+02  0.74214853508E+02  0.18257661531E+04  0.18461390631E+04  0.26290553021E+03 0.  0.
         25    1    4    4    0    0 -0.30567590772E+02  0.17447174357E+02  0.70726337247E+03  0.71910205648E+03  0.12509000000E+03 0.  0.
         25    1    3    3    0    0  0.13425056606E+02 -0.74214853508E+02  0.40847457756E+03  0.43380533104E+03  0.12509000000E+03 0.  0.
         25    1    4    4    0    0  0.17142534165E+02  0.56767679151E+02  0.11185027806E+04  0.11270370066E+04  0.12509000000E+03 0.  0.
<mgrwt>
<rscale>  2 0.45421889E+03</rscale>
<asrwt>0</asrwt>
<pdfrwt beam="1">  1       21 0.33192522E+00 0.45421889E+03</pdfrwt>
<pdfrwt beam="2">  1       21 0.33605650E-02 0.45421889E+03</pdfrwt>
<totfact> 0.97127174E+03</totfact>
</mgrwt>
</event>
<event>
 7    0  0.4766352E-002  0.4578876E+03  0.7546771E-02  0.1025396E+00
         21   -1    0    0  502  501  0.00000000000E+00  0.00000000000E+00  0.58548748527E+03  0.58548748527E+03  0.00000000000E+00 0. -1.
         21   -1    0    0  501  502 -0.00000000000E+00 -0.00000000000E+00 -0.89524120799E+02  0.89524120799E+02  0.00000000000E+00 0. -1.
      99926    2    1    2    0    0  0.71054273576E-14  0.00000000000E+00  0.49596336447E+03  0.67501160607E+03  0.45788755108E+03 0.  0.
      99925    2    3    3    0    0 -0.36428268573E+02  0.68367573816E+02  0.18463177338E+03  0.33066292869E+03  0.26315002711E+03 0.  0.
         25    1    4    4    0    0 -0.52667186220E+02  0.19985032385E+02  0.11307312340E+03  0.17778153267E+03  0.12509000000E+03 0.  0.
         25    1    4    4    0    0  0.16238917647E+02  0.48382541431E+02  0.71558649981E+02  0.15288139602E+03  0.12509000000E+03 0.  0.
         25    1    3    3    0    0  0.36428268573E+02 -0.68367573816E+02  0.31133159109E+03  0.34434867738E+03  0.12509000000E+03 0.  0.
<mgrwt>
<rscale>  2 0.45788755E+03</rscale>
<asrwt>0</asrwt>
<pdfrwt beam="1">  1       21 0.86101099E-01 0.45788755E+03</pdfrwt>
<pdfrwt beam="2">  1       21 0.13165312E-01 0.45788755E+03</pdfrwt>
<totfact> 0.53063139E+04</totfact>
</mgrwt>
</event>
<event>
 7    0  0.4766352E-002  0.4284355E+03  0.7546771E-02  0.1034355E+00
         21   -1    0    0  502  501  0.00000000000E+00  0.00000000000E+00  0.24901777751E+03  0.24901777751E+03  0.00000000000E+00 0. -1.
         21   -1    0    0  501  502 -0.00000000000E+00 -0.00000000000E+00 -0.18428100611E+03  0.18428100611E+03  0.00000000000E+00 0. -1.
      99926    2    1    2    0    0  0.00000000000E+00  0.00000000000E+00  0.64736771404E+02  0.43329878362E+03  0.42843551010E+03 0.  0.
      99925    2    3    3    0    0 -0.15299301311E+02 -0.83330885033E+02  0.26257060399E+02  0.27739400088E+03  0.26283054138E+03 0.  0.
         25    1    3    3    0    0  0.15299301311E+02  0.83330885033E+02  0.38479711005E+02  0.15590478274E+03  0.12509000000E+03 0.  0.
         25    1    4    4    0    0  0.25959829122E+02 -0.46235562223E+02  0.34911135879E+02  0.14027806475E+03  0.12509000000E+03 0.  0.
         25    1    4    4    0    0 -0.41259130433E+02 -0.37095322811E+02 -0.86540754793E+01  0.13711593613E+03  0.12509000000E+03 0.  0.
<mgrwt>
<rscale>  2 0.42843551E+03</rscale>
<asrwt>0</asrwt>
<pdfrwt beam="1">  1       21 0.36620261E-01 0.42843551E+03</pdfrwt>
<pdfrwt beam="2">  1       21 0.27100148E-01 0.42843551E+03</pdfrwt>
<totfact> 0.87238587E+04</totfact>
</mgrwt>
</event>
<event>
 7    0  0.4766352E-002  0.4677502E+03  0.7546771E-02  0.1022557E+00
         21   -1    0    0  502  501  0.00000000000E+00  0.00000000000E+00  0.53880115175E+02  0.53880115175E+02  0.00000000000E+00 0. -1.
         21   -1    0    0  501  502 -0.00000000000E+00 -0.00000000000E+00 -0.10151715141E+04  0.10151715141E+04  0.00000000000E+00 0. -1.
      99926    2    1    2    0    0  0.00000000000E+00  0.00000000000E+00 -0.96129139888E+03  0.10690516292E+04  0.46775018161E+03 0.  0.
      99925    2    3    3    0    0  0.10220921115E+03  0.71501508894E+02 -0.59425788171E+03  0.66171847388E+03  0.26300136898E+03 0.  0.
         25    1    4    4    0    0  0.88098453158E+02  0.30224671863E+02 -0.27649504050E+03  0.31744587533E+03  0.12509000000E+03 0.  0.
         25    1    3    3    0    0 -0.10220921115E+03 -0.71501508894E+02 -0.36703351716E+03  0.40733315534E+03  0.12509000000E+03 0.  0.
         25    1    4    4    0    0  0.14110757991E+02  0.41276837032E+02 -0.31776284121E+03  0.34427259856E+03  0.12509000000E+03 0.  0.
<mgrwt>
<rscale>  2 0.46775018E+03</rscale>
<asrwt>0</asrwt>
<pdfrwt beam="1">  1       21 0.79235466E-02 0.46775018E+03</pdfrwt>
<pdfrwt beam="2">  1       21 0.14928992E+00 0.46775018E+03</pdfrwt>
<totfact> 0.33161491E+04</totfact>
</mgrwt>
</event>
<event>
 7    0  0.4766352E-002  0.4618405E+03  0.7546771E-02  0.1024249E+00
         21   -1    0    0  502  501  0.00000000000E+00  0.00000000000E+00  0.25813866686E+03  0.25813866686E+03  0.00000000000E+00 0. -1.
         21   -1    0    0  501  502 -0.00000000000E+00 -0.00000000000E+00 -0.20657173347E+03  0.20657173347E+03  0.00000000000E+00 0. -1.
      99926    2    1    2    0    0  0.00000000000E+00  0.00000000000E+00  0.51566933389E+02  0.46471040033E+03  0.46184045682E+03 0.  0.
      99925    2    3    3    0    0  0.98073968352E+02 -0.45531445731E+02  0.83360371627E+02  0.29633597640E+03  0.26301034872E+03 0.  0.
         25    1    4    4    0    0  0.83277242361E+02 -0.85864570626E+01  0.64348120969E+02  0.16369793863E+03  0.12509000000E+03 0.  0.
         25    1    3    3    0    0 -0.98073968352E+02  0.45531445731E+02 -0.31793438238E+02  0.16837442393E+03  0.12509000000E+03 0.  0.
         25    1    4    4    0    0  0.14796725991E+02 -0.36944988669E+02  0.19012250658E+02  0.13263803777E+03  0.12509000000E+03 0.  0.
<mgrwt>
<rscale>  2 0.46184046E+03</rscale>
<asrwt>0</asrwt>
<pdfrwt beam="1">  1       21 0.37961569E-01 0.46184046E+03</pdfrwt>
<pdfrwt beam="2">  1       21 0.30378196E-01 0.46184046E+03</pdfrwt>
<totfact> 0.64260739E+04</totfact>
</mgrwt>
</event>
<event>
 7    0  0.4766352E-002  0.4579664E+03  0.7546771E-02  0.1025373E+00
         21   -1    0    0  502  501  0.00000000000E+00  0.00000000000E+00  0.50568785645E+03  0.50568785645E+03  0.00000000000E+00 0.  1.
         21   -1    0    0  501  502 -0.00000000000E+00 -0.00000000000E+00 -0.10368707727E+03  0.10368707727E+03  0.00000000000E+00 0.  1.
      99926    2    1    2    0    0  0.00000000000E+00  0.00000000000E+00  0.40200077918E+03  0.60937493373E+03  0.45796635618E+03 0.  0.
      99925    2    3    3    0    0  0.72412328572E+02 -0.55583942431E+02  0.15721353772E+03  0.31971751250E+03  0.26300203682E+03 0.  0.
         25    1    4    4    0    0  0.50068172272E+02 -0.26094736003E+02  0.12434291099E+03  0.18519293922E+03  0.12509000000E+03 0.  0.
         25    1    4    4    0    0  0.22344156300E+02 -0.29489206428E+02  0.32870626727E+02  0.13452457329E+03  0.12509000000E+03 0.  0.
         25    1    3    3    0    0 -0.72412328572E+02  0.55583942431E+02  0.24478724146E+03  0.28965742122E+03  0.12509000000E+03 0.  0.
<mgrwt>
<rscale>  2 0.45796636E+03</rscale>
<asrwt>0</asrwt>
<pdfrwt beam="1">  1       21 0.74365860E-01 0.45796636E+03</pdfrwt>
<pdfrwt beam="2">  1       21 0.15248100E-01 0.45796636E+03</pdfrwt>
<totfact> 0.56763094E+04</totfact>
</mgrwt>
</event>
<event>
 7    0  0.4766352E-002  0.4491653E+03  0.7546771E-02  0.1027971E+00
         21   -1    0    0  502  501  0.00000000000E+00  0.00000000000E+00  0.10276743823E+03  0.10276743823E+03  0.00000000000E+00 0.  1.
         21   -1    0    0  501  502 -0.00000000000E+00 -0.00000000000E+00 -0.49079122201E+03  0.49079122201E+03  0.00000000000E+00 0.  1.
      99926    2    1    2    0    0  0.00000000000E+00  0.14210854715E-13 -0.38802378378E+03  0.59355866024E+03  0.44916525508E+03 0.  0.
      99925    2    3    3    0    0  0.35030858606E+01 -0.74319084618E+02 -0.14266989118E+03  0.30828398793E+03  0.26296144473E+03 0.  0.
         25    1    4    4    0    0  0.13938470127E+02 -0.71876007926E+02 -0.54412321063E+02  0.15481811990E+03  0.12509000000E+03 0.  0.
         25    1    3    3    0    0 -0.35030858606E+01  0.74319084618E+02 -0.24535389260E+03  0.28527467231E+03  0.12509000000E+03 0.  0.
         25    1    4    4    0    0 -0.10435384266E+02 -0.24430766924E+01 -0.88257570115E+02  0.15346586803E+03  0.12509000000E+03 0.  0.
<mgrwt>
<rscale>  2 0.44916526E+03</rscale>
<asrwt>0</asrwt>
<pdfrwt beam="1">  1       21 0.15112858E-01 0.44916526E+03</pdfrwt>
<pdfrwt beam="2">  1       21 0.72175181E-01 0.44916526E+03</pdfrwt>
<totfact> 0.61880805E+04</totfact>
</mgrwt>
</event>
<event>
 7    0  0.4766352E-002  0.4595444E+03  0.7546771E-02  0.1024913E+00
         21   -1    0    0  502  501  0.00000000000E+00  0.00000000000E+00  0.14343507629E+03  0.14343507629E+03  0.00000000000E+00 0. -1.
         21   -1    0    0  501  502 -0.00000000000E+00 -0.00000000000E+00 -0.36807785097E+03  0.36807785097E+03  0.00000000000E+00 0. -1.
      99926    2    1    2    0    0  0.00000000000E+00  0.14210854715E-13 -0.22464277468E+03  0.51151292727E+03  0.45954444676E+03 0.  0.
      99925    2    3    3    0    0 -0.25963260553E+02  0.10837100819E+03 -0.18177940620E+03  0.33858767529E+03  0.26301995176E+03 0.  0.
         25    1    4    4    0    0 -0.15210677400E+02  0.42141976761E+02 -0.41953678534E+02  0.13933746860E+03  0.12509000000E+03 0.  0.
         25    1    3    3    0    0  0.25963260553E+02 -0.10837100819E+03 -0.42863368480E+02  0.17292525198E+03  0.12509000000E+03 0.  0.
         25    1    4    4    0    0 -0.10752583153E+02  0.66229031431E+02 -0.13982572767E+03  0.19925020669E+03  0.12509000000E+03 0.  0.
<mgrwt>
<rscale>  2 0.45954445E+03</rscale>
<asrwt>0</asrwt>
<pdfrwt beam="1">  1       21 0.21093394E-01 0.45954445E+03</pdfrwt>
<pdfrwt beam="2">  1       21 0.54129095E-01 0.45954445E+03</pdfrwt>
<totfact> 0.62195512E+04</totfact>
</mgrwt>
</event>
<event>
 7    0  0.4766352E-002  0.4328976E+03  0.7546771E-02  0.1032949E+00
         21   -1    0    0  502  501  0.00000000000E+00  0.00000000000E+00  0.13300551384E+03  0.13300551384E+03  0.00000000000E+00 0. -1.
         21   -1    0    0  501  502 -0.00000000000E+00 -0.00000000000E+00 -0.35224164849E+03  0.35224164849E+03  0.00000000000E+00 0. -1.
      99926    2    1    2    0    0  0.00000000000E+00  0.35527136788E-14 -0.21923613465E+03  0.48524716233E+03  0.43289759276E+03 0.  0.
      99925    2    3    3    0    0  0.18145044928E+02 -0.22667369497E+02 -0.46013223802E+02  0.26961614129E+03  0.26406929883E+03 0.  0.
         25    1    4    4    0    0 -0.29110132862E+01  0.27111223833E+02 -0.86493801520E+01  0.12831918147E+03  0.12509000000E+03 0.  0.
         25    1    4    4    0    0  0.21056058215E+02 -0.49778593330E+02 -0.37363843650E+02  0.14129695982E+03  0.12509000000E+03 0.  0.
         25    1    3    3    0    0 -0.18145044928E+02  0.22667369497E+02 -0.17322291085E+03  0.21563102105E+03  0.12509000000E+03 0.  0.
<mgrwt>
<rscale>  2 0.43289759E+03</rscale>
<asrwt>0</asrwt>
<pdfrwt beam="1">  1       21 0.19559635E-01 0.43289759E+03</pdfrwt>
<pdfrwt beam="2">  1       21 0.51800241E-01 0.43289759E+03</pdfrwt>
<totfact> 0.79355561E+04</totfact>
</mgrwt>
</event>
<event>
 7    0  0.4766352E-002  0.4571534E+03  0.7546771E-02  0.1025610E+00
         21   -1    0    0  502  501  0.00000000000E+00  0.00000000000E+00  0.66688342383E+02  0.66688342383E+02  0.00000000000E+00 0.  1.
         21   -1    0    0  501  502 -0.00000000000E+00 -0.00000000000E+00 -0.78345498122E+03  0.78345498122E+03  0.00000000000E+00 0.  1.
      99926    2    1    2    0    0  0.00000000000E+00  0.00000000000E+00 -0.71676663884E+03  0.85014332360E+03  0.45715342733E+03 0.  0.
      99925    2    3    3    0    0 -0.69713009447E+02 -0.26450098808E+02 -0.28715823418E+03  0.39652409907E+03  0.26308173307E+03 0.  0.
         25    1    3    3    0    0  0.69713009447E+02  0.26450098808E+02 -0.42960840466E+03  0.45361922453E+03  0.12509000000E+03 0.  0.
         25    1    4    4    0    0 -0.25551977238E+02  0.23092447015E+00 -0.85436755832E+02  0.15362260320E+03  0.12509000000E+03 0.  0.
         25    1    4    4    0    0 -0.44161032209E+02 -0.26681023278E+02 -0.20172147835E+03  0.24290149587E+03  0.12509000000E+03 0.  0.
<mgrwt>
<rscale>  2 0.45715343E+03</rscale>
<asrwt>0</asrwt>
<pdfrwt beam="1">  1       21 0.98071093E-02 0.45715343E+03</pdfrwt>
<pdfrwt beam="2">  1       21 0.11521397E+00 0.45715343E+03</pdfrwt>
<totfact> 0.44673514E+04</totfact>
</mgrwt>
</event>
<event>
 7    0  0.4766352E-002  0.4142032E+03  0.7546771E-02  0.1038970E+00
         21   -1    0    0  502  501  0.00000000000E+00  0.00000000000E+00  0.48340600751E+03  0.48340600751E+03  0.00000000000E+00 0.  1.
         21   -1    0    0  501  502 -0.00000000000E+00 -0.00000000000E+00 -0.88726830709E+02  0.88726830709E+02  0.00000000000E+00 0.  1.
      99926    2    1    2    0    0  0.88817841970E-15  0.00000000000E+00  0.39467917680E+03  0.57213283822E+03  0.41420324959E+03 0.  0.
      99925    2    3    3    0    0  0.46238957983E+01  0.61216038350E+02  0.30033648337E+03  0.40385676842E+03  0.26292489877E+03 0.  0.
         25    1    4    4    0    0 -0.11393919224E+02  0.51420881064E+02  0.10705924546E+03  0.17286734378E+03  0.12509000000E+03 0.  0.
         25    1    3    3    0    0 -0.46238957983E+01 -0.61216038350E+02  0.94342693430E+02  0.16827606980E+03  0.12509000000E+03 0.  0.
         25    1    4    4    0    0  0.16017815022E+02  0.97951572855E+01  0.19327723790E+03  0.23098942464E+03  0.12509000000E+03 0.  0.
<mgrwt>
<rscale>  2 0.41420325E+03</rscale>
<asrwt>0</asrwt>
<pdfrwt beam="1">  1       21 0.71089117E-01 0.41420325E+03</pdfrwt>
<pdfrwt beam="2">  1       21 0.13048064E-01 0.41420325E+03</pdfrwt>
<totfact> 0.84583764E+04</totfact>
</mgrwt>
</event>
<event>
 7    0  0.4766352E-002  0.4106030E+03  0.7546771E-02  0.1040169E+00
         21   -1    0    0  502  501  0.00000000000E+00  0.00000000000E+00  0.11473066630E+03  0.11473066630E+03  0.00000000000E+00 0. -1.
         21   -1    0    0  501  502 -0.00000000000E+00 -0.00000000000E+00 -0.36737093642E+03  0.36737093642E+03  0.00000000000E+00 0. -1.
      99926    2    1    2    0    0  0.71054273576E-14  0.00000000000E+00 -0.25264027012E+03  0.48210160273E+03  0.41060303124E+03 0.  0.
      99925    2    3    3    0    0 -0.45724761079E+02  0.27163442877E+02 -0.20652801372E+03  0.33856605070E+03  0.26295350128E+03 0.  0.
         25    1    4    4    0    0  0.16663195674E+02  0.84740308647E+01 -0.11048059354E+03  0.16793731253E+03  0.12509000000E+03 0.  0.
         25    1    4    4    0    0 -0.62387956753E+02  0.18689412013E+02 -0.96047420175E+02  0.17062873818E+03  0.12509000000E+03 0.  0.
         25    1    3    3    0    0  0.45724761079E+02 -0.27163442877E+02 -0.46112256399E+02  0.14353555202E+03  0.12509000000E+03 0.  0.
<mgrwt>
<rscale>  2 0.41060303E+03</rscale>
<asrwt>0</asrwt>
<pdfrwt beam="1">  1       21 0.16872157E-01 0.41060303E+03</pdfrwt>
<pdfrwt beam="2">  1       21 0.54025138E-01 0.41060303E+03</pdfrwt>
<totfact> 0.96231279E+04</totfact>
</mgrwt>
</event>
<event>
 7    0  0.4766352E-002  0.4574934E+03  0.7546771E-02  0.1025511E+00
         21   -1    0    0  502  501  0.00000000000E+00  0.00000000000E+00  0.88621736250E+02  0.88621736250E+02  0.00000000000E+00 0.  1.
         21   -1    0    0  501  502 -0.00000000000E+00 -0.00000000000E+00 -0.59043143933E+03  0.59043143933E+03  0.00000000000E+00 0.  1.
      99926    2    1    2    0    0  0.00000000000E+00 -0.71054273576E-14 -0.50180970308E+03  0.67905317559E+03  0.45749342855E+03 0.  0.
      99925    2    3    3    0    0  0.95882780638E+02  0.43849933136E+02 -0.38539709869E+03  0.47826540997E+03  0.26285082164E+03 0.  0.
         25    1    4    4    0    0  0.51199353611E+02  0.56180718487E+01 -0.25282632480E+03  0.28674308214E+03  0.12509000000E+03 0.  0.
         25    1    4    4    0    0  0.44683427027E+02  0.38231861287E+02 -0.13257077389E+03  0.19152232783E+03  0.12509000000E+03 0.  0.
         25    1    3    3    0    0 -0.95882780638E+02 -0.43849933136E+02 -0.11641260439E+03  0.20078776561E+03  0.12509000000E+03 0.  0.
<mgrwt>
<rscale>  2 0.45749343E+03</rscale>
<asrwt>0</asrwt>
<pdfrwt beam="1">  1       21 0.13032608E-01 0.45749343E+03</pdfrwt>
<pdfrwt beam="2">  1       21 0.86828156E-01 0.45749343E+03</pdfrwt>
<totfact> 0.53006470E+04</totfact>
</mgrwt>
</event>
<event>
 7    0  0.4766352E-002  0.4442362E+03  0.7546771E-02  0.1029455E+00
         21   -1    0    0  502  501  0.00000000000E+00  0.00000000000E+00  0.11973002661E+03  0.11973002661E+03  0.00000000000E+00 0.  1.
         21   -1    0    0  501  502 -0.00000000000E+00 -0.00000000000E+00 -0.41206408932E+03  0.41206408932E+03  0.00000000000E+00 0.  1.
      99926    2    1    2    0    0 -0.22204460493E-14 -0.71054273576E-14 -0.29233406271E+03  0.53179411593E+03  0.44423617312E+03 0.  0.
      99925    2    3    3    0    0 -0.34097183290E+01 -0.61078621057E+02 -0.28462522647E+03  0.39233387648E+03  0.26300594473E+03 0.  0.
         25    1    4    4    0    0 -0.38158450598E+02 -0.17659880755E+02 -0.12153349407E+03  0.17940411651E+03  0.12509000000E+03 0.  0.
         25    1    3    3    0    0  0.34097183290E+01  0.61078621057E+02 -0.77088362393E+01  0.13946023944E+03  0.12509000000E+03 0.  0.
         25    1    4    4    0    0  0.34748732269E+02 -0.43418740303E+02 -0.16309173240E+03  0.21292975997E+03  0.12509000000E+03 0.  0.
<mgrwt>
<rscale>  2 0.44423617E+03</rscale>
<asrwt>0</asrwt>
<pdfrwt beam="1">  1       21 0.17607357E-01 0.44423617E+03</pdfrwt>
<pdfrwt beam="2">  1       21 0.60597660E-01 0.44423617E+03</pdfrwt>
<totfact> 0.68759590E+04</totfact>
</mgrwt>
</event>
<event>
 7    0  0.4766352E-002  0.4852154E+03  0.7546771E-02  0.1017712E+00
         21   -1    0    0  502  501  0.00000000000E+00  0.00000000000E+00  0.80800603956E+03  0.80800603956E+03  0.00000000000E+00 0.  1.
         21   -1    0    0  501  502 -0.00000000000E+00 -0.00000000000E+00 -0.72844131765E+02  0.72844131765E+02  0.00000000000E+00 0.  1.
      99926    2    1    2    0    0  0.14210854715E-13  0.00000000000E+00  0.73516190780E+03  0.88085017133E+03  0.48521540954E+03 0.  0.
      99925    2    3    3    0    0 -0.84100812506E+02 -0.23810587007E+02  0.25302445920E+03  0.37513887211E+03  0.26280773523E+03 0.  0.
         25    1    4    4    0    0 -0.37890197908E+02  0.15082949758E+02  0.82906896880E+02  0.15551277800E+03  0.12509000000E+03 0.  0.
         25    1    4    4    0    0 -0.46210614598E+02 -0.38893536765E+02  0.17011756232E+03  0.21962609411E+03  0.12509000000E+03 0.  0.
         25    1    3    3    0    0  0.84100812506E+02  0.23810587007E+02  0.48213744860E+03  0.50571129922E+03  0.12509000000E+03 0.  0.
<mgrwt>
<rscale>  2 0.48521541E+03</rscale>
<asrwt>0</asrwt>
<pdfrwt beam="1">  1       21 0.11882441E+00 0.48521541E+03</pdfrwt>
<pdfrwt beam="2">  1       21 0.10712373E-01 0.48521541E+03</pdfrwt>
<totfact> 0.35019469E+04</totfact>
</mgrwt>
</event>
<event>
 7    0  0.4766352E-002  0.4629427E+03  0.7546771E-02  0.1023931E+00
         21   -1    0    0  502  501  0.00000000000E+00  0.00000000000E+00  0.23129175783E+02  0.23129175783E+02  0.00000000000E+00 0. -1.
         21   -1    0    0  501  502 -0.00000000000E+00 -0.00000000000E+00 -0.23165109876E+04  0.23165109876E+04  0.00000000000E+00 0. -1.
      99926    2    1    2    0    0  0.00000000000E+00  0.00000000000E+00 -0.22933818118E+04  0.23396401634E+04  0.46294271713E+03 0.  0.
      99925    2    3    3    0    0  0.38862806564E+02  0.10730531534E+03 -0.12380377615E+04  0.12707981166E+04  0.26299354688E+03 0.  0.
         25    1    4    4    0    0  0.52424293539E+02  0.39986934131E+02 -0.70139578995E+03  0.71550738900E+03  0.12509000000E+03 0.  0.
         25    1    4    4    0    0 -0.13561486976E+02  0.67318381205E+02 -0.53664197157E+03  0.55529072757E+03  0.12509000000E+03 0.  0.
         25    1    3    3    0    0 -0.38862806564E+02 -0.10730531534E+03 -0.10553440503E+04  0.10688420468E+04  0.12509000000E+03 0.  0.
<mgrwt>
<rscale>  2 0.46294272E+03</rscale>
<asrwt>0</asrwt>
<pdfrwt beam="1">  1       21 0.34013493E-02 0.46294272E+03</pdfrwt>
<pdfrwt beam="2">  1       21 0.34066339E+00 0.46294272E+03</pdfrwt>
<totfact> 0.83854289E+03</totfact>
</mgrwt>
</event>
<event>
 7    0  0.4766352E-002  0.4512350E+03  0.7546771E-02  0.1027354E+00
         21   -1    0    0  502  501  0.00000000000E+00  0.00000000000E+00  0.21074393685E+03  0.21074393685E+03  0.00000000000E+00 0. -1.
         21   -1    0    0  501  502 -0.00000000000E+00 -0.00000000000E+00 -0.24154079580E+03  0.24154079580E+03  0.00000000000E+00 0. -1.
      99926    2    1    2    0    0 -0.14210854715E-13  0.00000000000E+00 -0.30796858945E+02  0.45228473265E+03  0.45123500847E+03 0.  0.
      99925    2    3    3    0    0 -0.10987860870E+03  0.92586361731E+01 -0.17564324944E+02  0.28500760017E+03  0.26222470450E+03 0.  0.
         25    1    4    4    0    0 -0.14671802281E+02  0.12875815867E+02 -0.17189360195E+02  0.12776552986E+03  0.12509000000E+03 0.  0.
         25    1    4    4    0    0 -0.95206806423E+02 -0.36171796940E+01 -0.37496474912E+00  0.15724207031E+03  0.12509000000E+03 0.  0.
         25    1    3    3    0    0  0.10987860870E+03 -0.92586361731E+01 -0.13232534001E+02  0.16727713248E+03  0.12509000000E+03 0.  0.
<mgrwt>
<rscale>  2 0.45123501E+03</rscale>
<asrwt>0</asrwt>
<pdfrwt beam="1">  1       21 0.30991756E-01 0.45123501E+03</pdfrwt>
<pdfrwt beam="2">  1       21 0.35520705E-01 0.45123501E+03</pdfrwt>
<totfact> 0.70849732E+04</totfact>
</mgrwt>
</event>
<event>
 7    0  0.4766352E-002  0.4601787E+03  0.7546771E-02  0.1024729E+00
         21   -1    0    0  502  501  0.00000000000E+00  0.00000000000E+00  0.19398816174E+03  0.19398816174E+03  0.00000000000E+00 0.  1.
         21   -1    0    0  501  502 -0.00000000000E+00 -0.00000000000E+00 -0.27290891042E+03  0.27290891042E+03  0.00000000000E+00 0.  1.
      99926    2    1    2    0    0  0.00000000000E+00  0.00000000000E+00 -0.78920748681E+02  0.46689707215E+03  0.46017865163E+03 0.  0.
      99925    2    3    3    0    0 -0.11157899324E+03  0.36980731428E+02 -0.39781029239E+02  0.29083778678E+03  0.26303353722E+03 0.  0.
         25    1    4    4    0    0 -0.60493425826E+02  0.73244742172E+01 -0.59074014970E+02  0.15116332173E+03  0.12509000000E+03 0.  0.
         25    1    3    3    0    0  0.11157899324E+03 -0.36980731428E+02 -0.39139719442E+02  0.17605928537E+03  0.12509000000E+03 0.  0.
         25    1    4    4    0    0 -0.51085567410E+02  0.29656257211E+02  0.19292985731E+02  0.13967446505E+03  0.12509000000E+03 0.  0.
<mgrwt>
<rscale>  2 0.46017865E+03</rscale>
<asrwt>0</asrwt>
<pdfrwt beam="1">  1       21 0.28527671E-01 0.46017865E+03</pdfrwt>
<pdfrwt beam="2">  1       21 0.40133663E-01 0.46017865E+03</pdfrwt>
<totfact> 0.64954092E+04</totfact>
</mgrwt>
</event>
<event>
 7    0  0.4766352E-002  0.4545115E+03  0.7546771E-02  0.1026385E+00
         21   -1    0    0  502  501  0.00000000000E+00  0.00000000000E+00  0.42740154658E+03  0.42740154658E+03  0.00000000000E+00 0.  1.
         21   -1    0    0  501  502 -0.00000000000E+00 -0.00000000000E+00 -0.12083527585E+03  0.12083527585E+03  0.00000000000E+00 0.  1.
      99926    2    1    2    0    0  0.00000000000E+00  0.00000000000E+00  0.30656627073E+03  0.54823682243E+03  0.45451153464E+03 0.  0.
      99925    2    3    3    0    0 -0.64500651107E+02 -0.53730576343E+02  0.28425248701E+03  0.39594525381E+03  0.26253734747E+03 0.  0.
         25    1    4    4    0    0 -0.29568273232E+02 -0.50253921568E+02  0.19262203697E+03  0.23696096016E+03  0.12509000000E+03 0.  0.
         25    1    4    4    0    0 -0.34932377875E+02 -0.34766547753E+01  0.91630450046E+02  0.15898429365E+03  0.12509000000E+03 0.  0.
         25    1    3    3    0    0  0.64500651107E+02  0.53730576343E+02  0.22313783712E+02  0.15229156861E+03  0.12509000000E+03 0.  0.
<mgrwt>
<rscale>  2 0.45451153E+03</rscale>
<asrwt>0</asrwt>
<pdfrwt beam="1">  1       21 0.62853168E-01 0.45451153E+03</pdfrwt>
<pdfrwt beam="2">  1       21 0.17769894E-01 0.45451153E+03</pdfrwt>
<totfact> 0.62223311E+04</totfact>
</mgrwt>
</event>
<event>
 7    0  0.4766352E-002  0.4514566E+03  0.7546771E-02  0.1027289E+00
         21   -1    0    0  502  501  0.00000000000E+00  0.00000000000E+00  0.62938069384E+02  0.62938069384E+02  0.00000000000E+00 0. -1.
         21   -1    0    0  501  502 -0.00000000000E+00 -0.00000000000E+00 -0.80957795100E+03  0.80957795100E+03  0.00000000000E+00 0. -1.
      99926    2    1    2    0    0  0.14210854715E-13 -0.35527136788E-14 -0.74663988162E+03  0.87251602038E+03  0.45145663469E+03 0.  0.
      99925    2    3    3    0    0 -0.10794717371E+03 -0.18586429333E+02 -0.45007288203E+03  0.53251963656E+03  0.26270423772E+03 0.  0.
         25    1    4    4    0    0 -0.68547510716E+02  0.16394614078E+02 -0.17993979648E+03  0.23020291713E+03  0.12509000000E+03 0.  0.
         25    1    3    3    0    0  0.10794717371E+03  0.18586429333E+02 -0.29656699959E+03  0.33999638382E+03  0.12509000000E+03 0.  0.
         25    1    4    4    0    0 -0.39399662996E+02 -0.34981043411E+02 -0.27013308555E+03  0.30231671943E+03  0.12509000000E+03 0.  0.
<mgrwt>
<rscale>  2 0.45145663E+03</rscale>
<asrwt>0</asrwt>
<pdfrwt beam="1">  1       21 0.92555985E-02 0.45145663E+03</pdfrwt>
<pdfrwt beam="2">  1       21 0.11905558E+00 0.45145663E+03</pdfrwt>
<totfact> 0.45698573E+04</totfact>
</mgrwt>
</event>
<event>
 7    0  0.4766352E-002  0.4503933E+03  0.7546771E-02  0.1027605E+00
         21   -1    0    0  502  501  0.00000000000E+00  0.00000000000E+00  0.27129620181E+03  0.27129620181E+03  0.00000000000E+00 0. -1.
         21   -1    0    0  501  502 -0.00000000000E+00 -0.00000000000E+00 -0.18693048579E+03  0.18693048579E+03  0.00000000000E+00 0. -1.
      99926    2    1    2    0    0  0.00000000000E+00  0.00000000000E+00  0.84365716026E+02  0.45822668760E+03  0.45039329834E+03 0.  0.
      99925    2    3    3    0    0  0.21612629973E+02  0.64966873799E+02  0.13946641245E+03  0.30534962813E+03  0.26286824596E+03 0.  0.
         25    1    4    4    0    0 -0.94990236963E+01  0.81519866989E+01  0.95193844109E+02  0.15768976630E+03  0.12509000000E+03 0.  0.
         25    1    4    4    0    0  0.31111653669E+02  0.56814887100E+02  0.44272568340E+02  0.14765986184E+03  0.12509000000E+03 0.  0.
         25    1    3    3    0    0 -0.21612629973E+02 -0.64966873799E+02 -0.55100696423E+02  0.15287705947E+03  0.12509000000E+03 0.  0.
<mgrwt>
<rscale>  2 0.45039330E+03</rscale>
<asrwt>0</asrwt>
<pdfrwt beam="1">  1       21 0.39896500E-01 0.45039330E+03</pdfrwt>
<pdfrwt beam="2">  1       21 0.27489777E-01 0.45039330E+03</pdfrwt>
<totfact> 0.70876076E+04</totfact>
</mgrwt>
</event>
<event>
 7    0  0.4766352E-002  0.4594780E+03  0.7546771E-02  0.1024933E+00
         21   -1    0    0  502  501  0.00000000000E+00  0.00000000000E+00  0.76683697147E+03  0.76683697147E+03  0.00000000000E+00 0.  1.
         21   -1    0    0  501  502 -0.00000000000E+00 -0.00000000000E+00 -0.68828187520E+02  0.68828187520E+02  0.00000000000E+00 0.  1.
      99926    2    1    2    0    0 -0.71054273576E-14 -0.14210854715E-13  0.69800878395E+03  0.83566515899E+03  0.45947795973E+03 0.  0.
      99925    2    3    3    0    0  0.59053191808E+02  0.10105672668E+03  0.45320005073E+03  0.53686996922E+03  0.26294359927E+03 0.  0.
         25    1    4    4    0    0  0.12750218274E+02  0.22088028597E+02  0.15515049856E+03  0.20092196091E+03  0.12509000000E+03 0.  0.
         25    1    4    4    0    0  0.46302973533E+02  0.78968698083E+02  0.29804955217E+03  0.33594800831E+03  0.12509000000E+03 0.  0.
         25    1    3    3    0    0 -0.59053191808E+02 -0.10105672668E+03  0.24480873322E+03  0.29879518977E+03  0.12509000000E+03 0.  0.
<mgrwt>
<rscale>  2 0.45947796E+03</rscale>
<asrwt>0</asrwt>
<pdfrwt beam="1">  1       21 0.11277014E+00 0.45947796E+03</pdfrwt>
<pdfrwt beam="2">  1       21 0.10121793E-01 0.45947796E+03</pdfrwt>
<totfact> 0.44503338E+04</totfact>
</mgrwt>
</event>
<event>
 7    0  0.4766352E-002  0.4562343E+03  0.7546771E-02  0.1025879E+00
         21   -1    0    0  502  501  0.00000000000E+00  0.00000000000E+00  0.10553335656E+04  0.10553335656E+04  0.00000000000E+00 0. -1.
         21   -1    0    0  501  502 -0.00000000000E+00 -0.00000000000E+00 -0.49308988005E+02  0.49308988005E+02  0.00000000000E+00 0. -1.
      99926    2    1    2    0    0 -0.44408920985E-15  0.14210854715E-13  0.10060245776E+04  0.11046425536E+04  0.45623428247E+03 0.  0.
      99925    2    3    3    0    0 -0.14935509167E+01  0.10793752652E+03  0.72375383817E+03  0.77756913866E+03  0.26294753622E+03 0.  0.
         25    1    4    4    0    0  0.98627885174E+01  0.20960299593E+02  0.26313383347E+03  0.29227304216E+03  0.12509000000E+03 0.  0.
         25    1    3    3    0    0  0.14935509167E+01 -0.10793752652E+03  0.28227073938E+03  0.32707341490E+03  0.12509000000E+03 0.  0.
         25    1    4    4    0    0 -0.11356339434E+02  0.86977226922E+02  0.46062000470E+03  0.48529609650E+03  0.12509000000E+03 0.  0.
<mgrwt>
<rscale>  2 0.45623428E+03</rscale>
<asrwt>0</asrwt>
<pdfrwt beam="1">  1       21 0.15519610E+00 0.45623428E+03</pdfrwt>
<pdfrwt beam="2">  1       21 0.72513224E-02 0.45623428E+03</pdfrwt>
<totfact> 0.34995156E+04</totfact>
</mgrwt>
</event>
<event>
 7    0  0.4766352E-002  0.4488762E+03  0.7546771E-02  0.1028058E+00
         21   -1    0    0  502  501  0.00000000000E+00  0.00000000000E+00  0.41460956253E+02  0.41460956253E+02  0.00000000000E+00 0. -1.
         21   -1    0    0  501  502 -0.00000000000E+00 -0.00000000000E+00 -0.12149370297E+04  0.12149370297E+04  0.00000000000E+00 0. -1.
      99926    2    1    2    0    0 -0.14210854715E-13 -0.71054273576E-14 -0.11734760735E+04  0.12563979860E+04  0.44887615682E+03 0.  0.
      99925    2    3    3    0    0 -0.99314897198E+02 -0.40391903407E+02 -0.73140446027E+03  0.78462497492E+03  0.26303785297E+03 0.  0.
         25    1    4    4    0    0 -0.82208239579E+01 -0.29675705146E+02 -0.32098710017E+03  0.34587346819E+03  0.12509000000E+03 0.  0.
         25    1    3    3    0    0  0.99314897198E+02  0.40391903407E+02 -0.44207161320E+03  0.47177301106E+03  0.12509000000E+03 0.  0.
         25    1    4    4    0    0 -0.91094073240E+02 -0.10716198261E+02 -0.41041736011E+03  0.43875150673E+03  0.12509000000E+03 0.  0.
<mgrwt>
<rscale>  2 0.44887616E+03</rscale>
<asrwt>0</asrwt>
<pdfrwt beam="1">  1       21 0.60971997E-02 0.44887616E+03</pdfrwt>
<pdfrwt beam="2">  1       21 0.17866720E+00 0.44887616E+03</pdfrwt>
<totfact> 0.31901292E+04</totfact>
</mgrwt>
</event>
<event>
 7    0  0.4766352E-002  0.4536885E+03  0.7546771E-02  0.1026628E+00
         21   -1    0    0  502  501  0.00000000000E+00  0.00000000000E+00  0.40355911575E+02  0.40355911575E+02  0.00000000000E+00 0.  1.
         21   -1    0    0  501  502 -0.00000000000E+00 -0.00000000000E+00 -0.12751119117E+04  0.12751119117E+04  0.00000000000E+00 0.  1.
      99926    2    1    2    0    0  0.00000000000E+00  0.00000000000E+00 -0.12347560001E+04  0.13154678233E+04  0.45368845503E+03 0.  0.
      99925    2    3    3    0    0  0.64807051151E+02 -0.55763163551E+02 -0.98744401904E+03  0.10254329833E+04  0.26297837991E+03 0.  0.
         25    1    4    4    0    0 -0.86153073606E+01 -0.23967726839E+02 -0.42977200072E+03  0.44833040958E+03  0.12509000000E+03 0.  0.
         25    1    4    4    0    0  0.73422358512E+02 -0.31795436712E+02 -0.55767201831E+03  0.57710257376E+03  0.12509000000E+03 0.  0.
         25    1    3    3    0    0 -0.64807051151E+02  0.55763163551E+02 -0.24731198109E+03  0.29003483994E+03  0.12509000000E+03 0.  0.
<mgrwt>
<rscale>  2 0.45368846E+03</rscale>
<asrwt>0</asrwt>
<pdfrwt beam="1">  1       21 0.59346945E-02 0.45368846E+03</pdfrwt>
<pdfrwt beam="2">  1       21 0.18751641E+00 0.45368846E+03</pdfrwt>
<totfact> 0.28963041E+04</totfact>
</mgrwt>
</event>
<event>
 7    0  0.4766352E-002  0.4523295E+03  0.7546771E-02  0.1027030E+00
         21   -1    0    0  502  501  0.00000000000E+00  0.00000000000E+00  0.13445005949E+04  0.13445005949E+04  0.00000000000E+00 0. -1.
         21   -1    0    0  501  502 -0.00000000000E+00 -0.00000000000E+00 -0.38044230131E+02  0.38044230131E+02  0.00000000000E+00 0. -1.
      99926    2    1    2    0    0  0.35527136788E-14  0.00000000000E+00  0.13064563648E+04  0.13825448250E+04  0.45232948188E+03 0.  0.
      99925    2    3    3    0    0  0.18662934968E+02 -0.99354592126E+02  0.68645297298E+03  0.74202054442E+03  0.26297749735E+03 0.  0.
         25    1    3    3    0    0 -0.18662934968E+02  0.99354592126E+02  0.62000339179E+03  0.64052428061E+03  0.12509000000E+03 0.  0.
         25    1    4    4    0    0  0.13497332728E+02 -0.10028770861E+02  0.26900702074E+03  0.29714481242E+03  0.12509000000E+03 0.  0.
         25    1    4    4    0    0  0.51656022393E+01 -0.89325821265E+02  0.41744595224E+03  0.44487573201E+03  0.12509000000E+03 0.  0.
<mgrwt>
<rscale>  2 0.45232948E+03</rscale>
<asrwt>0</asrwt>
<pdfrwt beam="1">  1       21 0.19772064E+00 0.45232948E+03</pdfrwt>
<pdfrwt beam="2">  1       21 0.55947406E-02 0.45232948E+03</pdfrwt>
<totfact> 0.27364450E+04</totfact>
</mgrwt>
</event>
<event>
 7    0  0.4766352E-002  0.4523536E+03  0.7546771E-02  0.1027022E+00
         21   -1    0    0  502  501  0.00000000000E+00  0.00000000000E+00  0.11445720210E+03  0.11445720210E+03  0.00000000000E+00 0.  1.
         21   -1    0    0  501  502 -0.00000000000E+00 -0.00000000000E+00 -0.44694390623E+03  0.44694390623E+03  0.00000000000E+00 0.  1.
      99926    2    1    2    0    0 -0.71054273576E-14  0.00000000000E+00 -0.33248670413E+03  0.56140110833E+03  0.45235361833E+03 0.  0.
      99925    2    3    3    0    0  0.40037068216E+02 -0.63767211122E+02 -0.30873800656E+03  0.41347973469E+03  0.26453187002E+03 0.  0.
         25    1    4    4    0    0  0.38575088763E+02 -0.58414351349E+02 -0.20882415629E+03  0.25328898568E+03  0.12509000000E+03 0.  0.
         25    1    3    3    0    0 -0.40037068216E+02  0.63767211122E+02 -0.23748697570E+02  0.14792137365E+03  0.12509000000E+03 0.  0.
         25    1    4    4    0    0  0.14619794533E+01 -0.53528597725E+01 -0.99913850275E+02  0.16019074901E+03  0.12509000000E+03 0.  0.
<mgrwt>
<rscale>  2 0.45235362E+03</rscale>
<asrwt>0</asrwt>
<pdfrwt beam="1">  1       21 0.16831942E-01 0.45235362E+03</pdfrwt>
<pdfrwt beam="2">  1       21 0.65727044E-01 0.45235362E+03</pdfrwt>
<totfact> 0.62415586E+04</totfact>
</mgrwt>
</event>
<event>
 7    0  0.4766352E-002  0.4532418E+03  0.7546771E-02  0.1026760E+00
         21   -1    0    0  502  501  0.00000000000E+00  0.00000000000E+00  0.12349278505E+04  0.12349278505E+04  0.00000000000E+00 0.  1.
         21   -1    0    0  501  502 -0.00000000000E+00 -0.00000000000E+00 -0.41587068573E+02  0.41587068573E+02  0.00000000000E+00 0.  1.
      99926    2    1    2    0    0  0.00000000000E+00  0.00000000000E+00  0.11933407820E+04  0.12765149191E+04  0.45324178626E+03 0.  0.
      99925    2    3    3    0    0 -0.77290809443E+02 -0.63455020301E+02  0.61204708500E+03  0.67356361174E+03  0.26284196009E+03 0.  0.
         25    1    3    3    0    0  0.77290809443E+02  0.63455020301E+02  0.58129369696E+03  0.60295130736E+03  0.12509000000E+03 0.  0.
         25    1    4    4    0    0 -0.37419061656E+01 -0.43047530959E+02  0.33402362139E+03  0.35928593005E+03  0.12509000000E+03 0.  0.
         25    1    4    4    0    0 -0.73548903277E+02 -0.20407489343E+02  0.27802346361E+03  0.31427768170E+03  0.12509000000E+03 0.  0.
<mgrwt>
<rscale>  2 0.45324179E+03</rscale>
<asrwt>0</asrwt>
<pdfrwt beam="1">  1       21 0.18160701E+00 0.45324179E+03</pdfrwt>
<pdfrwt beam="2">  1       21 0.61157462E-02 0.45324179E+03</pdfrwt>
<totfact> 0.30215770E+04</totfact>
</mgrwt>
</event>
<event>
 7    0  0.4766352E-002  0.4684051E+03  0.7546771E-02  0.1022371E+00
         21   -1    0    0  502  501  0.00000000000E+00  0.00000000000E+00  0.60832450377E+03  0.60832450377E+03  0.00000000000E+00 0.  1.
         21   -1    0    0  501  502 -0.00000000000E+00 -0.00000000000E+00 -0.90167056648E+02  0.90167056648E+02  0.00000000000E+00 0.  1.
      99926    2    1    2    0    0  0.66613381478E-15  0.14210854715E-13  0.51815744712E+03  0.69849156041E+03  0.46840508106E+03 0.  0.
      99925    2    3    3    0    0  0.11703623604E+01  0.12512751326E+03  0.31204757263E+03  0.42685383699E+03  0.26300617151E+03 0.  0.
         25    1    3    3    0    0 -0.11703623604E+01 -0.12512751326E+03  0.20610987449E+03  0.27163772342E+03  0.12509000000E+03 0.  0.
         25    1    4    4    0    0 -0.89577481674E+01  0.10604035530E+03  0.18100945646E+03  0.24441098509E+03  0.12509000000E+03 0.  0.
         25    1    4    4    0    0  0.10128110528E+02  0.19087157959E+02  0.13103811616E+03  0.18244285190E+03  0.12509000000E+03 0.  0.
<mgrwt>
<rscale>  2 0.46840508E+03</rscale>
<asrwt>0</asrwt>
<pdfrwt beam="1">  1       21 0.89459483E-01 0.46840508E+03</pdfrwt>
<pdfrwt beam="2">  1       21 0.13259862E-01 0.46840508E+03</pdfrwt>
<totfact> 0.47743059E+04</totfact>
</mgrwt>
</event>
<event>
 7    0  0.4766352E-002  0.4498570E+03  0.7546771E-02  0.1027765E+00
         21   -1    0    0  502  501  0.00000000000E+00  0.00000000000E+00  0.52311209320E+03  0.52311209320E+03  0.00000000000E+00 0. -1.
         21   -1    0    0  501  502 -0.00000000000E+00 -0.00000000000E+00 -0.96715080017E+02  0.96715080017E+02  0.00000000000E+00 0. -1.
      99926    2    1    2    0    0 -0.71054273576E-14  0.00000000000E+00  0.42639701319E+03  0.61982717322E+03  0.44985699040E+03 0.  0.
      99925    2    3    3    0    0  0.44302259891E+02 -0.93106283815E+02  0.31429831575E+03  0.42273557933E+03  0.26323082727E+03 0.  0.
         25    1    4    4    0    0  0.22984836231E+02 -0.70748198500E+02  0.21696380485E+03  0.26125545162E+03  0.12509000000E+03 0.  0.
         25    1    4    4    0    0  0.21317423659E+02 -0.22358085315E+02  0.97334510902E+02  0.16148012770E+03  0.12509000000E+03 0.  0.
         25    1    3    3    0    0 -0.44302259891E+02  0.93106283815E+02  0.11209869743E+03  0.19709159389E+03  0.12509000000E+03 0.  0.
<mgrwt>
<rscale>  2 0.44985699E+03</rscale>
<asrwt>0</asrwt>
<pdfrwt beam="1">  1       21 0.76928248E-01 0.44985699E+03</pdfrwt>
<pdfrwt beam="2">  1       21 0.14222806E-01 0.44985699E+03</pdfrwt>
<totfact> 0.59868677E+04</totfact>
</mgrwt>
</event>
<event>
 7    0  0.4766352E-002  0.4501474E+03  0.7546771E-02  0.1027678E+00
         21   -1    0    0  502  501  0.00000000000E+00  0.00000000000E+00  0.48827405867E+03  0.48827405867E+03  0.00000000000E+00 0.  1.
         21   -1    0    0  501  502 -0.00000000000E+00 -0.00000000000E+00 -0.10374947523E+03  0.10374947523E+03  0.00000000000E+00 0.  1.
      99926    2    1    2    0    0 -0.71054273576E-14  0.71054273576E-14  0.38452458344E+03  0.59202353390E+03  0.45014743076E+03 0.  0.
      99925    2    3    3    0    0 -0.48335034561E+02  0.56512973965E+02  0.34711669299E+03  0.44176758507E+03  0.26294221584E+03 0.  0.
         25    1    3    3    0    0  0.48335034561E+02 -0.56512973965E+02  0.37407890451E+02  0.15025594884E+03  0.12509000000E+03 0.  0.
         25    1    4    4    0    0 -0.27227243715E+02  0.13366569389E+02  0.23109455641E+03  0.26452257008E+03  0.12509000000E+03 0.  0.
         25    1    4    4    0    0 -0.21107790846E+02  0.43146404576E+02  0.11602213658E+03  0.17724501499E+03  0.12509000000E+03 0.  0.
<mgrwt>
<rscale>  2 0.45014743E+03</rscale>
<asrwt>0</asrwt>
<pdfrwt beam="1">  1       21 0.71805008E-01 0.45014743E+03</pdfrwt>
<pdfrwt beam="2">  1       21 0.15257276E-01 0.45014743E+03</pdfrwt>
<totfact> 0.61496587E+04</totfact>
</mgrwt>
</event>
<event>
 7    0  0.4766352E-002  0.4561442E+03  0.7546771E-02  0.1025905E+00
         21   -1    0    0  502  501  0.00000000000E+00  0.00000000000E+00  0.33362143795E+02  0.33362143795E+02  0.00000000000E+00 0. -1.
         21   -1    0    0  501  502 -0.00000000000E+00 -0.00000000000E+00 -0.15591587014E+04  0.15591587014E+04  0.00000000000E+00 0. -1.
      99926    2    1    2    0    0  0.00000000000E+00  0.00000000000E+00 -0.15257965576E+04  0.15925208452E+04  0.45614417368E+03 0.  0.
      99925    2    3    3    0    0 -0.10684274911E+02 -0.89248847829E+02 -0.71309172932E+03  0.76534725000E+03  0.26301537615E+03 0.  0.
         25    1    4    4    0    0  0.16806491051E+02 -0.16206453894E+02 -0.27266045274E+03  0.30089256866E+03  0.12509000000E+03 0.  0.
         25    1    4    4    0    0 -0.27490765962E+02 -0.73042393936E+02 -0.44043127659E+03  0.46445468134E+03  0.12509000000E+03 0.  0.
         25    1    3    3    0    0  0.10684274911E+02  0.89248847829E+02 -0.81270482826E+03  0.82717359517E+03  0.12509000000E+03 0.  0.
<mgrwt>
<rscale>  2 0.45614417E+03</rscale>
<asrwt>0</asrwt>
<pdfrwt beam="1">  1       21 0.49061981E-02 0.45614417E+03</pdfrwt>
<pdfrwt beam="2">  1       21 0.22928802E+00 0.45614417E+03</pdfrwt>
<totfact> 0.21408479E+04</totfact>
</mgrwt>
</event>
<event>
 7    0  0.4766352E-002  0.4578430E+03  0.7546771E-02  0.1025409E+00
         21   -1    0    0  502  501  0.00000000000E+00  0.00000000000E+00  0.10966533363E+03  0.10966533363E+03  0.00000000000E+00 0. -1.
         21   -1    0    0  501  502 -0.00000000000E+00 -0.00000000000E+00 -0.47786335429E+03  0.47786335429E+03  0.00000000000E+00 0. -1.
      99926    2    1    2    0    0  0.00000000000E+00  0.00000000000E+00 -0.36819802065E+03  0.58752868792E+03  0.45784296076E+03 0.  0.
      99925    2    3    3    0    0 -0.70503841671E+02  0.60608333617E+02 -0.31966939341E+03  0.42429052585E+03  0.26303947888E+03 0.  0.
         25    1    4    4    0    0 -0.65934910654E+02  0.36097663598E+02 -0.21198142008E+03  0.25735983432E+03  0.12509000000E+03 0.  0.
         25    1    4    4    0    0 -0.45689310170E+01  0.24510670019E+02 -0.10768797333E+03  0.16693069153E+03  0.12509000000E+03 0.  0.
         25    1    3    3    0    0  0.70503841671E+02 -0.60608333617E+02 -0.48528627242E+02  0.16323816207E+03  0.12509000000E+03 0.  0.
<mgrwt>
<rscale>  2 0.45784296E+03</rscale>
<asrwt>0</asrwt>
<pdfrwt beam="1">  1       21 0.16127255E-01 0.45784296E+03</pdfrwt>
<pdfrwt beam="2">  1       21 0.70274023E-01 0.45784296E+03</pdfrwt>
<totfact> 0.58135128E+04</totfact>
</mgrwt>
</event>
<event>
 7    0  0.4766352E-002  0.4548314E+03  0.7546771E-02  0.1026291E+00
         21   -1    0    0  502  501  0.00000000000E+00  0.00000000000E+00  0.91777501477E+02  0.91777501477E+02  0.00000000000E+00 0.  1.
         21   -1    0    0  501  502 -0.00000000000E+00 -0.00000000000E+00 -0.56351403793E+03  0.56351403793E+03  0.00000000000E+00 0.  1.
      99926    2    1    2    0    0  0.00000000000E+00  0.00000000000E+00 -0.47173653646E+03  0.65529153941E+03  0.45483144328E+03 0.  0.
      99925    2    3    3    0    0 -0.89055836865E+02  0.69254979061E+02 -0.30605962976E+03  0.41902148266E+03  0.26301960337E+03 0.  0.
         25    1    3    3    0    0  0.89055836865E+02 -0.69254979061E+02 -0.16567690669E+03  0.23627005675E+03  0.12509000000E+03 0.  0.
         25    1    4    4    0    0 -0.59662693443E+02  0.29181338478E+02 -0.21144128699E+03  0.25449187305E+03  0.12509000000E+03 0.  0.
         25    1    4    4    0    0 -0.29393143422E+02  0.40073640584E+02 -0.94618342775E+02  0.16452960961E+03  0.12509000000E+03 0.  0.
<mgrwt>
<rscale>  2 0.45483144E+03</rscale>
<asrwt>0</asrwt>
<pdfrwt beam="1">  1       21 0.13496691E-01 0.45483144E+03</pdfrwt>
<pdfrwt beam="2">  1       21 0.82869715E-01 0.45483144E+03</pdfrwt>
<totfact> 0.55471386E+04</totfact>
</mgrwt>
</event>
<event>
 7    0  0.4766352E-002  0.4539116E+03  0.7546771E-02  0.1026562E+00
         21   -1    0    0  502  501  0.00000000000E+00  0.00000000000E+00  0.12069819249E+03  0.12069819249E+03  0.00000000000E+00 0.  1.
         21   -1    0    0  501  502 -0.00000000000E+00 -0.00000000000E+00 -0.42675805792E+03  0.42675805792E+03  0.00000000000E+00 0.  1.
      99926    2    1    2    0    0  0.00000000000E+00  0.00000000000E+00 -0.30605986543E+03  0.54745625041E+03  0.45391156064E+03 0.  0.
      99925    2    3    3    0    0  0.82557785941E+02 -0.55027168303E+02 -0.25596946170E+03  0.38012324734E+03  0.26292497137E+03 0.  0.
         25    1    3    3    0    0 -0.82557785941E+02  0.55027168303E+02 -0.50090403728E+02  0.16733300307E+03  0.12509000000E+03 0.  0.
         25    1    4    4    0    0  0.27918443359E+02  0.31425403908E+01 -0.15249029016E+03  0.19922377301E+03  0.12509000000E+03 0.  0.
         25    1    4    4    0    0  0.54639342582E+02 -0.58169708694E+02 -0.10347917154E+03  0.18089947432E+03  0.12509000000E+03 0.  0.
<mgrwt>
<rscale>  2 0.45391156E+03</rscale>
<asrwt>0</asrwt>
<pdfrwt beam="1">  1       21 0.17749734E-01 0.45391156E+03</pdfrwt>
<pdfrwt beam="2">  1       21 0.62758538E-01 0.45391156E+03</pdfrwt>
<totfact> 0.62572061E+04</totfact>
</mgrwt>
</event>
<event>
 7    0  0.4766352E-002  0.4413821E+03  0.7546771E-02  0.1030324E+00
         21   -1    0    0  502  501  0.00000000000E+00  0.00000000000E+00  0.67145442878E+02  0.67145442878E+02  0.00000000000E+00 0.  1.
         21   -1    0    0  501  502 -0.00000000000E+00 -0.00000000000E+00 -0.72535866448E+03  0.72535866448E+03  0.00000000000E+00 0.  1.
      99926    2    1    2    0    0  0.00000000000E+00  0.00000000000E+00 -0.65821322160E+03  0.79250410736E+03  0.44138205116E+03 0.  0.
      99925    2    3    3    0    0  0.20585051139E+02  0.86962808524E+02 -0.33989336723E+03  0.43900543383E+03  0.26308172770E+03 0.  0.
         25    1    3    3    0    0 -0.20585051139E+02 -0.86962808524E+02 -0.31831985437E+03  0.35349867353E+03  0.12509000000E+03 0.  0.
         25    1    4    4    0    0  0.45898155964E+02  0.25729615520E+02 -0.18060762273E+03  0.22590988320E+03  0.12509000000E+03 0.  0.
         25    1    4    4    0    0 -0.25313104825E+02  0.61233193004E+02 -0.15928574449E+03  0.21309555063E+03  0.12509000000E+03 0.  0.
<mgrwt>
<rscale>  2 0.44138205E+03</rscale>
<asrwt>0</asrwt>
<pdfrwt beam="1">  1       21 0.98743295E-02 0.44138205E+03</pdfrwt>
<pdfrwt beam="2">  1       21 0.10667040E+00 0.44138205E+03</pdfrwt>
<totfact> 0.53636489E+04</totfact>
</mgrwt>
</event>
<event>
 7    0  0.4766352E-002  0.4558968E+03  0.7546771E-02  0.1025978E+00
         21   -1    0    0  502  501  0.00000000000E+00  0.00000000000E+00  0.18995953601E+03  0.18995953601E+03  0.00000000000E+00 0.  1.
         21   -1    0    0  501  502 -0.00000000000E+00 -0.00000000000E+00 -0.27353446835E+03  0.27353446835E+03  0.00000000000E+00 0.  1.
      99926    2    1    2    0    0  0.00000000000E+00  0.00000000000E+00 -0.83574932343E+02  0.46349400436E+03  0.45589683346E+03 0.  0.
      99925    2    3    3    0    0  0.43323597065E+02  0.74449552273E+02  0.23362856129E+02  0.27774452630E+03  0.26301431320E+03 0.  0.
         25    1    3    3    0    0 -0.43323597065E+02 -0.74449552273E+02 -0.10693778847E+03  0.18574947806E+03  0.12509000000E+03 0.  0.
         25    1    4    4    0    0 -0.81656021658E+01  0.17790164780E+02  0.32768540868E+02  0.13078399135E+03  0.12509000000E+03 0.  0.
         25    1    4    4    0    0  0.51489199231E+02  0.56659387493E+02 -0.94056847392E+01  0.14696053495E+03  0.12509000000E+03 0.  0.
<mgrwt>
<rscale>  2 0.45589683E+03</rscale>
<asrwt>0</asrwt>
<pdfrwt beam="1">  1       21 0.27935226E-01 0.45589683E+03</pdfrwt>
<pdfrwt beam="2">  1       21 0.40225657E-01 0.45589683E+03</pdfrwt>
<totfact> 0.67439999E+04</totfact>
</mgrwt>
</event>
<event>
 7    0  0.4766352E-002  0.4647790E+03  0.7546771E-02  0.1023404E+00
         21   -1    0    0  502  501  0.00000000000E+00  0.00000000000E+00  0.22013295571E+03  0.22013295571E+03  0.00000000000E+00 0. -1.
         21   -1    0    0  501  502 -0.00000000000E+00 -0.00000000000E+00 -0.24532851005E+03  0.24532851005E+03  0.00000000000E+00 0. -1.
      99926    2    1    2    0    0  0.00000000000E+00  0.00000000000E+00 -0.25195554343E+02  0.46546146577E+03  0.46477904444E+03 0.  0.
      99925    2    3    3    0    0 -0.83751815064E+02  0.40019560833E+02  0.63746447070E+02  0.28609000903E+03  0.26299800755E+03 0.  0.
         25    1    3    3    0    0  0.83751815064E+02 -0.40019560833E+02 -0.88942001413E+02  0.17937145673E+03  0.12509000000E+03 0.  0.
         25    1    4    4    0    0 -0.35846316226E+02  0.15245297684E+02  0.72227383707E+02  0.14960508195E+03  0.12509000000E+03 0.  0.
         25    1    4    4    0    0 -0.47905498838E+02  0.24774263149E+02 -0.84809366372E+01  0.13648492708E+03  0.12509000000E+03 0.  0.
<mgrwt>
<rscale>  2 0.46477904E+03</rscale>
<asrwt>0</asrwt>
<pdfrwt beam="1">  1       21 0.32372493E-01 0.46477904E+03</pdfrwt>
<pdfrwt beam="2">  1       21 0.36077722E-01 0.46477904E+03</pdfrwt>
<totfact> 0.62745582E+04</totfact>
</mgrwt>
</event>
<event>
 7    0  0.4766352E-002  0.4606284E+03  0.7546771E-02  0.1024599E+00
         21   -1    0    0  502  501  0.00000000000E+00  0.00000000000E+00  0.10558989421E+03  0.10558989421E+03  0.00000000000E+00 0.  1.
         21   -1    0    0  501  502 -0.00000000000E+00 -0.00000000000E+00 -0.50236454813E+03  0.50236454813E+03  0.00000000000E+00 0.  1.
      99926    2    1    2    0    0  0.00000000000E+00  0.00000000000E+00 -0.39677465392E+03  0.60795444234E+03  0.46062835125E+03 0.  0.
      99925    2    3    3    0    0  0.32378794827E+02  0.44823376438E+02 -0.10984747821E+03  0.29009876174E+03  0.26274189172E+03 0.  0.
         25    1    4    4    0    0  0.49158525535E+02  0.32722810828E+02 -0.80174250950E+02  0.15988358764E+03  0.12509000000E+03 0.  0.
         25    1    4    4    0    0 -0.16779730707E+02  0.12100565610E+02 -0.29673227258E+02  0.13021517410E+03  0.12509000000E+03 0.  0.
         25    1    3    3    0    0 -0.32378794827E+02 -0.44823376438E+02 -0.28692717571E+03  0.31785568060E+03  0.12509000000E+03 0.  0.
<mgrwt>
<rscale>  2 0.46062835E+03</rscale>
<asrwt>0</asrwt>
<pdfrwt beam="1">  1       21 0.15527926E-01 0.46062835E+03</pdfrwt>
<pdfrwt beam="2">  1       21 0.73877140E-01 0.46062835E+03</pdfrwt>
<totfact> 0.55674311E+04</totfact>
</mgrwt>
</event>
<event>
 7    0  0.4766352E-002  0.4364696E+03  0.7546771E-02  0.1031836E+00
         21   -1    0    0  502  501  0.00000000000E+00  0.00000000000E+00  0.30104623948E+03  0.30104623948E+03  0.00000000000E+00 0.  1.
         21   -1    0    0  501  502 -0.00000000000E+00 -0.00000000000E+00 -0.15820303254E+03  0.15820303254E+03  0.00000000000E+00 0.  1.
      99926    2    1    2    0    0 -0.35527136788E-14 -0.71054273576E-14  0.14284320694E+03  0.45924927202E+03  0.43646960041E+03 0.  0.
      99925    2    3    3    0    0 -0.31605207677E+02 -0.47557378588E+02  0.11645775639E+02  0.26919436551E+03  0.26281055710E+03 0.  0.
         25    1    3    3    0    0  0.31605207677E+02  0.47557378588E+02  0.13119743130E+03  0.19005490651E+03  0.12509000000E+03 0.  0.
         25    1    4    4    0    0 -0.41494455461E+02 -0.20940782734E+01 -0.16373856050E+02  0.13282238614E+03  0.12509000000E+03 0.  0.
         25    1    4    4    0    0  0.98892477843E+01 -0.45463300314E+02  0.28019631688E+02  0.13637197937E+03  0.12509000000E+03 0.  0.
<mgrwt>
<rscale>  2 0.43646960E+03</rscale>
<asrwt>0</asrwt>
<pdfrwt beam="1">  1       21 0.44271506E-01 0.43646960E+03</pdfrwt>
<pdfrwt beam="2">  1       21 0.23265152E-01 0.43646960E+03</pdfrwt>
<totfact> 0.79273099E+04</totfact>
</mgrwt>
</event>
<event>
 7    0  0.4766352E-002  0.4560918E+03  0.7546771E-02  0.1025921E+00
         21   -1    0    0  502  501  0.00000000000E+00  0.00000000000E+00  0.22199701121E+02  0.22199701121E+02  0.00000000000E+00 0.  1.
         21   -1    0    0  501  502 -0.00000000000E+00 -0.00000000000E+00 -0.23425964955E+04  0.23425964955E+04  0.00000000000E+00 0.  1.
      99926    2    1    2    0    0  0.00000000000E+00  0.00000000000E+00 -0.23203967944E+04  0.23647961966E+04  0.45609184183E+03 0.  0.
      99925    2    3    3    0    0  0.11135563365E+03  0.25435366100E+02 -0.14656662616E+04  0.14934416036E+04  0.26295094221E+03 0.  0.
         25    1    4    4    0    0  0.52054164528E+02  0.30821335917E+02 -0.54620914618E+03  0.56360582881E+03  0.12509000000E+03 0.  0.
         25    1    4    4    0    0  0.59301469126E+02 -0.53859698171E+01 -0.91945711543E+03  0.92983577481E+03  0.12509000000E+03 0.  0.
         25    1    3    3    0    0 -0.11135563365E+03 -0.25435366100E+02 -0.85473053278E+03  0.87135459301E+03  0.12509000000E+03 0.  0.
<mgrwt>
<rscale>  2 0.45609184E+03</rscale>
<asrwt>0</asrwt>
<pdfrwt beam="1">  1       21 0.32646640E-02 0.45609184E+03</pdfrwt>
<pdfrwt beam="2">  1       21 0.34449926E+00 0.45609184E+03</pdfrwt>
<totfact> 0.85432355E+03</totfact>
</mgrwt>
</event>
<event>
 7    0  0.4766352E-002  0.4757692E+03  0.7546771E-02  0.1020304E+00
         21   -1    0    0  502  501  0.00000000000E+00  0.00000000000E+00  0.94443609698E+03  0.94443609698E+03  0.00000000000E+00 0. -1.
         21   -1    0    0  501  502 -0.00000000000E+00 -0.00000000000E+00 -0.59918369760E+02  0.59918369760E+02  0.00000000000E+00 0. -1.
      99926    2    1    2    0    0  0.00000000000E+00  0.00000000000E+00  0.88451772722E+03  0.10043544667E+04  0.47576915105E+03 0.  0.
      99925    2    3    3    0    0 -0.11384077158E+03 -0.47640315919E+02  0.45040513433E+03  0.53602704668E+03  0.26311763295E+03 0.  0.
         25    1    3    3    0    0  0.11384077158E+03  0.47640315919E+02  0.43411259289E+03  0.46832742006E+03  0.12509000000E+03 0.  0.
         25    1    4    4    0    0 -0.21283093577E+02 -0.53693474917E+01  0.16495932924E+03  0.20818474577E+03  0.12509000000E+03 0.  0.
         25    1    4    4    0    0 -0.92557677998E+02 -0.42270968427E+02  0.28544580508E+03  0.32784230091E+03  0.12509000000E+03 0.  0.
<mgrwt>
<rscale>  2 0.47576915E+03</rscale>
<asrwt>0</asrwt>
<pdfrwt beam="1">  1       21 0.13888765E+00 0.47576915E+03</pdfrwt>
<pdfrwt beam="2">  1       21 0.88115255E-02 0.47576915E+03</pdfrwt>
<totfact> 0.33265565E+04</totfact>
</mgrwt>
</event>
<event>
 7    0  0.4766352E-002  0.4653632E+03  0.7546771E-02  0.1023237E+00
         21   -1    0    0  502  501  0.00000000000E+00  0.00000000000E+00  0.39586286344E+02  0.39586286344E+02  0.00000000000E+00 0.  1.
         21   -1    0    0  501  502 -0.00000000000E+00 -0.00000000000E+00 -0.13676638887E+04  0.13676638887E+04  0.00000000000E+00 0.  1.
      99926    2    1    2    0    0  0.00000000000E+00 -0.14210854715E-13 -0.13280776023E+04  0.14072501750E+04  0.46536323154E+03 0.  0.
      99925    2    3    3    0    0  0.48534952007E+02 -0.98586677264E+02 -0.99207532027E+03  0.10322568202E+04  0.26318382792E+03 0.  0.
         25    1    4    4    0    0  0.35584451034E+02 -0.85243753531E+02 -0.46880911866E+03  0.49392534710E+03  0.12509000000E+03 0.  0.
         25    1    3    3    0    0 -0.48534952007E+02  0.98586677264E+02 -0.33600228205E+03  0.37499335480E+03  0.12509000000E+03 0.  0.
         25    1    4    4    0    0  0.12950500973E+02 -0.13342923733E+02 -0.52326620161E+03  0.53833147310E+03  0.12509000000E+03 0.  0.
<mgrwt>
<rscale>  2 0.46536323E+03</rscale>
<asrwt>0</asrwt>
<pdfrwt beam="1">  1       21 0.58215126E-02 0.46536323E+03</pdfrwt>
<pdfrwt beam="2">  1       21 0.20112705E+00 0.46536323E+03</pdfrwt>
<totfact> 0.24136395E+04</totfact>
</mgrwt>
</event>
<event>
 7    0  0.4766352E-002  0.4511704E+03  0.7546771E-02  0.1027374E+00
         21   -1    0    0  502  501  0.00000000000E+00  0.00000000000E+00  0.56060261076E+02  0.56060261076E+02  0.00000000000E+00 0.  1.
         21   -1    0    0  501  502 -0.00000000000E+00 -0.00000000000E+00 -0.90774955426E+03  0.90774955426E+03  0.00000000000E+00 0.  1.
      99926    2    1    2    0    0 -0.14210854715E-13  0.71054273576E-14 -0.85168929319E+03  0.96380981534E+03  0.45117037582E+03 0.  0.
      99925    2    3    3    0    0 -0.10048698917E+03  0.43300159262E+02 -0.54957962956E+03  0.61900509417E+03  0.26297718265E+03 0.  0.
         25    1    4    4    0    0 -0.56180515982E+02 -0.16697743635E+02 -0.29418961061E+03  0.32500784623E+03  0.12509000000E+03 0.  0.
         25    1    4    4    0    0 -0.44306473186E+02  0.59997902896E+02 -0.25539001894E+03  0.29399724793E+03  0.12509000000E+03 0.  0.
         25    1    3    3    0    0  0.10048698917E+03 -0.43300159262E+02 -0.30210966363E+03  0.34480472117E+03  0.12509000000E+03 0.  0.
<mgrwt>
<rscale>  2 0.45117038E+03</rscale>
<asrwt>0</asrwt>
<pdfrwt beam="1">  1       21 0.82441571E-02 0.45117038E+03</pdfrwt>
<pdfrwt beam="2">  1       21 0.13349256E+00 0.45117038E+03</pdfrwt>
<totfact> 0.41824988E+04</totfact>
</mgrwt>
</event>
<event>
 7    0  0.4766352E-002  0.4662297E+03  0.7546771E-02  0.1022990E+00
         21   -1    0    0  502  501  0.00000000000E+00  0.00000000000E+00  0.20283079927E+03  0.20283079927E+03  0.00000000000E+00 0.  1.
         21   -1    0    0  501  502 -0.00000000000E+00 -0.00000000000E+00 -0.26792052578E+03  0.26792052578E+03  0.00000000000E+00 0.  1.
      99926    2    1    2    0    0  0.00000000000E+00  0.00000000000E+00 -0.65089726506E+02  0.47075132505E+03  0.46622970470E+03 0.  0.
      99925    2    3    3    0    0  0.96614312694E+02 -0.56517612135E+02  0.11983433077E+02  0.28604521815E+03  0.26296330211E+03 0.  0.
         25    1    4    4    0    0  0.44285902764E+02  0.11347930045E+02 -0.62169285604E+01  0.13332732278E+03  0.12509000000E+03 0.  0.
         25    1    4    4    0    0  0.52328409929E+02 -0.67865542180E+02  0.18200361637E+02  0.15271789537E+03  0.12509000000E+03 0.  0.
         25    1    3    3    0    0 -0.96614312694E+02  0.56517612135E+02 -0.77073159583E+02  0.18470610690E+03  0.12509000000E+03 0.  0.
<mgrwt>
<rscale>  2 0.46622970E+03</rscale>
<asrwt>0</asrwt>
<pdfrwt beam="1">  1       21 0.29828059E-01 0.46622970E+03</pdfrwt>
<pdfrwt beam="2">  1       21 0.39400077E-01 0.46622970E+03</pdfrwt>
<totfact> 0.61691404E+04</totfact>
</mgrwt>
</event>
<event>
 7    0  0.4766352E-002  0.4522114E+03  0.7546771E-02  0.1027065E+00
         21   -1    0    0  502  501  0.00000000000E+00  0.00000000000E+00  0.46801303881E+03  0.46801303881E+03  0.00000000000E+00 0.  1.
         21   -1    0    0  501  502 -0.00000000000E+00 -0.00000000000E+00 -0.10923580404E+03  0.10923580404E+03  0.00000000000E+00 0.  1.
      99926    2    1    2    0    0  0.00000000000E+00  0.00000000000E+00  0.35877723477E+03  0.57724884286E+03  0.45221136915E+03 0.  0.
      99925    2    3    3    0    0 -0.30632492309E+02  0.89393757800E+02  0.29986618124E+03  0.40977462440E+03  0.26280396237E+03 0.  0.
         25    1    3    3    0    0  0.30632492309E+02 -0.89393757800E+02  0.58911053534E+02  0.16747421846E+03  0.12509000000E+03 0.  0.
         25    1    4    4    0    0 -0.84000721445E+00  0.50214786227E+01  0.14380304893E+03  0.19066396052E+03  0.12509000000E+03 0.  0.
         25    1    4    4    0    0 -0.29792485095E+02  0.84372279177E+02  0.15606313230E+03  0.21911066388E+03  0.12509000000E+03 0.  0.
<mgrwt>
<rscale>  2 0.45221137E+03</rscale>
<asrwt>0</asrwt>
<pdfrwt beam="1">  1       21 0.68825446E-01 0.45221137E+03</pdfrwt>
<pdfrwt beam="2">  1       21 0.16064089E-01 0.45221137E+03</pdfrwt>
<totfact> 0.61444516E+04</totfact>
</mgrwt>
</event>
<event>
 7    0  0.4766352E-002  0.4581321E+03  0.7546771E-02  0.1025324E+00
         21   -1    0    0  502  501  0.00000000000E+00  0.00000000000E+00  0.34426488846E+02  0.34426488846E+02  0.00000000000E+00 0.  1.
         21   -1    0    0  501  502 -0.00000000000E+00 -0.00000000000E+00 -0.15241538575E+04  0.15241538575E+04  0.00000000000E+00 0.  1.
      99926    2    1    2    0    0  0.00000000000E+00  0.00000000000E+00 -0.14897273687E+04  0.15585803464E+04  0.45813214590E+03 0.  0.
      99925    2    3    3    0    0  0.73676393118E+02 -0.45288078225E+02 -0.67170916900E+03  0.72654639031E+03  0.26305366111E+03 0.  0.
         25    1    4    4    0    0  0.25406599190E+02 -0.49051951275E+02 -0.26357315053E+03  0.29693417282E+03  0.12509000000E+03 0.  0.
         25    1    3    3    0    0 -0.73676393118E+02  0.45288078225E+02 -0.81801819970E+03  0.83203395608E+03  0.12509000000E+03 0.  0.
         25    1    4    4    0    0  0.48269793928E+02  0.37638730498E+01 -0.40813601847E+03  0.42961221749E+03  0.12509000000E+03 0.  0.
<mgrwt>
<rscale>  2 0.45813215E+03</rscale>
<asrwt>0</asrwt>
<pdfrwt beam="1">  1       21 0.50627197E-02 0.45813215E+03</pdfrwt>
<pdfrwt beam="2">  1       21 0.22414024E+00 0.45813215E+03</pdfrwt>
<totfact> 0.21843095E+04</totfact>
</mgrwt>
</event>
<event>
 7    0  0.4766352E-002  0.4318131E+03  0.7546771E-02  0.1033289E+00
         21   -1    0    0  502  501  0.00000000000E+00  0.00000000000E+00  0.24709871828E+03  0.24709871828E+03  0.00000000000E+00 0.  1.
         21   -1    0    0  501  502 -0.00000000000E+00 -0.00000000000E+00 -0.18865187413E+03  0.18865187413E+03  0.00000000000E+00 0.  1.
      99926    2    1    2    0    0  0.00000000000E+00  0.35527136788E-14  0.58446844148E+02  0.43575059241E+03  0.43181309058E+03 0.  0.
      99925    2    3    3    0    0  0.27606179286E+02 -0.16819628350E+02 -0.46884659016E+02  0.26905555742E+03  0.26295954193E+03 0.  0.
         25    1    4    4    0    0 -0.12131949421E+02  0.22354484433E+02 -0.16034933173E+02  0.12865276660E+03  0.12509000000E+03 0.  0.
         25    1    3    3    0    0 -0.27606179286E+02  0.16819628350E+02  0.10533150316E+03  0.16669503499E+03  0.12509000000E+03 0.  0.
         25    1    4    4    0    0  0.39738128707E+02 -0.39174112783E+02 -0.30849725843E+02  0.14040279082E+03  0.12509000000E+03 0.  0.
<mgrwt>
<rscale>  2 0.43181309E+03</rscale>
<asrwt>0</asrwt>
<pdfrwt beam="1">  1       21 0.36338047E-01 0.43181309E+03</pdfrwt>
<pdfrwt beam="2">  1       21 0.27742923E-01 0.43181309E+03</pdfrwt>
<totfact> 0.84575017E+04</totfact>
</mgrwt>
</event>
<event>
 7    0  0.4766352E-002  0.4563096E+03  0.7546771E-02  0.1025857E+00
         21   -1    0    0  502  501  0.00000000000E+00  0.00000000000E+00  0.21316811316E+03  0.21316811316E+03  0.00000000000E+00 0.  1.
         21   -1    0    0  501  502 -0.00000000000E+00 -0.00000000000E+00 -0.24419508850E+03  0.24419508850E+03  0.00000000000E+00 0.  1.
      99926    2    1    2    0    0 -0.14210854715E-13  0.35527136788E-14 -0.31026975348E+02  0.45736320166E+03  0.45630957149E+03 0.  0.
      99925    2    3    3    0    0  0.81203775566E+02 -0.52931379719E+01 -0.10006597269E+03  0.29293704276E+03  0.26301490767E+03 0.  0.
         25    1    4    4    0    0  0.59420891064E+02  0.16043158919E+02 -0.85061252111E+02  0.16331304282E+03  0.12509000000E+03 0.  0.
         25    1    4    4    0    0  0.21782884503E+02 -0.21336296890E+02 -0.15004720583E+02  0.12962399995E+03  0.12509000000E+03 0.  0.
         25    1    3    3    0    0 -0.81203775566E+02  0.52931379719E+01  0.69038997346E+02  0.16442615890E+03  0.12509000000E+03 0.  0.
<mgrwt>
<rscale>  2 0.45630957E+03</rscale>
<asrwt>0</asrwt>
<pdfrwt beam="1">  1       21 0.31348252E-01 0.45630957E+03</pdfrwt>
<pdfrwt beam="2">  1       21 0.35911042E-01 0.45630957E+03</pdfrwt>
<totfact> 0.67663281E+04</totfact>
</mgrwt>
</event>
<event>
 7    0  0.4766352E-002  0.4573603E+03  0.7546771E-02  0.1025550E+00
         21   -1    0    0  502  501  0.00000000000E+00  0.00000000000E+00  0.22853266675E+03  0.22853266675E+03  0.00000000000E+00 0. -1.
         21   -1    0    0  501  502 -0.00000000000E+00 -0.00000000000E+00 -0.22882776301E+03  0.22882776301E+03  0.00000000000E+00 0. -1.
      99926    2    1    2    0    0  0.00000000000E+00  0.35527136788E-14 -0.29509626182E+00  0.45736042976E+03  0.45736033455E+03 0.  0.
      99925    2    3    3    0    0  0.69511001965E+02 -0.18823606355E+02 -0.90242345535E+02  0.28728949367E+03  0.26306931538E+03 0.  0.
         25    1    4    4    0    0  0.60321690477E+02  0.72574820605E+01 -0.75764601567E+02  0.15836401213E+03  0.12509000000E+03 0.  0.
         25    1    4    4    0    0  0.91893114874E+01 -0.26081088415E+02 -0.14477743967E+02  0.12892548153E+03  0.12509000000E+03 0.  0.
         25    1    3    3    0    0 -0.69511001965E+02  0.18823606355E+02  0.89947249273E+02  0.17007093609E+03  0.12509000000E+03 0.  0.
<mgrwt>
<rscale>  2 0.45736033E+03</rscale>
<asrwt>0</asrwt>
<pdfrwt beam="1">  1       21 0.33607745E-01 0.45736033E+03</pdfrwt>
<pdfrwt beam="2">  1       21 0.33651142E-01 0.45736033E+03</pdfrwt>
<totfact> 0.67100573E+04</totfact>
</mgrwt>
</event>
<event>
 7    0  0.4766352E-002  0.4501587E+03  0.7546771E-02  0.1027675E+00
         21   -1    0    0  502  501  0.00000000000E+00  0.00000000000E+00  0.62973658503E+02  0.62973658503E+02  0.00000000000E+00 0.  1.
         21   -1    0    0  501  502 -0.00000000000E+00 -0.00000000000E+00 -0.80447483155E+03  0.80447483155E+03  0.00000000000E+00 0.  1.
      99926    2    1    2    0    0 -0.14210854715E-13  0.14210854715E-13 -0.74150117305E+03  0.86744849006E+03  0.45015874230E+03 0.  0.
      99925    2    3    3    0    0 -0.77136538120E+02  0.75044055235E+02 -0.43999039169E+03  0.52373652472E+03  0.26291965846E+03 0.  0.
         25    1    4    4    0    0 -0.65218790971E+02  0.47027223082E+02 -0.17891321297E+03  0.23264242150E+03  0.12509000000E+03 0.  0.
         25    1    3    3    0    0  0.77136538120E+02 -0.75044055235E+02 -0.30151078136E+03  0.34371196534E+03  0.12509000000E+03 0.  0.
         25    1    4    4    0    0 -0.11917747150E+02  0.28016832153E+02 -0.26107717871E+03  0.29109410321E+03  0.12509000000E+03 0.  0.
<mgrwt>
<rscale>  2 0.45015874E+03</rscale>
<asrwt>0</asrwt>
<pdfrwt beam="1">  1       21 0.92608314E-02 0.45015874E+03</pdfrwt>
<pdfrwt beam="2">  1       21 0.11830513E+00 0.45015874E+03</pdfrwt>
<totfact> 0.46405494E+04</totfact>
</mgrwt>
</event>
<event>
 7    0  0.4766352E-002  0.4574316E+03  0.7546771E-02  0.1025529E+00
         21   -1    0    0  502  501  0.00000000000E+00  0.00000000000E+00  0.12499867689E+03  0.12499867689E+03  0.00000000000E+00 0. -1.
         21   -1    0    0  501  502 -0.00000000000E+00 -0.00000000000E+00 -0.41849171403E+03  0.41849171403E+03  0.00000000000E+00 0. -1.
      99926    2    1    2    0    0  0.00000000000E+00  0.14210854715E-13 -0.29349303715E+03  0.54349039092E+03  0.45743157102E+03 0.  0.
      99925    2    3    3    0    0 -0.23922038896E+02 -0.10219150671E+03 -0.12721357469E+03  0.31044160692E+03  0.26301203344E+03 0.  0.
         25    1    4    4    0    0 -0.11582199047E+02 -0.28212159928E+02 -0.97719811525E+02  0.16163769043E+03  0.12509000000E+03 0.  0.
         25    1    3    3    0    0  0.23922038896E+02  0.10219150671E+03 -0.16627946246E+03  0.23304878400E+03  0.12509000000E+03 0.  0.
         25    1    4    4    0    0 -0.12339839849E+02 -0.73979346783E+02 -0.29493763169E+02  0.14880391649E+03  0.12509000000E+03 0.  0.
<mgrwt>
<rscale>  2 0.45743157E+03</rscale>
<asrwt>0</asrwt>
<pdfrwt beam="1">  1       21 0.18382158E-01 0.45743157E+03</pdfrwt>
<pdfrwt beam="2">  1       21 0.61542899E-01 0.45743157E+03</pdfrwt>
<totfact> 0.61114276E+04</totfact>
</mgrwt>
</event>
<event>
 7    0  0.4766352E-002  0.4331053E+03  0.7546771E-02  0.1032883E+00
         21   -1    0    0  502  501  0.00000000000E+00  0.00000000000E+00  0.38301184192E+02  0.38301184192E+02  0.00000000000E+00 0. -1.
         21   -1    0    0  501  502 -0.00000000000E+00 -0.00000000000E+00 -0.12243761412E+04  0.12243761412E+04  0.00000000000E+00 0. -1.
      99926    2    1    2    0    0 -0.35527136788E-14 -0.14210854715E-13 -0.11860749570E+04  0.12626773254E+04  0.43310532716E+03 0.  0.
      99925    2    3    3    0    0  0.14409529290E+02  0.89348797861E+02 -0.73023902984E+03  0.78140324256E+03  0.26296605210E+03 0.  0.
         25    1    3    3    0    0 -0.14409529290E+02 -0.89348797861E+02 -0.45583592713E+03  0.48127408280E+03  0.12509000000E+03 0.  0.
         25    1    4    4    0    0  0.81057012894E+01  0.22743784361E+02 -0.44437769967E+03  0.46227916910E+03  0.12509000000E+03 0.  0.
         25    1    4    4    0    0  0.63038280007E+01  0.66605013500E+02 -0.28586133017E+03  0.31912407346E+03  0.12509000000E+03 0.  0.
<mgrwt>
<rscale>  2 0.43310533E+03</rscale>
<asrwt>0</asrwt>
<pdfrwt beam="1">  1       21 0.56325279E-02 0.43310533E+03</pdfrwt>
<pdfrwt beam="2">  1       21 0.18005529E+00 0.43310533E+03</pdfrwt>
<totfact> 0.35965242E+04</totfact>
</mgrwt>
</event>
<event>
 7    0  0.4766352E-002  0.4469212E+03  0.7546771E-02  0.1028644E+00
         21   -1    0    0  502  501  0.00000000000E+00  0.00000000000E+00  0.80634188930E+02  0.80634188930E+02  0.00000000000E+00 0.  1.
         21   -1    0    0  501  502 -0.00000000000E+00 -0.00000000000E+00 -0.61927375031E+03  0.61927375031E+03  0.00000000000E+00 0.  1.
      99926    2    1    2    0    0  0.14210854715E-13  0.00000000000E+00 -0.53863956138E+03  0.69990793924E+03  0.44692118581E+03 0.  0.
      99925    2    3    3    0    0  0.70726618917E+02  0.64430989891E+02 -0.27007943860E+03  0.38857908621E+03  0.26248275373E+03 0.  0.
         25    1    3    3    0    0 -0.70726618917E+02 -0.64430989891E+02 -0.26856012278E+03  0.31132885303E+03  0.12509000000E+03 0.  0.
         25    1    4    4    0    0  0.15205014244E+02  0.63146407052E+02 -0.15753068064E+03  0.21138137246E+03  0.12509000000E+03 0.  0.
         25    1    4    4    0    0  0.55521604673E+02  0.12845828393E+01 -0.11254875796E+03  0.17719771375E+03  0.12509000000E+03 0.  0.
<mgrwt>
<rscale>  2 0.44692119E+03</rscale>
<asrwt>0</asrwt>
<pdfrwt beam="1">  1       21 0.11857969E-01 0.44692119E+03</pdfrwt>
<pdfrwt beam="2">  1       21 0.91069668E-01 0.44692119E+03</pdfrwt>
<totfact> 0.56409710E+04</totfact>
</mgrwt>
</event>
<event>
 7    0  0.4766352E-002  0.4586347E+03  0.7546771E-02  0.1025178E+00
         21   -1    0    0  502  501  0.00000000000E+00  0.00000000000E+00  0.71435289179E+03  0.71435289179E+03  0.00000000000E+00 0. -1.
         21   -1    0    0  501  502 -0.00000000000E+00 -0.00000000000E+00 -0.73614102525E+02  0.73614102525E+02  0.00000000000E+00 0. -1.
      99926    2    1    2    0    0  0.00000000000E+00  0.00000000000E+00  0.64073878927E+03  0.78796699432E+03  0.45863470002E+03 0.  0.
      99925    2    3    3    0    0  0.34599053485E+02 -0.51915245637E+02  0.57131517594E+03  0.63189190528E+03  0.26266720858E+03 0.  0.
         25    1    4    4    0    0 -0.84806169811E+01 -0.56668071987E+02  0.29076830629E+03  0.32167826674E+03  0.12509000000E+03 0.  0.
         25    1    3    3    0    0 -0.34599053485E+02  0.51915245637E+02  0.69423613324E+02  0.15607508904E+03  0.12509000000E+03 0.  0.
         25    1    4    4    0    0  0.43079670466E+02  0.47528263501E+01  0.28054686965E+03  0.31021363854E+03  0.12509000000E+03 0.  0.
<mgrwt>
<rscale>  2 0.45863470E+03</rscale>
<asrwt>0</asrwt>
<pdfrwt beam="1">  1       21 0.10505189E+00 0.45863470E+03</pdfrwt>
<pdfrwt beam="2">  1       21 0.10825604E-01 0.45863470E+03</pdfrwt>
<totfact> 0.46997259E+04</totfact>
</mgrwt>
</event>
<event>
 7    0  0.4766352E-002  0.4260760E+03  0.7546771E-02  0.1035107E+00
         21   -1    0    0  502  501  0.00000000000E+00  0.00000000000E+00  0.10295982185E+03  0.10295982185E+03  0.00000000000E+00 0. -1.
         21   -1    0    0  501  502 -0.00000000000E+00 -0.00000000000E+00 -0.44080494220E+03  0.44080494220E+03  0.00000000000E+00 0. -1.
      99926    2    1    2    0    0  0.00000000000E+00  0.17763568394E-14 -0.33784512035E+03  0.54376476405E+03  0.42607604166E+03 0.  0.
      99925    2    3    3    0    0  0.80794791988E+02  0.15847661093E+02 -0.20317520793E+03  0.34236357193E+03  0.26297091758E+03 0.  0.
         25    1    4    4    0    0  0.63775139423E+02 -0.12003942045E+02 -0.72230818614E+02  0.15835454616E+03  0.12509000000E+03 0.  0.
         25    1    3    3    0    0 -0.80794791988E+02 -0.15847661093E+02 -0.13466991242E+03  0.20140119212E+03  0.12509000000E+03 0.  0.
         25    1    4    4    0    0  0.17019652566E+02  0.27851603137E+02 -0.13094438932E+03  0.18400902577E+03  0.12509000000E+03 0.  0.
<mgrwt>
<rscale>  2 0.42607604E+03</rscale>
<asrwt>0</asrwt>
<pdfrwt beam="1">  1       21 0.15141150E-01 0.42607604E+03</pdfrwt>
<pdfrwt beam="2">  1       21 0.64824256E-01 0.42607604E+03</pdfrwt>
<totfact> 0.78832604E+04</totfact>
</mgrwt>
</event>
<event>
 7    0  0.4766352E-002  0.4524427E+03  0.7546771E-02  0.1026996E+00
         21   -1    0    0  502  501  0.00000000000E+00  0.00000000000E+00  0.46812586169E+03  0.46812586169E+03  0.00000000000E+00 0.  1.
         21   -1    0    0  501  502 -0.00000000000E+00 -0.00000000000E+00 -0.10932124078E+03  0.10932124078E+03  0.00000000000E+00 0.  1.
      99926    2    1    2    0    0 -0.14210854715E-13  0.71054273576E-14  0.35880462091E+03  0.57744710247E+03  0.45244270374E+03 0.  0.
      99925    2    3    3    0    0  0.94072878303E+02 -0.57921518631E+02  0.21509861734E+03  0.35721192745E+03  0.26292268290E+03 0.  0.
         25    1    4    4    0    0  0.22420795878E+02 -0.24468050420E+02  0.59383231746E+02  0.14239120019E+03  0.12509000000E+03 0.  0.
         25    1    4    4    0    0  0.71652082425E+02 -0.33453468211E+02  0.15571538559E+03  0.21482072726E+03  0.12509000000E+03 0.  0.
         25    1    3    3    0    0 -0.94072878303E+02  0.57921518631E+02  0.14370600357E+03  0.22023517502E+03  0.12509000000E+03 0.  0.
<mgrwt>
<rscale>  2 0.45244270E+03</rscale>
<asrwt>0</asrwt>
<pdfrwt beam="1">  1       21 0.68842038E-01 0.45244270E+03</pdfrwt>
<pdfrwt beam="2">  1       21 0.16076653E-01 0.45244270E+03</pdfrwt>
<totfact> 0.61318784E+04</totfact>
</mgrwt>
</event>
<event>
 7    0  0.4766352E-002  0.4544616E+03  0.7546771E-02  0.1026400E+00
         21   -1    0    0  502  501  0.00000000000E+00  0.00000000000E+00  0.18588100127E+03  0.18588100127E+03  0.00000000000E+00 0. -1.
         21   -1    0    0  501  502 -0.00000000000E+00 -0.00000000000E+00 -0.27777903131E+03  0.27777903131E+03  0.00000000000E+00 0. -1.
      99926    2    1    2    0    0  0.00000000000E+00  0.00000000000E+00 -0.91898030037E+02  0.46366003258E+03  0.45446163522E+03 0.  0.
      99925    2    3    3    0    0 -0.48886743511E+02 -0.10070922851E+03 -0.50954390864E+02  0.29087070395E+03  0.26358519320E+03 0.  0.
         25    1    4    4    0    0 -0.15381981693E+02 -0.10886860132E+02 -0.40900340100E+02  0.13294914443E+03  0.12509000000E+03 0.  0.
         25    1    3    3    0    0  0.48886743511E+02  0.10070922851E+03 -0.40943639172E+02  0.17278932863E+03  0.12509000000E+03 0.  0.
         25    1    4    4    0    0 -0.33504761818E+02 -0.89822368378E+02 -0.10054050764E+02  0.15792155952E+03  0.12509000000E+03 0.  0.
<mgrwt>
<rscale>  2 0.45446164E+03</rscale>
<asrwt>0</asrwt>
<pdfrwt beam="1">  1       21 0.27335442E-01 0.45446164E+03</pdfrwt>
<pdfrwt beam="2">  1       21 0.40849857E-01 0.45446164E+03</pdfrwt>
<totfact> 0.68201239E+04</totfact>
</mgrwt>
</event>
<event>
 7    0  0.4766352E-002  0.4601764E+03  0.7546771E-02  0.1024730E+00
         21   -1    0    0  502  501  0.00000000000E+00  0.00000000000E+00  0.44245989718E+03  0.44245989718E+03  0.00000000000E+00 0. -1.
         21   -1    0    0  501  502 -0.00000000000E+00 -0.00000000000E+00 -0.11965055915E+03  0.11965055915E+03  0.00000000000E+00 0. -1.
      99926    2    1    2    0    0  0.14210854715E-13  0.00000000000E+00  0.32280933803E+03  0.56211045632E+03  0.46017637530E+03 0.  0.
      99925    2    3    3    0    0  0.10425999049E+03 -0.54878819945E+02  0.20833872339E+03  0.35563319314E+03  0.26303633571E+03 0.  0.
         25    1    3    3    0    0 -0.10425999049E+03  0.54878819945E+02  0.11447061464E+03  0.20647726318E+03  0.12509000000E+03 0.  0.
         25    1    4    4    0    0  0.21272379011E+02 -0.37162008999E+02  0.12983889592E+03  0.18530832689E+03  0.12509000000E+03 0.  0.
         25    1    4    4    0    0  0.82987611481E+02 -0.17716810946E+02  0.78499827476E+02  0.17032486625E+03  0.12509000000E+03 0.  0.
<mgrwt>
<rscale>  2 0.46017638E+03</rscale>
<asrwt>0</asrwt>
<pdfrwt beam="1">  1       21 0.65067631E-01 0.46017638E+03</pdfrwt>
<pdfrwt beam="2">  1       21 0.17595671E-01 0.46017638E+03</pdfrwt>
<totfact> 0.58635435E+04</totfact>
</mgrwt>
</event>
<event>
 7    0  0.4766352E-002  0.4483176E+03  0.7546771E-02  0.1028225E+00
         21   -1    0    0  502  501  0.00000000000E+00  0.00000000000E+00  0.28023560210E+03  0.28023560210E+03  0.00000000000E+00 0.  1.
         21   -1    0    0  501  502 -0.00000000000E+00 -0.00000000000E+00 -0.17930326539E+03  0.17930326539E+03  0.00000000000E+00 0.  1.
      99926    2    1    2    0    0  0.00000000000E+00  0.00000000000E+00  0.10093233671E+03  0.45953886749E+03  0.44831755949E+03 0.  0.
      99925    2    3    3    0    0  0.10668621437E+03 -0.28642601864E+01  0.65441086135E+02  0.29132088602E+03  0.26304974920E+03 0.  0.
         25    1    3    3    0    0 -0.10668621437E+03  0.28642601864E+01  0.35491250573E+02  0.16821798147E+03  0.12509000000E+03 0.  0.
         25    1    4    4    0    0  0.73502005131E+02 -0.28556898938E+02  0.59047523635E+02  0.15922361440E+03  0.12509000000E+03 0.  0.
         25    1    4    4    0    0  0.33184209237E+02  0.25692638752E+02  0.63935624997E+01  0.13209727162E+03  0.12509000000E+03 0.  0.
<mgrwt>
<rscale>  2 0.44831756E+03</rscale>
<asrwt>0</asrwt>
<pdfrwt beam="1">  1       21 0.41211118E-01 0.44831756E+03</pdfrwt>
<pdfrwt beam="2">  1       21 0.26368127E-01 0.44831756E+03</pdfrwt>
<totfact> 0.71961424E+04</totfact>
</mgrwt>
</event>
<event>
 7    0  0.4766352E-002  0.4552896E+03  0.7546771E-02  0.1026156E+00
         21   -1    0    0  502  501  0.00000000000E+00  0.00000000000E+00  0.32332130408E+02  0.32332130408E+02  0.00000000000E+00 0.  1.
         21   -1    0    0  501  502 -0.00000000000E+00 -0.00000000000E+00 -0.16028066449E+04  0.16028066449E+04  0.00000000000E+00 0.  1.
      99926    2    1    2    0    0 -0.14210854715E-13 -0.71054273576E-14 -0.15704745145E+04  0.16351387753E+04  0.45528959339E+03 0.  0.
      99925    2    3    3    0    0  0.10821633679E+03  0.33819345989E+02 -0.98615699337E+03  0.10269208889E+04  0.26307104146E+03 0.  0.
         25    1    4    4    0    0  0.86039171818E+02  0.82171006938E+00 -0.44961063707E+03  0.47455310279E+03  0.12509000000E+03 0.  0.
         25    1    4    4    0    0  0.22177164972E+02  0.32997635920E+02 -0.53654635630E+03  0.55236778615E+03  0.12509000000E+03 0.  0.
         25    1    3    3    0    0 -0.10821633679E+03 -0.33819345989E+02 -0.58431752114E+03  0.60821788639E+03  0.12509000000E+03 0.  0.
<mgrwt>
<rscale>  2 0.45528959E+03</rscale>
<asrwt>0</asrwt>
<pdfrwt beam="1">  1       21 0.47547257E-02 0.45528959E+03</pdfrwt>
<pdfrwt beam="2">  1       21 0.23570683E+00 0.45528959E+03</pdfrwt>
<totfact> 0.20600886E+04</totfact>
</mgrwt>
</event>
<event>
 7    0  0.4766352E-002  0.4484915E+03  0.7546771E-02  0.1028173E+00
         21   -1    0    0  502  501  0.00000000000E+00  0.00000000000E+00  0.22545173420E+03  0.22545173420E+03  0.00000000000E+00 0. -1.
         21   -1    0    0  501  502 -0.00000000000E+00 -0.00000000000E+00 -0.22304621691E+03  0.22304621691E+03  0.00000000000E+00 0. -1.
      99926    2    1    2    0    0  0.00000000000E+00  0.14210854715E-13  0.24055172836E+01  0.44849795111E+03  0.44849150007E+03 0.  0.
      99925    2    3    3    0    0 -0.45131389242E+02  0.95933235021E+02 -0.12308391480E+02  0.28386491953E+03  0.26303567850E+03 0.  0.
         25    1    3    3    0    0  0.45131389242E+02 -0.95933235021E+02  0.14713908764E+02  0.16463303158E+03  0.12509000000E+03 0.  0.
         25    1    4    4    0    0 -0.28085967856E+01  0.20388404600E+02 -0.31212510350E+02  0.13055766603E+03  0.12509000000E+03 0.  0.
         25    1    4    4    0    0 -0.42322792456E+02  0.75544830421E+02  0.18904118870E+02  0.15330725350E+03  0.12509000000E+03 0.  0.
<mgrwt>
<rscale>  2 0.44849150E+03</rscale>
<asrwt>0</asrwt>
<pdfrwt beam="1">  1       21 0.33154667E-01 0.44849150E+03</pdfrwt>
<pdfrwt beam="2">  1       21 0.32800914E-01 0.44849150E+03</pdfrwt>
<totfact> 0.72728916E+04</totfact>
</mgrwt>
</event>
<event>
 7    0  0.4766352E-002  0.4442515E+03  0.7546771E-02  0.1029450E+00
         21   -1    0    0  502  501  0.00000000000E+00  0.00000000000E+00  0.18495970716E+03  0.18495970716E+03  0.00000000000E+00 0.  1.
         21   -1    0    0  501  502 -0.00000000000E+00 -0.00000000000E+00 -0.26676003785E+03  0.26676003785E+03  0.00000000000E+00 0.  1.
      99926    2    1    2    0    0  0.00000000000E+00  0.00000000000E+00 -0.81800330685E+02  0.45171974501E+03  0.44425154353E+03 0.  0.
      99925    2    3    3    0    0  0.32701360024E+02  0.26416995133E+02  0.43625635170E+02  0.26965816864E+03  0.26276433413E+03 0.  0.
         25    1    4    4    0    0  0.12747338958E+02 -0.14610643136E+02 -0.80322393333E+01  0.12683844256E+03  0.12509000000E+03 0.  0.
         25    1    3    3    0    0 -0.32701360024E+02 -0.26416995133E+02 -0.12542596585E+03  0.18206157637E+03  0.12509000000E+03 0.  0.
         25    1    4    4    0    0  0.19954021066E+02  0.41027638269E+02  0.51657874503E+02  0.14281972608E+03  0.12509000000E+03 0.  0.
<mgrwt>
<rscale>  2 0.44425154E+03</rscale>
<asrwt>0</asrwt>
<pdfrwt beam="1">  1       21 0.27199957E-01 0.44425154E+03</pdfrwt>
<pdfrwt beam="2">  1       21 0.39229417E-01 0.44425154E+03</pdfrwt>
<totfact> 0.75014241E+04</totfact>
</mgrwt>
</event>
<event>
 7    0  0.4766352E-002  0.4678380E+03  0.7546771E-02  0.1022532E+00
         21   -1    0    0  502  501  0.00000000000E+00  0.00000000000E+00  0.11491503196E+04  0.11491503196E+04  0.00000000000E+00 0. -1.
         21   -1    0    0  501  502 -0.00000000000E+00 -0.00000000000E+00 -0.47616132291E+02  0.47616132291E+02  0.00000000000E+00 0. -1.
      99926    2    1    2    0    0 -0.14210854715E-13  0.00000000000E+00  0.11015341873E+04  0.11967664519E+04  0.46783797897E+03 0.  0.
      99925    2    3    3    0    0  0.74776426228E+02 -0.99627912789E+02  0.70513799723E+03  0.76283709989E+03  0.26302777590E+03 0.  0.
         25    1    4    4    0    0  0.69356181337E+01 -0.19324133559E+02  0.27903063694E+03  0.30647533243E+03  0.12509000000E+03 0.  0.
         25    1    4    4    0    0  0.67840808094E+02 -0.80303779230E+02  0.42610736029E+03  0.45636176745E+03  0.12509000000E+03 0.  0.
         25    1    3    3    0    0 -0.74776426228E+02  0.99627912789E+02  0.39639619011E+03  0.43392935203E+03  0.12509000000E+03 0.  0.
<mgrwt>
<rscale>  2 0.46783798E+03</rscale>
<asrwt>0</asrwt>
<pdfrwt beam="1">  1       21 0.16899268E+00 0.46783798E+03</pdfrwt>
<pdfrwt beam="2">  1       21 0.70023731E-02 0.46783798E+03</pdfrwt>
<totfact> 0.29224567E+04</totfact>
</mgrwt>
</event>
<event>
 7    0  0.4766352E-002  0.4511970E+03  0.7546771E-02  0.1027366E+00
         21   -1    0    0  502  501  0.00000000000E+00  0.00000000000E+00  0.39142301293E+02  0.39142301293E+02  0.00000000000E+00 0. -1.
         21   -1    0    0  501  502 -0.00000000000E+00 -0.00000000000E+00 -0.13002473242E+04  0.13002473242E+04  0.00000000000E+00 0. -1.
      99926    2    1    2    0    0 -0.35527136788E-14  0.00000000000E+00 -0.12611050229E+04  0.13393896255E+04  0.45119695264E+03 0.  0.
      99925    2    3    3    0    0 -0.27815565957E+02  0.10514394131E+03 -0.83745195015E+03  0.88446283110E+03  0.26290640288E+03 0.  0.
         25    1    3    3    0    0  0.27815565957E+02 -0.10514394131E+03 -0.42365307274E+03  0.45492679438E+03  0.12509000000E+03 0.  0.
         25    1    4    4    0    0  0.83832777898E+01  0.50521263231E+02 -0.51503991006E+03  0.53248126205E+03  0.12509000000E+03 0.  0.
         25    1    4    4    0    0 -0.36198843747E+02  0.54622678079E+02 -0.32241204009E+03  0.35198156904E+03  0.12509000000E+03 0.  0.
<mgrwt>
<rscale>  2 0.45119695E+03</rscale>
<asrwt>0</asrwt>
<pdfrwt beam="1">  1       21 0.57562207E-02 0.45119695E+03</pdfrwt>
<pdfrwt beam="2">  1       21 0.19121284E+00 0.45119695E+03</pdfrwt>
<totfact> 0.28835145E+04</totfact>
</mgrwt>
</event>
<event>
 7    0  0.4766352E-002  0.4518341E+03  0.7546771E-02  0.1027177E+00
         21   -1    0    0  502  501  0.00000000000E+00  0.00000000000E+00  0.57322878863E+03  0.57322878863E+03  0.00000000000E+00 0. -1.
         21   -1    0    0  501  502 -0.00000000000E+00 -0.00000000000E+00 -0.89036886697E+02  0.89036886697E+02  0.00000000000E+00 0. -1.
      99926    2    1    2    0    0  0.00000000000E+00  0.00000000000E+00  0.48419190194E+03  0.66226567533E+03  0.45183407001E+03 0.  0.
      99925    2    3    3    0    0  0.26879535406E+02  0.10103256035E+03  0.25533521162E+03  0.38127994531E+03  0.26315060084E+03 0.  0.
         25    1    4    4    0    0 -0.16442934158E+02  0.53134211095E+02  0.16327634333E+03  0.21307343068E+03  0.12509000000E+03 0.  0.
         25    1    4    4    0    0  0.43322469564E+02  0.47898349258E+02  0.92058868295E+02  0.16820651463E+03  0.12509000000E+03 0.  0.
         25    1    3    3    0    0 -0.26879535406E+02 -0.10103256035E+03  0.22885669031E+03  0.28098573002E+03  0.12509000000E+03 0.  0.
<mgrwt>
<rscale>  2 0.45183407E+03</rscale>
<asrwt>0</asrwt>
<pdfrwt beam="1">  1       21 0.84298350E-01 0.45183407E+03</pdfrwt>
<pdfrwt beam="2">  1       21 0.13093660E-01 0.45183407E+03</pdfrwt>
<totfact> 0.56394288E+04</totfact>
</mgrwt>
</event>
<event>
 7    0  0.4766352E-002  0.4542073E+03  0.7546771E-02  0.1026475E+00
         21   -1    0    0  502  501  0.00000000000E+00  0.00000000000E+00  0.10076041086E+03  0.10076041086E+03  0.00000000000E+00 0. -1.
         21   -1    0    0  501  502 -0.00000000000E+00 -0.00000000000E+00 -0.51186842949E+03  0.51186842949E+03  0.00000000000E+00 0. -1.
      99926    2    1    2    0    0  0.14210854715E-13  0.35527136788E-14 -0.41110801863E+03  0.61262884036E+03  0.45420732387E+03 0.  0.
      99925    2    3    3    0    0  0.73841944090E+02  0.21163794284E+02 -0.36954569432E+03  0.46006582453E+03  0.26305133304E+03 0.  0.
         25    1    3    3    0    0 -0.73841944090E+02 -0.21163794284E+02 -0.41562324308E+02  0.15256301582E+03  0.12509000000E+03 0.  0.
         25    1    4    4    0    0  0.10813847700E+02 -0.73154256228E+01 -0.12836039486E+03  0.17970629878E+03  0.12509000000E+03 0.  0.
         25    1    4    4    0    0  0.63028096390E+02  0.28479219907E+02 -0.24118529946E+03  0.28035952575E+03  0.12509000000E+03 0.  0.
<mgrwt>
<rscale>  2 0.45420732E+03</rscale>
<asrwt>0</asrwt>
<pdfrwt beam="1">  1       21 0.14817708E-01 0.45420732E+03</pdfrwt>
<pdfrwt beam="2">  1       21 0.75274768E-01 0.45420732E+03</pdfrwt>
<totfact> 0.58271557E+04</totfact>
</mgrwt>
</event>
<event>
 7    0  0.4766352E-002  0.4289464E+03  0.7546771E-02  0.1034193E+00
         21   -1    0    0  502  501  0.00000000000E+00  0.00000000000E+00  0.50677528349E+03  0.50677528349E+03  0.00000000000E+00 0.  1.
         21   -1    0    0  501  502 -0.00000000000E+00 -0.00000000000E+00 -0.90767567242E+02  0.90767567242E+02  0.00000000000E+00 0.  1.
      99926    2    1    2    0    0  0.00000000000E+00 -0.14210854715E-13  0.41600771624E+03  0.59754285073E+03  0.42894642845E+03 0.  0.
      99925    2    3    3    0    0  0.62204245994E+01  0.80401452958E+02  0.31184869307E+03  0.41588466201E+03  0.26307291271E+03 0.  0.
         25    1    4    4    0    0  0.18928269201E+02  0.65248656601E+01  0.11650026690E+03  0.17210657610E+03  0.12509000000E+03 0.  0.
         25    1    4    4    0    0 -0.12707844601E+02  0.73876587298E+02  0.19534842617E+03  0.24377808591E+03  0.12509000000E+03 0.  0.
         25    1    3    3    0    0 -0.62204245994E+01 -0.80401452958E+02  0.10415902317E+03  0.18165818872E+03  0.12509000000E+03 0.  0.
<mgrwt>
<rscale>  2 0.42894643E+03</rscale>
<asrwt>0</asrwt>
<pdfrwt beam="1">  1       21 0.74525776E-01 0.42894643E+03</pdfrwt>
<pdfrwt beam="2">  1       21 0.13348172E-01 0.42894643E+03</pdfrwt>
<totfact> 0.72673251E+04</totfact>
</mgrwt>
</event>
<event>
 7    0  0.4766352E-002  0.4547226E+03  0.7546771E-02  0.1026323E+00
         21   -1    0    0  502  501  0.00000000000E+00  0.00000000000E+00  0.50109341703E+03  0.50109341703E+03  0.00000000000E+00 0.  1.
         21   -1    0    0  501  502 -0.00000000000E+00 -0.00000000000E+00 -0.10316072088E+03  0.10316072088E+03  0.00000000000E+00 0.  1.
      99926    2    1    2    0    0  0.00000000000E+00  0.17763568394E-14  0.39793269615E+03  0.60425413791E+03  0.45472258853E+03 0.  0.
      99925    2    3    3    0    0 -0.87328607296E+02  0.13103687980E+02  0.15603202769E+03  0.31796506408E+03  0.26259816455E+03 0.  0.
         25    1    4    4    0    0 -0.52050907768E+02  0.44741051661E+02  0.70066752539E+02  0.15895885195E+03  0.12509000000E+03 0.  0.
         25    1    4    4    0    0 -0.35277699528E+02 -0.31637363681E+02  0.85965275146E+02  0.15900621213E+03  0.12509000000E+03 0.  0.
         25    1    3    3    0    0  0.87328607296E+02 -0.13103687980E+02  0.24190066846E+03  0.28628907383E+03  0.12509000000E+03 0.  0.
<mgrwt>
<rscale>  2 0.45472259E+03</rscale>
<asrwt>0</asrwt>
<pdfrwt beam="1">  1       21 0.73690207E-01 0.45472259E+03</pdfrwt>
<pdfrwt beam="2">  1       21 0.15170694E-01 0.45472259E+03</pdfrwt>
<totfact> 0.58545381E+04</totfact>
</mgrwt>
</event>
<event>
 7    0  0.4766352E-002  0.4667638E+03  0.7546771E-02  0.1022838E+00
         21   -1    0    0  502  501  0.00000000000E+00  0.00000000000E+00  0.60793380929E+02  0.60793380929E+02  0.00000000000E+00 0. -1.
         21   -1    0    0  501  502 -0.00000000000E+00 -0.00000000000E+00 -0.89593832534E+03  0.89593832534E+03  0.00000000000E+00 0. -1.
      99926    2    1    2    0    0  0.00000000000E+00  0.00000000000E+00 -0.83514494441E+03  0.95673170627E+03  0.46676383708E+03 0.  0.
      99925    2    3    3    0    0 -0.35983013677E+02  0.76689829213E+01 -0.27748054675E+03  0.38402700130E+03  0.26292145848E+03 0.  0.
         25    1    4    4    0    0 -0.40914753106E+02 -0.62530652932E+01 -0.95595796617E+02  0.16278569433E+03  0.12509000000E+03 0.  0.
         25    1    4    4    0    0  0.49317394285E+01  0.13922048214E+02 -0.18188475013E+03  0.22124130697E+03  0.12509000000E+03 0.  0.
         25    1    3    3    0    0  0.35983013677E+02 -0.76689829213E+01 -0.55766439766E+03  0.57270470497E+03  0.12509000000E+03 0.  0.
<mgrwt>
<rscale>  2 0.46676384E+03</rscale>
<asrwt>0</asrwt>
<pdfrwt beam="1">  1       21 0.89402036E-02 0.46676384E+03</pdfrwt>
<pdfrwt beam="2">  1       21 0.13175563E+00 0.46676384E+03</pdfrwt>
<totfact> 0.37316532E+04</totfact>
</mgrwt>
</event>
<event>
 7    0  0.4766352E-002  0.4683736E+03  0.7546771E-02  0.1022380E+00
         21   -1    0    0  502  501  0.00000000000E+00  0.00000000000E+00  0.39966830534E+03  0.39966830534E+03  0.00000000000E+00 0.  1.
         21   -1    0    0  501  502 -0.00000000000E+00 -0.00000000000E+00 -0.13722245079E+03  0.13722245079E+03  0.00000000000E+00 0.  1.
      99926    2    1    2    0    0  0.11102230246E-15  0.00000000000E+00  0.26244585455E+03  0.53689075614E+03  0.46837363019E+03 0.  0.
      99925    2    3    3    0    0 -0.75126595534E+00  0.11319636496E+03  0.22480371199E+03  0.36403700166E+03  0.26300617524E+03 0.  0.
         25    1    3    3    0    0  0.75126595534E+00 -0.11319636496E+03  0.37642142557E+02  0.17285375447E+03  0.12509000000E+03 0.  0.
         25    1    4    4    0    0 -0.75647888758E+01  0.82905280024E+02  0.16099414972E+03  0.22022065260E+03  0.12509000000E+03 0.  0.
         25    1    4    4    0    0  0.68135229204E+01  0.30291084932E+02  0.63809562271E+02  0.14381634906E+03  0.12509000000E+03 0.  0.
<mgrwt>
<rscale>  2 0.46837363E+03</rscale>
<asrwt>0</asrwt>
<pdfrwt beam="1">  1       21 0.58774751E-01 0.46837363E+03</pdfrwt>
<pdfrwt beam="2">  1       21 0.20179772E-01 0.46837363E+03</pdfrwt>
<totfact> 0.56510360E+04</totfact>
</mgrwt>
</event>
<event>
 7    0  0.4766352E-002  0.4538817E+03  0.7546771E-02  0.1026571E+00
         21   -1    0    0  502  501  0.00000000000E+00  0.00000000000E+00  0.75263884701E+02  0.75263884701E+02  0.00000000000E+00 0.  1.
         21   -1    0    0  501  502 -0.00000000000E+00 -0.00000000000E+00 -0.68428759272E+03  0.68428759272E+03  0.00000000000E+00 0.  1.
      99926    2    1    2    0    0  0.00000000000E+00  0.00000000000E+00 -0.60902370802E+03  0.75955147742E+03  0.45388166952E+03 0.  0.
      99925    2    3    3    0    0  0.66305811112E+02 -0.60152276255E+02 -0.27018696021E+03  0.38743240147E+03  0.26284618185E+03 0.  0.
         25    1    4    4    0    0  0.31932261469E+02 -0.71252496952E+02 -0.14152126965E+03  0.20438288947E+03  0.12509000000E+03 0.  0.
         25    1    3    3    0    0 -0.66305811112E+02  0.60152276255E+02 -0.33883674781E+03  0.37211907596E+03  0.12509000000E+03 0.  0.
         25    1    4    4    0    0  0.34373549643E+02  0.11100220697E+02 -0.12866569057E+03  0.18304951200E+03  0.12509000000E+03 0.  0.
<mgrwt>
<rscale>  2 0.45388167E+03</rscale>
<asrwt>0</asrwt>
<pdfrwt beam="1">  1       21 0.11068219E-01 0.45388167E+03</pdfrwt>
<pdfrwt beam="2">  1       21 0.10063052E+00 0.45388167E+03</pdfrwt>
<totfact> 0.50222525E+04</totfact>
</mgrwt>
</event>
<event>
 7    0  0.4766352E-002  0.4517249E+03  0.7546771E-02  0.1027209E+00
         21   -1    0    0  502  501  0.00000000000E+00  0.00000000000E+00  0.11542070925E+03  0.11542070925E+03  0.00000000000E+00 0.  1.
         21   -1    0    0  501  502 -0.00000000000E+00 -0.00000000000E+00 -0.44198171414E+03  0.44198171414E+03  0.00000000000E+00 0.  1.
      99926    2    1    2    0    0  0.14210854715E-13  0.00000000000E+00 -0.32656100489E+03  0.55740242338E+03  0.45172488495E+03 0.  0.
      99925    2    3    3    0    0 -0.87850039694E+02 -0.39813759406E+02 -0.14050066452E+03  0.31333537671E+03  0.26293698229E+03 0.  0.
         25    1    4    4    0    0 -0.25944659014E+02 -0.17420175892E+02 -0.26245279731E+02  0.13157853422E+03  0.12509000000E+03 0.  0.
         25    1    4    4    0    0 -0.61905380680E+02 -0.22393583513E+02 -0.11425538479E+03  0.18175684249E+03  0.12509000000E+03 0.  0.
         25    1    3    3    0    0  0.87850039694E+02  0.39813759406E+02 -0.18606034037E+03  0.24406704667E+03  0.12509000000E+03 0.  0.
<mgrwt>
<rscale>  2 0.45172488E+03</rscale>
<asrwt>0</asrwt>
<pdfrwt beam="1">  1       21 0.16973634E-01 0.45172488E+03</pdfrwt>
<pdfrwt beam="2">  1       21 0.64997310E-01 0.45172488E+03</pdfrwt>
<totfact> 0.62996259E+04</totfact>
</mgrwt>
</event>
<event>
 7    0  0.4766352E-002  0.4385811E+03  0.7546771E-02  0.1031183E+00
         21   -1    0    0  502  501  0.00000000000E+00  0.00000000000E+00  0.30331918273E+03  0.30331918273E+03  0.00000000000E+00 0.  1.
         21   -1    0    0  501  502 -0.00000000000E+00 -0.00000000000E+00 -0.15854042842E+03  0.15854042842E+03  0.00000000000E+00 0.  1.
      99926    2    1    2    0    0  0.00000000000E+00  0.00000000000E+00  0.14477875430E+03  0.46185961115E+03  0.43858113584E+03 0.  0.
      99925    2    3    3    0    0 -0.73152412370E+01  0.23503582421E+02  0.19113756273E+03  0.32620350786E+03  0.26319048143E+03 0.  0.
         25    1    3    3    0    0  0.73152412370E+01 -0.23503582421E+02 -0.46358808425E+02  0.13565610329E+03  0.12509000000E+03 0.  0.
         25    1    4    4    0    0 -0.20749741985E+02 -0.16771670598E+02  0.12349587154E+03  0.17779364194E+03  0.12509000000E+03 0.  0.
         25    1    4    4    0    0  0.13434500747E+02  0.40275253019E+02  0.67641691186E+02  0.14840986592E+03  0.12509000000E+03 0.  0.
<mgrwt>
<rscale>  2 0.43858114E+03</rscale>
<asrwt>0</asrwt>
<pdfrwt beam="1">  1       21 0.44605762E-01 0.43858114E+03</pdfrwt>
<pdfrwt beam="2">  1       21 0.23314769E-01 0.43858114E+03</pdfrwt>
<totfact> 0.77683483E+04</totfact>
</mgrwt>
</event>
<event>
 7    0  0.4766352E-002  0.4545320E+03  0.7546771E-02  0.1026379E+00
         21   -1    0    0  502  501  0.00000000000E+00  0.00000000000E+00  0.85089760064E+03  0.85089760064E+03  0.00000000000E+00 0. -1.
         21   -1    0    0  501  502 -0.00000000000E+00 -0.00000000000E+00 -0.60700408476E+02  0.60700408476E+02  0.00000000000E+00 0. -1.
      99926    2    1    2    0    0  0.00000000000E+00 -0.14210854715E-13  0.79019719216E+03  0.91159800912E+03  0.45453198757E+03 0.  0.
      99925    2    3    3    0    0 -0.16407705165E+02 -0.11060638067E+03  0.52617739763E+03  0.59877706314E+03  0.26299873258E+03 0.  0.
         25    1    4    4    0    0  0.17116470799E+02 -0.88412239960E+02  0.29663048776E+03  0.33428558467E+03  0.12509000000E+03 0.  0.
         25    1    3    3    0    0  0.16407705165E+02  0.11060638067E+03  0.26401979454E+03  0.31282094598E+03  0.12509000000E+03 0.  0.
         25    1    4    4    0    0 -0.33524175964E+02 -0.22194140711E+02  0.22954690987E+03  0.26449147848E+03  0.12509000000E+03 0.  0.
<mgrwt>
<rscale>  2 0.45453199E+03</rscale>
<asrwt>0</asrwt>
<pdfrwt beam="1">  1       21 0.12513199E+00 0.45453199E+03</pdfrwt>
<pdfrwt beam="2">  1       21 0.89265312E-02 0.45453199E+03</pdfrwt>
<totfact> 0.42893029E+04</totfact>
</mgrwt>
</event>
<event>
 7    0  0.4766352E-002  0.4585698E+03  0.7546771E-02  0.1025197E+00
         21   -1    0    0  502  501  0.00000000000E+00  0.00000000000E+00  0.26497036508E+02  0.26497036508E+02  0.00000000000E+00 0. -1.
         21   -1    0    0  501  502 -0.00000000000E+00 -0.00000000000E+00 -0.19840548056E+04  0.19840548056E+04  0.00000000000E+00 0. -1.
      99926    2    1    2    0    0  0.00000000000E+00  0.00000000000E+00 -0.19575577691E+04  0.20105518422E+04  0.45856983162E+03 0.  0.
      99925    2    3    3    0    0  0.81451564811E+02 -0.83258901393E+02 -0.12368033437E+04  0.12698083967E+04  0.26299135216E+03 0.  0.
         25    1    4    4    0    0  0.22430490489E+00 -0.29573679977E+02 -0.51418256618E+03  0.53000553990E+03  0.12509000000E+03 0.  0.
         25    1    3    3    0    0 -0.81451564811E+02  0.83258901393E+02 -0.72075442546E+03  0.74074344546E+03  0.12509000000E+03 0.  0.
         25    1    4    4    0    0  0.81227259906E+02 -0.53685221416E+02 -0.72262077749E+03  0.73980285679E+03  0.12509000000E+03 0.  0.
<mgrwt>
<rscale>  2 0.45856983E+03</rscale>
<asrwt>0</asrwt>
<pdfrwt beam="1">  1       21 0.38966225E-02 0.45856983E+03</pdfrwt>
<pdfrwt beam="2">  1       21 0.29177281E+00 0.45856983E+03</pdfrwt>
<totfact> 0.13169409E+04</totfact>
</mgrwt>
</event>
<event>
 7    0  0.4766352E-002  0.3976768E+03  0.7546771E-02  0.1044587E+00
         21   -1    0    0  502  501  0.00000000000E+00  0.00000000000E+00  0.12533277074E+03  0.12533277074E+03  0.00000000000E+00 0.  1.
         21   -1    0    0  501  502 -0.00000000000E+00 -0.00000000000E+00 -0.31545387035E+03  0.31545387035E+03  0.00000000000E+00 0.  1.
      99926    2    1    2    0    0  0.00000000000E+00  0.00000000000E+00 -0.19012109962E+03  0.44078664109E+03  0.39767679143E+03 0.  0.
      99925    2    3    3    0    0  0.19546181842E+02 -0.35014739164E+02 -0.12016662618E+03  0.29196049541E+03  0.26304529581E+03 0.  0.
         25    1    3    3    0    0 -0.19546181842E+02  0.35014739164E+02 -0.69954473433E+02  0.14882614568E+03  0.12509000000E+03 0.  0.
         25    1    4    4    0    0 -0.72292592348E+01 -0.53451479352E+02 -0.71576661092E+02  0.15388323283E+03  0.12509000000E+03 0.  0.
         25    1    4    4    0    0  0.26775441077E+02  0.18436740188E+02 -0.48589965092E+02  0.13807726258E+03  0.12509000000E+03 0.  0.
<mgrwt>
<rscale>  2 0.39767679E+03</rscale>
<asrwt>0</asrwt>
<pdfrwt beam="1">  1       21 0.18431290E-01 0.39767679E+03</pdfrwt>
<pdfrwt beam="2">  1       21 0.46390274E-01 0.39767679E+03</pdfrwt>
<totfact> 0.11295461E+05</totfact>
</mgrwt>
</event>
<event>
 7    0  0.4766352E-002  0.4565454E+03  0.7546771E-02  0.1025788E+00
         21   -1    0    0  502  501  0.00000000000E+00  0.00000000000E+00  0.11598986942E+03  0.11598986942E+03  0.00000000000E+00 0.  1.
         21   -1    0    0  501  502 -0.00000000000E+00 -0.00000000000E+00 -0.44924971087E+03  0.44924971087E+03  0.00000000000E+00 0.  1.
      99926    2    1    2    0    0 -0.71054273576E-14 -0.88817841970E-15 -0.33325984145E+03  0.56523958029E+03  0.45654535503E+03 0.  0.
      99925    2    3    3    0    0  0.52501398542E+02  0.32637821749E+01 -0.33521625004E+03  0.42952523043E+03  0.26335326116E+03 0.  0.
         25    1    4    4    0    0  0.35788597100E+02 -0.34411447676E+02 -0.19723698359E+03  0.23877794540E+03  0.12509000000E+03 0.  0.
         25    1    3    3    0    0 -0.52501398542E+02 -0.32637821749E+01  0.19564085860E+01  0.13571434986E+03  0.12509000000E+03 0.  0.
         25    1    4    4    0    0  0.16712801443E+02  0.37675229851E+02 -0.13797926645E+03  0.19074728503E+03  0.12509000000E+03 0.  0.
<mgrwt>
<rscale>  2 0.45654536E+03</rscale>
<asrwt>0</asrwt>
<pdfrwt beam="1">  1       21 0.17057334E-01 0.45654536E+03</pdfrwt>
<pdfrwt beam="2">  1       21 0.66066134E-01 0.45654536E+03</pdfrwt>
<totfact> 0.60132249E+04</totfact>
</mgrwt>
</event>
<event>
 7    0  0.4766352E-002  0.4623212E+03  0.7546771E-02  0.1024110E+00
         21   -1    0    0  502  501  0.00000000000E+00  0.00000000000E+00  0.31174076155E+03  0.31174076155E+03  0.00000000000E+00 0.  1.
         21   -1    0    0  501  502 -0.00000000000E+00 -0.00000000000E+00 -0.17140917323E+03  0.17140917323E+03  0.00000000000E+00 0.  1.
      99926    2    1    2    0    0  0.35527136788E-14  0.17763568394E-14  0.14033158832E+03  0.48314993477E+03  0.46232121387E+03 0.  0.
      99925    2    3    3    0    0 -0.26072157608E+02  0.37055495642E+01 -0.34418625410E+02  0.26663519209E+03  0.26308970977E+03 0.  0.
         25    1    4    4    0    0  0.22005227215E+02 -0.18751766779E+02 -0.21014447586E+02  0.13009601796E+03  0.12509000000E+03 0.  0.
         25    1    3    3    0    0  0.26072157608E+02 -0.37055495642E+01  0.17475021373E+03  0.21651474268E+03  0.12509000000E+03 0.  0.
         25    1    4    4    0    0 -0.48077384823E+02  0.22457316343E+02 -0.13404177824E+02  0.13653917413E+03  0.12509000000E+03 0.  0.
<mgrwt>
<rscale>  2 0.46232121E+03</rscale>
<asrwt>0</asrwt>
<pdfrwt beam="1">  1       21 0.45844230E-01 0.46232121E+03</pdfrwt>
<pdfrwt beam="2">  1       21 0.25207231E-01 0.46232121E+03</pdfrwt>
<totfact> 0.62745384E+04</totfact>
</mgrwt>
</event>
<event>
 7    0  0.4766352E-002  0.4590507E+03  0.7546771E-02  0.1025057E+00
         21   -1    0    0  502  501  0.00000000000E+00  0.00000000000E+00  0.55826368278E+03  0.55826368278E+03  0.00000000000E+00 0.  1.
         21   -1    0    0  501  502 -0.00000000000E+00 -0.00000000000E+00 -0.94367373642E+02  0.94367373642E+02  0.00000000000E+00 0.  1.
      99926    2    1    2    0    0  0.00000000000E+00  0.00000000000E+00  0.46389630914E+03  0.65263105642E+03  0.45905066188E+03 0.  0.
      99925    2    3    3    0    0 -0.11130410626E+03  0.32912375668E+02  0.26893144209E+03  0.39353525170E+03  0.26281941565E+03 0.  0.
         25    1    3    3    0    0  0.11130410626E+03 -0.32912375668E+02  0.19496486704E+03  0.25909580472E+03  0.12509000000E+03 0.  0.
         25    1    4    4    0    0 -0.43779641170E+02  0.33552348789E+02  0.17933860760E+03  0.22550445975E+03  0.12509000000E+03 0.  0.
         25    1    4    4    0    0 -0.67524465091E+02 -0.63997312171E+00  0.89592834491E+02  0.16803079195E+03  0.12509000000E+03 0.  0.
<mgrwt>
<rscale>  2 0.45905066E+03</rscale>
<asrwt>0</asrwt>
<pdfrwt beam="1">  1       21 0.82097599E-01 0.45905066E+03</pdfrwt>
<pdfrwt beam="2">  1       21 0.13877555E-01 0.45905066E+03</pdfrwt>
<totfact> 0.53810010E+04</totfact>
</mgrwt>
</event>
<event>
 7    0  0.4766352E-002  0.4694813E+03  0.7546771E-02  0.1022067E+00
         21   -1    0    0  502  501  0.00000000000E+00  0.00000000000E+00  0.25373195320E+03  0.25373195320E+03  0.00000000000E+00 0.  1.
         21   -1    0    0  501  502 -0.00000000000E+00 -0.00000000000E+00 -0.21717076786E+03  0.21717076786E+03  0.00000000000E+00 0.  1.
      99926    2    1    2    0    0 -0.71054273576E-14  0.00000000000E+00  0.36561185336E+02  0.47090272106E+03  0.46948125887E+03 0.  0.
      99925    2    3    3    0    0 -0.60607654404E+02 -0.41466714623E+02 -0.80234641422E+02  0.28467289144E+03  0.26307466857E+03 0.  0.
         25    1    3    3    0    0  0.60607654404E+02  0.41466714623E+02  0.11679582676E+03  0.18622982962E+03  0.12509000000E+03 0.  0.
         25    1    4    4    0    0 -0.71098920476E+02 -0.13453005538E+02 -0.43170319263E+02  0.15082183004E+03  0.12509000000E+03 0.  0.
         25    1    4    4    0    0  0.10491266072E+02 -0.28013709085E+02 -0.37064322158E+02  0.13385106140E+03  0.12509000000E+03 0.  0.
<mgrwt>
<rscale>  2 0.46948126E+03</rscale>
<asrwt>0</asrwt>
<pdfrwt beam="1">  1       21 0.37313523E-01 0.46948126E+03</pdfrwt>
<pdfrwt beam="2">  1       21 0.31936877E-01 0.46948126E+03</pdfrwt>
<totfact> 0.60141117E+04</totfact>
</mgrwt>
</event>
<event>
 7    0  0.4766352E-002  0.4536112E+03  0.7546771E-02  0.1026651E+00
         21   -1    0    0  502  501  0.00000000000E+00  0.00000000000E+00  0.35609218554E+03  0.35609218554E+03  0.00000000000E+00 0. -1.
         21   -1    0    0  501  502 -0.00000000000E+00 -0.00000000000E+00 -0.14445919790E+03  0.14445919790E+03  0.00000000000E+00 0. -1.
      99926    2    1    2    0    0  0.35527136788E-14  0.14210854715E-13  0.21163298763E+03  0.50055138344E+03  0.45361124987E+03 0.  0.
      99925    2    3    3    0    0  0.21267918174E+02  0.10999246886E+03  0.12412232655E+03  0.31119380780E+03  0.26245869488E+03 0.  0.
         25    1    4    4    0    0 -0.27033615576E+02  0.43336602703E+02  0.49622560210E+02  0.14394021011E+03  0.12509000000E+03 0.  0.
         25    1    3    3    0    0 -0.21267918174E+02 -0.10999246886E+03  0.87510661086E+02  0.18935757564E+03  0.12509000000E+03 0.  0.
         25    1    4    4    0    0  0.48301533750E+02  0.66655866157E+02  0.74499766339E+02  0.16725359769E+03  0.12509000000E+03 0.  0.
<mgrwt>
<rscale>  2 0.45361125E+03</rscale>
<asrwt>0</asrwt>
<pdfrwt beam="1">  1       21 0.52366498E-01 0.45361125E+03</pdfrwt>
<pdfrwt beam="2">  1       21 0.21244000E-01 0.45361125E+03</pdfrwt>
<totfact> 0.65956030E+04</totfact>
</mgrwt>
</event>
<event>
 7    0  0.4766352E-002  0.4831937E+03  0.7546771E-02  0.1018261E+00
         21   -1    0    0  502  501  0.00000000000E+00  0.00000000000E+00  0.28554587258E+03  0.28554587258E+03  0.00000000000E+00 0.  1.
         21   -1    0    0  501  502 -0.00000000000E+00 -0.00000000000E+00 -0.20441211687E+03  0.20441211687E+03  0.00000000000E+00 0.  1.
      99926    2    1    2    0    0  0.00000000000E+00  0.14210854715E-13  0.81133755712E+02  0.48995798946E+03  0.48319369317E+03 0.  0.
      99925    2    3    3    0    0 -0.77190816411E+02  0.10440463265E+03  0.97296012885E+02  0.30894010052E+03  0.26290439732E+03 0.  0.
         25    1    4    4    0    0 -0.12684799953E+02  0.25013851934E+02  0.66588027795E+02  0.14445785020E+03  0.12509000000E+03 0.  0.
         25    1    3    3    0    0  0.77190816411E+02 -0.10440463265E+03 -0.16162257173E+02  0.18101788894E+03  0.12509000000E+03 0.  0.
         25    1    4    4    0    0 -0.64506016458E+02  0.79390780721E+02  0.30707985090E+02  0.16448225032E+03  0.12509000000E+03 0.  0.
<mgrwt>
<rscale>  2 0.48319369E+03</rscale>
<asrwt>0</asrwt>
<pdfrwt beam="1">  1       21 0.41992040E-01 0.48319369E+03</pdfrwt>
<pdfrwt beam="2">  1       21 0.30060605E-01 0.48319369E+03</pdfrwt>
<totfact> 0.53067814E+04</totfact>
</mgrwt>
</event>
<event>
 7    0  0.4766352E-002  0.4453117E+03  0.7546771E-02  0.1029129E+00
         21   -1    0    0  502  501  0.00000000000E+00  0.00000000000E+00  0.58783839934E+03  0.58783839934E+03  0.00000000000E+00 0.  1.
         21   -1    0    0  501  502 -0.00000000000E+00 -0.00000000000E+00 -0.84335466659E+02  0.84335466659E+02  0.00000000000E+00 0.  1.
      99926    2    1    2    0    0 -0.14210854715E-13  0.00000000000E+00  0.50350293268E+03  0.67217386600E+03  0.44531169186E+03 0.  0.
      99925    2    3    3    0    0  0.68033102560E+02 -0.68716983822E+02  0.26276800482E+03  0.38416112235E+03  0.26302512553E+03 0.  0.
         25    1    3    3    0    0 -0.68033102560E+02  0.68716983822E+02  0.24073492786E+03  0.28801274364E+03  0.12509000000E+03 0.  0.
         25    1    4    4    0    0 -0.63751407728E+01 -0.24099923743E+02  0.10893821822E+03  0.16773935803E+03  0.12509000000E+03 0.  0.
         25    1    4    4    0    0  0.74408243333E+02 -0.44617060079E+02  0.15382978660E+03  0.21642176432E+03  0.12509000000E+03 0.  0.
<mgrwt>
<rscale>  2 0.44531169E+03</rscale>
<asrwt>0</asrwt>
<pdfrwt beam="1">  1       21 0.86446822E-01 0.44531169E+03</pdfrwt>
<pdfrwt beam="2">  1       21 0.12402275E-01 0.44531169E+03</pdfrwt>
<totfact> 0.58800615E+04</totfact>
</mgrwt>
</event>
<event>
 7    0  0.4766352E-002  0.4554763E+03  0.7546771E-02  0.1026101E+00
         21   -1    0    0  502  501  0.00000000000E+00  0.00000000000E+00  0.11464120317E+04  0.11464120317E+04  0.00000000000E+00 0.  1.
         21   -1    0    0  501  502 -0.00000000000E+00 -0.00000000000E+00 -0.45240863175E+02  0.45240863175E+02  0.00000000000E+00 0.  1.
      99926    2    1    2    0    0 -0.17763568394E-14  0.00000000000E+00  0.11011711685E+04  0.11916528949E+04  0.45547632153E+03 0.  0.
      99925    2    3    3    0    0 -0.54860758527E+01  0.99767225350E+02  0.55143197414E+03  0.61907601250E+03  0.26304807711E+03 0.  0.
         25    1    4    4    0    0 -0.23837362197E+02  0.13948336757E+02  0.26953148038E+03  0.29842503740E+03  0.12509000000E+03 0.  0.
         25    1    4    4    0    0  0.18351286344E+02  0.85818888593E+02  0.28190049376E+03  0.32065097510E+03  0.12509000000E+03 0.  0.
         25    1    3    3    0    0  0.54860758527E+01 -0.99767225350E+02  0.54973919441E+03  0.57257688239E+03  0.12509000000E+03 0.  0.
<mgrwt>
<rscale>  2 0.45547632E+03</rscale>
<asrwt>0</asrwt>
<pdfrwt beam="1">  1       21 0.16858999E+00 0.45547632E+03</pdfrwt>
<pdfrwt beam="2">  1       21 0.66530689E-02 0.45547632E+03</pdfrwt>
<totfact> 0.32301595E+04</totfact>
</mgrwt>
</event>
<event>
 7    0  0.4766352E-002  0.4360902E+03  0.7546771E-02  0.1031953E+00
         21   -1    0    0  502  501  0.00000000000E+00  0.00000000000E+00  0.22304722476E+03  0.22304722476E+03  0.00000000000E+00 0.  1.
         21   -1    0    0  501  502 -0.00000000000E+00 -0.00000000000E+00 -0.21315512018E+03  0.21315512018E+03  0.00000000000E+00 0.  1.
      99926    2    1    2    0    0  0.14210854715E-13  0.17763568394E-14  0.98921045764E+01  0.43620234494E+03  0.43609016499E+03 0.  0.
      99925    2    3    3    0    0  0.92970711190E+02 -0.15856871187E+02  0.22687289546E+01  0.27935650515E+03  0.26294470205E+03 0.  0.
         25    1    3    3    0    0 -0.92970711190E+02  0.15856871187E+02  0.76233756218E+01  0.15684583979E+03  0.12509000000E+03 0.  0.
         25    1    4    4    0    0  0.80578772215E+01 -0.17404669716E+02 -0.13834893833E+02  0.12730579052E+03  0.12509000000E+03 0.  0.
         25    1    4    4    0    0  0.84912833968E+02  0.15477985289E+01  0.16103622788E+02  0.15205071463E+03  0.12509000000E+03 0.  0.
<mgrwt>
<rscale>  2 0.43609016E+03</rscale>
<asrwt>0</asrwt>
<pdfrwt beam="1">  1       21 0.32801063E-01 0.43609016E+03</pdfrwt>
<pdfrwt beam="2">  1       21 0.31346341E-01 0.43609016E+03</pdfrwt>
<totfact> 0.81576227E+04</totfact>
</mgrwt>
</event>
<event>
 7    0  0.4766352E-002  0.4486230E+03  0.7546771E-02  0.1028133E+00
         21   -1    0    0  502  501  0.00000000000E+00  0.00000000000E+00  0.62271430144E+03  0.62271430144E+03  0.00000000000E+00 0.  1.
         21   -1    0    0  501  502 -0.00000000000E+00 -0.00000000000E+00 -0.80800544087E+02  0.80800544087E+02  0.00000000000E+00 0.  1.
      99926    2    1    2    0    0  0.14210854715E-13  0.00000000000E+00  0.54191375735E+03  0.70351484552E+03  0.44862302378E+03 0.  0.
      99925    2    3    3    0    0  0.92033153400E+02 -0.54626125519E+02  0.33995696464E+03  0.44296126344E+03  0.26303959434E+03 0.  0.
         25    1    4    4    0    0  0.15998512558E+02  0.26990888856E+01  0.13675274303E+03  0.18604316250E+03  0.12509000000E+03 0.  0.
         25    1    4    4    0    0  0.76034640842E+02 -0.57325214404E+02  0.20320422161E+03  0.25691810094E+03  0.12509000000E+03 0.  0.
         25    1    3    3    0    0 -0.92033153400E+02  0.54626125519E+02  0.20195679271E+03  0.26055358208E+03  0.12509000000E+03 0.  0.
<mgrwt>
<rscale>  2 0.44862302E+03</rscale>
<asrwt>0</asrwt>
<pdfrwt beam="1">  1       21 0.91575630E-01 0.44862302E+03</pdfrwt>
<pdfrwt beam="2">  1       21 0.11882433E-01 0.44862302E+03</pdfrwt>
<totfact> 0.55442710E+04</totfact>
</mgrwt>
</event>
<event>
 7    0  0.4766352E-002  0.4557258E+03  0.7546771E-02  0.1026028E+00
         21   -1    0    0  502  501  0.00000000000E+00  0.00000000000E+00  0.67299858234E+03  0.67299858234E+03  0.00000000000E+00 0. -1.
         21   -1    0    0  501  502 -0.00000000000E+00 -0.00000000000E+00 -0.77149493184E+02  0.77149493184E+02  0.00000000000E+00 0. -1.
      99926    2    1    2    0    0  0.00000000000E+00 -0.29976021665E-14  0.59584908915E+03  0.75014807552E+03  0.45572579273E+03 0.  0.
      99925    2    3    3    0    0  0.63892170147E+02  0.58680128519E+00  0.21963181977E+03  0.34856434126E+03  0.26301408707E+03 0.  0.
         25    1    4    4    0    0  0.50080840010E+02  0.32878602090E+02  0.13469766065E+03  0.19333923786E+03  0.12509000000E+03 0.  0.
         25    1    4    4    0    0  0.13811330137E+02 -0.32291800805E+02  0.84934159113E+02  0.15522510339E+03  0.12509000000E+03 0.  0.
         25    1    3    3    0    0 -0.63892170147E+02 -0.58680128519E+00  0.37621726939E+03  0.40158373426E+03  0.12509000000E+03 0.  0.
<mgrwt>
<rscale>  2 0.45572579E+03</rscale>
<asrwt>0</asrwt>
<pdfrwt beam="1">  1       21 0.98970377E-01 0.45572579E+03</pdfrwt>
<pdfrwt beam="2">  1       21 0.11345514E-01 0.45572579E+03</pdfrwt>
<totfact> 0.49977672E+04</totfact>
</mgrwt>
</event>
<event>
 7    0  0.4766352E-002  0.4641268E+03  0.7546771E-02  0.1023591E+00
         21   -1    0    0  502  501  0.00000000000E+00  0.00000000000E+00  0.68362101617E+02  0.68362101617E+02  0.00000000000E+00 0.  1.
         21   -1    0    0  501  502 -0.00000000000E+00 -0.00000000000E+00 -0.78776726983E+03  0.78776726983E+03  0.00000000000E+00 0.  1.
      99926    2    1    2    0    0  0.00000000000E+00  0.00000000000E+00 -0.71940516821E+03  0.85612937144E+03  0.46412681952E+03 0.  0.
      99925    2    3    3    0    0  0.52395374906E+02  0.96646920806E+02 -0.54421552452E+03  0.61441710041E+03  0.26315762108E+03 0.  0.
         25    1    4    4    0    0  0.26059724593E+02  0.34369614658E+02 -0.17978369722E+03  0.22322648934E+03  0.12509000000E+03 0.  0.
         25    1    3    3    0    0 -0.52395374906E+02 -0.96646920806E+02 -0.17518964369E+03  0.24171227104E+03  0.12509000000E+03 0.  0.
         25    1    4    4    0    0  0.26335650313E+02  0.62277306148E+02 -0.36443182730E+03  0.39119061106E+03  0.12509000000E+03 0.  0.
<mgrwt>
<rscale>  2 0.46412682E+03</rscale>
<asrwt>0</asrwt>
<pdfrwt beam="1">  1       21 0.10053250E-01 0.46412682E+03</pdfrwt>
<pdfrwt beam="2">  1       21 0.11584813E+00 0.46412682E+03</pdfrwt>
<totfact> 0.42072482E+04</totfact>
</mgrwt>
</event>
<event>
 7    0  0.4766352E-002  0.4450670E+03  0.7546771E-02  0.1029203E+00
         21   -1    0    0  502  501  0.00000000000E+00  0.00000000000E+00  0.14494925784E+04  0.14494925784E+04  0.00000000000E+00 0.  1.
         21   -1    0    0  501  502 -0.00000000000E+00 -0.00000000000E+00 -0.34164474817E+02  0.34164474817E+02  0.00000000000E+00 0.  1.
      99926    2    1    2    0    0  0.71054273576E-14  0.00000000000E+00  0.14153281036E+04  0.14836570532E+04  0.44506697335E+03 0.  0.
      99925    2    3    3    0    0  0.62547571206E+02 -0.76509662611E+02  0.79558849444E+03  0.84374251332E+03  0.26301035940E+03 0.  0.
         25    1    3    3    0    0 -0.62547571206E+02  0.76509662611E+02  0.61973960916E+03  0.63991453992E+03  0.12509000000E+03 0.  0.
         25    1    4    4    0    0  0.66593248335E+02 -0.35929754299E+02  0.35488120871E+03  0.38381478393E+03  0.12509000000E+03 0.  0.
         25    1    4    4    0    0 -0.40456771288E+01 -0.40579908313E+02  0.44070728574E+03  0.45992772939E+03  0.12509000000E+03 0.  0.
<mgrwt>
<rscale>  2 0.44506697E+03</rscale>
<asrwt>0</asrwt>
<pdfrwt beam="1">  1       21 0.21316063E+00 0.44506697E+03</pdfrwt>
<pdfrwt beam="2">  1       21 0.50241884E-02 0.44506697E+03</pdfrwt>
<totfact> 0.26142198E+04</totfact>
</mgrwt>
</event>
<event>
 7    0  0.4766352E-002  0.4534689E+03  0.7546771E-02  0.1026693E+00
         21   -1    0    0  502  501  0.00000000000E+00  0.00000000000E+00  0.80983246484E+02  0.80983246484E+02  0.00000000000E+00 0.  1.
         21   -1    0    0  501  502 -0.00000000000E+00 -0.00000000000E+00 -0.63480436553E+03  0.63480436553E+03  0.00000000000E+00 0.  1.
      99926    2    1    2    0    0  0.00000000000E+00  0.00000000000E+00 -0.55382111905E+03  0.71578761201E+03  0.45346893346E+03 0.  0.
      99925    2    3    3    0    0  0.69308435400E+02 -0.84917455729E+02 -0.31100195894E+03  0.42146927055E+03  0.26248713121E+03 0.  0.
         25    1    3    3    0    0 -0.69308435400E+02  0.84917455729E+02 -0.24281916011E+03  0.29431834146E+03  0.12509000000E+03 0.  0.
         25    1    4    4    0    0  0.42390587179E+01 -0.56988057783E+02 -0.12068772758E+03  0.18297170283E+03  0.12509000000E+03 0.  0.
         25    1    4    4    0    0  0.65069376682E+02 -0.27929397946E+02 -0.19031423136E+03  0.23849756772E+03  0.12509000000E+03 0.  0.
<mgrwt>
<rscale>  2 0.45346893E+03</rscale>
<asrwt>0</asrwt>
<pdfrwt beam="1">  1       21 0.11909301E-01 0.45346893E+03</pdfrwt>
<pdfrwt beam="2">  1       21 0.93353581E-01 0.45346893E+03</pdfrwt>
<totfact> 0.52685880E+04</totfact>
</mgrwt>
</event>
<event>
 7    0  0.4766352E-002  0.4580794E+03  0.7546771E-02  0.1025340E+00
         21   -1    0    0  502  501  0.00000000000E+00  0.00000000000E+00  0.35331555481E+03  0.35331555481E+03  0.00000000000E+00 0.  1.
         21   -1    0    0  501  502 -0.00000000000E+00 -0.00000000000E+00 -0.14847685302E+03  0.14847685302E+03  0.00000000000E+00 0.  1.
      99926    2    1    2    0    0  0.71054273576E-14  0.14210854715E-13  0.20483870179E+03  0.50179240783E+03  0.45807938920E+03 0.  0.
      99925    2    3    3    0    0  0.58491072353E+02  0.10016552630E+03  0.12505315324E+03  0.31346402425E+03  0.26299632157E+03 0.  0.
         25    1    3    3    0    0 -0.58491072353E+02 -0.10016552630E+03  0.79785548549E+02  0.18832838358E+03  0.12509000000E+03 0.  0.
         25    1    4    4    0    0  0.19045530617E+02  0.25642076247E+02  0.22495386817E+02  0.13104884142E+03  0.12509000000E+03 0.  0.
         25    1    4    4    0    0  0.39445541736E+02  0.74523450058E+02  0.10255776643E+03  0.18241518283E+03  0.12509000000E+03 0.  0.
<mgrwt>
<rscale>  2 0.45807939E+03</rscale>
<asrwt>0</asrwt>
<pdfrwt beam="1">  1       21 0.51958170E-01 0.45807939E+03</pdfrwt>
<pdfrwt beam="2">  1       21 0.21834831E-01 0.45807939E+03</pdfrwt>
<totfact> 0.63576566E+04</totfact>
</mgrwt>
</event>
<event>
 7    0  0.4766352E-002  0.4574377E+03  0.7546771E-02  0.1025527E+00
         21   -1    0    0  502  501  0.00000000000E+00  0.00000000000E+00  0.13329247578E+04  0.13329247578E+04  0.00000000000E+00 0.  1.
         21   -1    0    0  501  502 -0.00000000000E+00 -0.00000000000E+00 -0.39246265023E+02  0.39246265023E+02  0.00000000000E+00 0.  1.
      99926    2    1    2    0    0  0.00000000000E+00  0.00000000000E+00  0.12936784927E+04  0.13721710228E+04  0.45743772603E+03 0.  0.
      99925    2    3    3    0    0 -0.10756390795E+03 -0.41086820341E+02  0.78611241960E+03  0.83688703479E+03  0.26296207266E+03 0.  0.
         25    1    4    4    0    0 -0.57929064812E+02 -0.39549976561E+02  0.30047707444E+03  0.33294737957E+03  0.12509000000E+03 0.  0.
         25    1    4    4    0    0 -0.49634843137E+02 -0.15368437793E+01  0.48563534515E+03  0.50393965522E+03  0.12509000000E+03 0.  0.
         25    1    3    3    0    0  0.10756390795E+03  0.41086820341E+02  0.50756607315E+03  0.53528398800E+03  0.12509000000E+03 0.  0.
<mgrwt>
<rscale>  2 0.45743773E+03</rscale>
<asrwt>0</asrwt>
<pdfrwt beam="1">  1       21 0.19601832E+00 0.45743773E+03</pdfrwt>
<pdfrwt beam="2">  1       21 0.57715104E-02 0.45743773E+03</pdfrwt>
<totfact> 0.26576035E+04</totfact>
</mgrwt>
</event>
<event>
 7    0  0.4766352E-002  0.4579865E+03  0.7546771E-02  0.1025367E+00
         21   -1    0    0  502  501  0.00000000000E+00  0.00000000000E+00  0.14975363614E+03  0.14975363614E+03  0.00000000000E+00 0.  1.
         21   -1    0    0  501  502 -0.00000000000E+00 -0.00000000000E+00 -0.35016119596E+03  0.35016119596E+03  0.00000000000E+00 0.  1.
      99926    2    1    2    0    0 -0.35527136788E-14  0.14210854715E-13 -0.20040755982E+03  0.49991483209E+03  0.45798651652E+03 0.  0.
      99925    2    3    3    0    0  0.79050627515E+01 -0.64364219697E+02 -0.23065017840E+03  0.35580596049E+03  0.26304587800E+03 0.  0.
         25    1    4    4    0    0  0.36755671136E+02 -0.43504387672E+02 -0.14659253963E+03  0.20094897831E+03  0.12509000000E+03 0.  0.
         25    1    4    4    0    0 -0.28850608384E+02 -0.20859832024E+02 -0.84057638767E+02  0.15485698218E+03  0.12509000000E+03 0.  0.
         25    1    3    3    0    0 -0.79050627515E+01  0.64364219697E+02  0.30242618581E+02  0.14410887160E+03  0.12509000000E+03 0.  0.
<mgrwt>
<rscale>  2 0.45798652E+03</rscale>
<asrwt>0</asrwt>
<pdfrwt beam="1">  1       21 0.22022593E-01 0.45798652E+03</pdfrwt>
<pdfrwt beam="2">  1       21 0.51494294E-01 0.45798652E+03</pdfrwt>
<totfact> 0.63751776E+04</totfact>
</mgrwt>
</event>
<event>
 7    0  0.4766352E-002  0.4479660E+03  0.7546771E-02  0.1028330E+00
         21   -1    0    0  502  501  0.00000000000E+00  0.00000000000E+00  0.26273885744E+03  0.26273885744E+03  0.00000000000E+00 0.  1.
         21   -1    0    0  501  502 -0.00000000000E+00 -0.00000000000E+00 -0.19094387136E+03  0.19094387136E+03  0.00000000000E+00 0.  1.
      99926    2    1    2    0    0  0.00000000000E+00  0.00000000000E+00  0.71794986081E+02  0.45368272880E+03  0.44796595672E+03 0.  0.
      99925    2    3    3    0    0 -0.14182311607E+02  0.90477635249E+02 -0.95177843734E+01  0.27862098203E+03  0.26296715188E+03 0.  0.
         25    1    3    3    0    0  0.14182311607E+02 -0.90477635249E+02  0.81312770454E+02  0.17506174677E+03  0.12509000000E+03 0.  0.
         25    1    4    4    0    0 -0.25551287748E+02  0.26503397091E+02 -0.35828191110E+02  0.13522745927E+03  0.12509000000E+03 0.  0.
         25    1    4    4    0    0  0.11368976141E+02  0.63974238158E+02  0.26310406737E+02  0.14339352276E+03  0.12509000000E+03 0.  0.
<mgrwt>
<rscale>  2 0.44796596E+03</rscale>
<asrwt>0</asrwt>
<pdfrwt beam="1">  1       21 0.38638068E-01 0.44796596E+03</pdfrwt>
<pdfrwt beam="2">  1       21 0.28079981E-01 0.44796596E+03</pdfrwt>
<totfact> 0.72632886E+04</totfact>
</mgrwt>
</event>
<event>
 7    0  0.4766352E-002  0.4534417E+03  0.7546771E-02  0.1026701E+00
         21   -1    0    0  502  501  0.00000000000E+00  0.00000000000E+00  0.43255648248E+02  0.43255648248E+02  0.00000000000E+00 0. -1.
         21   -1    0    0  501  502 -0.00000000000E+00 -0.00000000000E+00 -0.11883381571E+04  0.11883381571E+04  0.00000000000E+00 0. -1.
      99926    2    1    2    0    0  0.14210854715E-13  0.35527136788E-14 -0.11450825089E+04  0.12315938054E+04  0.45344167133E+03 0.  0.
      99925    2    3    3    0    0  0.10961596950E+03 -0.19814821062E+02 -0.74420952602E+03  0.79713443514E+03  0.26299658012E+03 0.  0.
         25    1    3    3    0    0 -0.10961596950E+03  0.19814821062E+02 -0.40087298286E+03  0.43445937024E+03  0.12509000000E+03 0.  0.
         25    1    4    4    0    0  0.58952056489E+02  0.30090863471E+02 -0.35407712124E+03  0.38131210434E+03  0.12509000000E+03 0.  0.
         25    1    4    4    0    0  0.50663913013E+02 -0.49905684533E+02 -0.39013240478E+03  0.41582233080E+03  0.12509000000E+03 0.  0.
<mgrwt>
<rscale>  2 0.45344167E+03</rscale>
<asrwt>0</asrwt>
<pdfrwt beam="1">  1       21 0.63611245E-02 0.45344167E+03</pdfrwt>
<pdfrwt beam="2">  1       21 0.17475562E+00 0.45344167E+03</pdfrwt>
<totfact> 0.31548895E+04</totfact>
</mgrwt>
</event>
<event>
 7    0  0.4766352E-002  0.4506017E+03  0.7546771E-02  0.1027543E+00
         21   -1    0    0  502  501  0.00000000000E+00  0.00000000000E+00  0.11553030235E+04  0.11553030235E+04  0.00000000000E+00 0.  1.
         21   -1    0    0  501  502 -0.00000000000E+00 -0.00000000000E+00 -0.43936931941E+02  0.43936931941E+02  0.00000000000E+00 0.  1.
      99926    2    1    2    0    0  0.00000000000E+00  0.00000000000E+00  0.11113660915E+04  0.11992399554E+04  0.45060168803E+03 0.  0.
      99925    2    3    3    0    0  0.12851328962E+02  0.93455504928E+01  0.98915501573E+03  0.10236394112E+04  0.26297814187E+03 0.  0.
         25    1    4    4    0    0  0.26835974479E+02  0.19121816731E+02  0.62425583886E+03  0.63751758709E+03  0.12509000000E+03 0.  0.
         25    1    3    3    0    0 -0.12851328962E+02 -0.93455504928E+01  0.12221107580E+03  0.17560054418E+03  0.12509000000E+03 0.  0.
         25    1    4    4    0    0 -0.13984645517E+02 -0.97762662385E+01  0.36489917687E+03  0.38612182413E+03  0.12509000000E+03 0.  0.
<mgrwt>
<rscale>  2 0.45060169E+03</rscale>
<asrwt>0</asrwt>
<pdfrwt beam="1">  1       21 0.16989748E+00 0.45060169E+03</pdfrwt>
<pdfrwt beam="2">  1       21 0.64613142E-02 0.45060169E+03</pdfrwt>
<totfact> 0.33306673E+04</totfact>
</mgrwt>
</event>
<event>
 7    0  0.4766352E-002  0.4613532E+03  0.7546771E-02  0.1024389E+00
         21   -1    0    0  502  501  0.00000000000E+00  0.00000000000E+00  0.52837505997E+03  0.52837505997E+03  0.00000000000E+00 0. -1.
         21   -1    0    0  501  502 -0.00000000000E+00 -0.00000000000E+00 -0.10070818076E+03  0.10070818076E+03  0.00000000000E+00 0. -1.
      99926    2    1    2    0    0  0.14210854715E-13  0.35527136788E-14  0.42766687922E+03  0.62908324073E+03  0.46135318812E+03 0.  0.
      99925    2    3    3    0    0  0.11256722262E+03  0.29146806649E+02  0.30415359290E+03  0.41831332840E+03  0.26259420538E+03 0.  0.
         25    1    3    3    0    0 -0.11256722262E+03 -0.29146806649E+02  0.12351328632E+03  0.21076991233E+03  0.12509000000E+03 0.  0.
         25    1    4    4    0    0  0.21919234248E+02  0.26336655552E+02  0.16902739337E+03  0.21305360843E+03  0.12509000000E+03 0.  0.
         25    1    4    4    0    0  0.90647988368E+02  0.28101510976E+01  0.13512619953E+03  0.20525971997E+03  0.12509000000E+03 0.  0.
<mgrwt>
<rscale>  2 0.46135319E+03</rscale>
<asrwt>0</asrwt>
<pdfrwt beam="1">  1       21 0.77702213E-01 0.46135319E+03</pdfrwt>
<pdfrwt beam="2">  1       21 0.14810027E-01 0.46135319E+03</pdfrwt>
<totfact> 0.54155137E+04</totfact>
</mgrwt>
</event>
<event>
 7    0  0.4766352E-002  0.4524915E+03  0.7546771E-02  0.1026982E+00
         21   -1    0    0  502  501  0.00000000000E+00  0.00000000000E+00  0.12623935556E+03  0.12623935556E+03  0.00000000000E+00 0.  1.
         21   -1    0    0  501  502 -0.00000000000E+00 -0.00000000000E+00 -0.40547679477E+03  0.40547679477E+03  0.00000000000E+00 0.  1.
      99926    2    1    2    0    0 -0.71054273576E-14  0.00000000000E+00 -0.27923743921E+03  0.53171615033E+03  0.45249145524E+03 0.  0.
      99925    2    3    3    0    0  0.52332820941E+02  0.68276870142E+02 -0.94183558769E+02  0.29235679306E+03  0.26306177329E+03 0.  0.
         25    1    4    4    0    0  0.37990993475E+02 -0.33907039560E+01 -0.31596967669E+02  0.13453880081E+03  0.12509000000E+03 0.  0.
         25    1    3    3    0    0 -0.52332820941E+02 -0.68276870142E+02 -0.18505388044E+03  0.23935935727E+03  0.12509000000E+03 0.  0.
         25    1    4    4    0    0  0.14341827465E+02  0.71667574098E+02 -0.62586591101E+02  0.15781799225E+03  0.12509000000E+03 0.  0.
<mgrwt>
<rscale>  2 0.45249146E+03</rscale>
<asrwt>0</asrwt>
<pdfrwt beam="1">  1       21 0.18564611E-01 0.45249146E+03</pdfrwt>
<pdfrwt beam="2">  1       21 0.59628940E-01 0.45249146E+03</pdfrwt>
<totfact> 0.64359601E+04</totfact>
</mgrwt>
</event>
<event>
 7    0  0.4766352E-002  0.4562620E+03  0.7546771E-02  0.1025871E+00
         21   -1    0    0  502  501  0.00000000000E+00  0.00000000000E+00  0.41294772403E+03  0.41294772403E+03  0.00000000000E+00 0. -1.
         21   -1    0    0  501  502 -0.00000000000E+00 -0.00000000000E+00 -0.12602988818E+03  0.12602988818E+03  0.00000000000E+00 0. -1.
      99926    2    1    2    0    0  0.00000000000E+00 -0.14210854715E-13  0.28691783586E+03  0.53897761221E+03  0.45626201017E+03 0.  0.
      99925    2    3    3    0    0  0.30065888474E+02  0.90547694706E+02  0.25469728856E+03  0.37838958515E+03  0.26306867294E+03 0.  0.
         25    1    4    4    0    0  0.23229578777E+02  0.79054293990E+02  0.17080302676E+03  0.22717917329E+03  0.12509000000E+03 0.  0.
         25    1    3    3    0    0 -0.30065888474E+02 -0.90547694706E+02  0.32220547297E+02  0.16058802706E+03  0.12509000000E+03 0.  0.
         25    1    4    4    0    0  0.68363096964E+01  0.11493400717E+02  0.83894261800E+02  0.15121041185E+03  0.12509000000E+03 0.  0.
<mgrwt>
<rscale>  2 0.45626201E+03</rscale>
<asrwt>0</asrwt>
<pdfrwt beam="1">  1       21 0.60727606E-01 0.45626201E+03</pdfrwt>
<pdfrwt beam="2">  1       21 0.18533807E-01 0.45626201E+03</pdfrwt>
<totfact> 0.61979451E+04</totfact>
</mgrwt>
</event>
<event>
 7    0  0.4766352E-002  0.4549642E+03  0.7546771E-02  0.1026252E+00
         21   -1    0    0  502  501  0.00000000000E+00  0.00000000000E+00  0.25339993877E+03  0.25339993877E+03  0.00000000000E+00 0.  1.
         21   -1    0    0  501  502 -0.00000000000E+00 -0.00000000000E+00 -0.20421518265E+03  0.20421518265E+03  0.00000000000E+00 0.  1.
      99926    2    1    2    0    0  0.00000000000E+00  0.26645352591E-14  0.49184756120E+02  0.45761512141E+03  0.45496423938E+03 0.  0.
      99925    2    3    3    0    0  0.76732622316E+02  0.22885420677E+01 -0.52772533901E+02  0.27890885448E+03  0.26289175723E+03 0.  0.
         25    1    4    4    0    0  0.41971595259E+02  0.23687922546E+02  0.73235415451E+01  0.13425302546E+03  0.12509000000E+03 0.  0.
         25    1    4    4    0    0  0.34761027056E+02 -0.21399380479E+02 -0.60096075446E+02  0.14465582902E+03  0.12509000000E+03 0.  0.
         25    1    3    3    0    0 -0.76732622316E+02 -0.22885420677E+01  0.10195729002E+03  0.17870626693E+03  0.12509000000E+03 0.  0.
<mgrwt>
<rscale>  2 0.45496424E+03</rscale>
<asrwt>0</asrwt>
<pdfrwt beam="1">  1       21 0.37264697E-01 0.45496424E+03</pdfrwt>
<pdfrwt beam="2">  1       21 0.30031644E-01 0.45496424E+03</pdfrwt>
<totfact> 0.68374097E+04</totfact>
</mgrwt>
</event>
<event>
 7    0  0.4766352E-002  0.4528532E+03  0.7546771E-02  0.1026875E+00
         21   -1    0    0  502  501  0.00000000000E+00  0.00000000000E+00  0.17397674040E+03  0.17397674040E+03  0.00000000000E+00 0.  1.
         21   -1    0    0  501  502 -0.00000000000E+00 -0.00000000000E+00 -0.29468878497E+03  0.29468878497E+03  0.00000000000E+00 0.  1.
      99926    2    1    2    0    0 -0.35527136788E-14  0.00000000000E+00 -0.12071204457E+03  0.46866552536E+03  0.45285315165E+03 0.  0.
      99925    2    3    3    0    0 -0.18376531743E+02 -0.75580223689E+02  0.60064166248E+01  0.27435869677E+03  0.26303336351E+03 0.  0.
         25    1    4    4    0    0 -0.35101334775E+02 -0.15387314665E+02  0.25169940772E+02  0.13322877757E+03  0.12509000000E+03 0.  0.
         25    1    4    4    0    0  0.16724803032E+02 -0.60192909025E+02 -0.19163524148E+02  0.14112991919E+03  0.12509000000E+03 0.  0.
         25    1    3    3    0    0  0.18376531743E+02  0.75580223689E+02 -0.12671846120E+03  0.19430682860E+03  0.12509000000E+03 0.  0.
<mgrwt>
<rscale>  2 0.45285315E+03</rscale>
<asrwt>0</asrwt>
<pdfrwt beam="1">  1       21 0.25584815E-01 0.45285315E+03</pdfrwt>
<pdfrwt beam="2">  1       21 0.43336586E-01 0.45285315E+03</pdfrwt>
<totfact> 0.68697658E+04</totfact>
</mgrwt>
</event>
<event>
 7    0  0.4766352E-002  0.4628196E+03  0.7546771E-02  0.1023967E+00
         21   -1    0    0  502  501  0.00000000000E+00  0.00000000000E+00  0.79380650149E+03  0.79380650149E+03  0.00000000000E+00 0. -1.
         21   -1    0    0  501  502 -0.00000000000E+00 -0.00000000000E+00 -0.67460398822E+02  0.67460398822E+02  0.00000000000E+00 0. -1.
      99926    2    1    2    0    0 -0.35527136788E-14  0.14210854715E-13  0.72634610267E+03  0.86126690031E+03  0.46281963302E+03 0.  0.
      99925    2    3    3    0    0 -0.21021252646E+02 -0.67362139244E+02  0.63535508685E+03  0.69124800746E+03  0.26299842312E+03 0.  0.
         25    1    4    4    0    0  0.23266268200E+02 -0.56252768351E+02  0.32020132298E+03  0.34911615334E+03  0.12509000000E+03 0.  0.
         25    1    3    3    0    0  0.21021252646E+02  0.67362139244E+02  0.90991015817E+02  0.17001889285E+03  0.12509000000E+03 0.  0.
         25    1    4    4    0    0 -0.44287520846E+02 -0.11109370893E+02  0.31515376387E+03  0.34213185413E+03  0.12509000000E+03 0.  0.
<mgrwt>
<rscale>  2 0.46281963E+03</rscale>
<asrwt>0</asrwt>
<pdfrwt beam="1">  1       21 0.11673624E+00 0.46281963E+03</pdfrwt>
<pdfrwt beam="2">  1       21 0.99206473E-02 0.46281963E+03</pdfrwt>
<totfact> 0.42285625E+04</totfact>
</mgrwt>
</event>
<event>
 7    0  0.4766352E-002  0.4525314E+03  0.7546771E-02  0.1026970E+00
         21   -1    0    0  502  501  0.00000000000E+00  0.00000000000E+00  0.74054286281E+03  0.74054286281E+03  0.00000000000E+00 0. -1.
         21   -1    0    0  501  502 -0.00000000000E+00 -0.00000000000E+00 -0.69133299943E+02  0.69133299943E+02  0.00000000000E+00 0. -1.
      99926    2    1    2    0    0 -0.35527136788E-14  0.00000000000E+00  0.67140956287E+03  0.80967616276E+03  0.45253142148E+03 0.  0.
      99925    2    3    3    0    0  0.26799421564E+02 -0.92124575858E+02  0.52169028452E+03  0.59226292286E+03  0.26345677133E+03 0.  0.
         25    1    4    4    0    0  0.48819655201E+02 -0.31576896335E+02  0.22540490472E+03  0.26426376651E+03  0.12509000000E+03 0.  0.
         25    1    3    3    0    0 -0.26799421564E+02  0.92124575858E+02  0.14971927835E+03  0.21741323990E+03  0.12509000000E+03 0.  0.
         25    1    4    4    0    0 -0.22020233638E+02 -0.60547679523E+02  0.29628537980E+03  0.32799915635E+03  0.12509000000E+03 0.  0.
<mgrwt>
<rscale>  2 0.45253142E+03</rscale>
<asrwt>0</asrwt>
<pdfrwt beam="1">  1       21 0.10890336E+00 0.45253142E+03</pdfrwt>
<pdfrwt beam="2">  1       21 0.10166662E-01 0.45253142E+03</pdfrwt>
<totfact> 0.48227828E+04</totfact>
</mgrwt>
</event>
<event>
 7    0  0.4766352E-002  0.4401523E+03  0.7546771E-02  0.1030700E+00
         21   -1    0    0  502  501  0.00000000000E+00  0.00000000000E+00  0.38239712411E+03  0.38239712411E+03  0.00000000000E+00 0. -1.
         21   -1    0    0  501  502 -0.00000000000E+00 -0.00000000000E+00 -0.12665765091E+03  0.12665765091E+03  0.00000000000E+00 0. -1.
      99926    2    1    2    0    0  0.00000000000E+00  0.00000000000E+00  0.25573947319E+03  0.50905477502E+03  0.44015234388E+03 0.  0.
      99925    2    3    3    0    0  0.40986457319E+02 -0.43584611634E+02  0.72527411985E+02  0.27928603144E+03  0.26298470262E+03 0.  0.
         25    1    4    4    0    0  0.26785592666E+02 -0.62328525825E+02  0.42463916120E+02  0.14850254334E+03  0.12509000000E+03 0.  0.
         25    1    3    3    0    0 -0.40986457319E+02  0.43584611634E+02  0.18321206121E+03  0.22976874358E+03  0.12509000000E+03 0.  0.
         25    1    4    4    0    0  0.14200864652E+02  0.18743914190E+02  0.30063495865E+02  0.13078348810E+03  0.12509000000E+03 0.  0.
<mgrwt>
<rscale>  2 0.44015234E+03</rscale>
<asrwt>0</asrwt>
<pdfrwt beam="1">  1       21 0.56234871E-01 0.44015234E+03</pdfrwt>
<pdfrwt beam="2">  1       21 0.18626125E-01 0.44015234E+03</pdfrwt>
<totfact> 0.72849738E+04</totfact>
</mgrwt>
</event>
<event>
 7    0  0.4766352E-002  0.4490340E+03  0.7546771E-02  0.1028011E+00
         21   -1    0    0  502  501  0.00000000000E+00  0.00000000000E+00  0.51404861418E+03  0.51404861418E+03  0.00000000000E+00 0. -1.
         21   -1    0    0  501  502 -0.00000000000E+00 -0.00000000000E+00 -0.98060535675E+02  0.98060535675E+02  0.00000000000E+00 0. -1.
      99926    2    1    2    0    0 -0.71054273576E-14 -0.14210854715E-13  0.41598807851E+03  0.61210914986E+03  0.44903399635E+03 0.  0.
      99925    2    3    3    0    0  0.63018722112E+02 -0.86280482244E+02  0.24874318533E+03  0.37751579243E+03  0.26311465246E+03 0.  0.
         25    1    4    4    0    0  0.25559593363E+02 -0.65445074571E+00  0.11812005484E+03  0.17393555293E+03  0.12509000000E+03 0.  0.
         25    1    4    4    0    0  0.37459128749E+02 -0.85626031498E+02  0.13062313049E+03  0.20358023950E+03  0.12509000000E+03 0.  0.
         25    1    3    3    0    0 -0.63018722112E+02  0.86280482244E+02  0.16724489318E+03  0.23459335742E+03  0.12509000000E+03 0.  0.
<mgrwt>
<rscale>  2 0.44903400E+03</rscale>
<asrwt>0</asrwt>
<pdfrwt beam="1">  1       21 0.75595383E-01 0.44903400E+03</pdfrwt>
<pdfrwt beam="2">  1       21 0.14420667E-01 0.44903400E+03</pdfrwt>
<totfact> 0.60751468E+04</totfact>
</mgrwt>
</event>
<event>
 7    0  0.4766352E-002  0.4715323E+03  0.7546771E-02  0.1021489E+00
         21   -1    0    0  502  501  0.00000000000E+00  0.00000000000E+00  0.14068898313E+04  0.14068898313E+04  0.00000000000E+00 0.  1.
         21   -1    0    0  501  502 -0.00000000000E+00 -0.00000000000E+00 -0.39509609836E+02  0.39509609836E+02  0.00000000000E+00 0.  1.
      99926    2    1    2    0    0  0.00000000000E+00  0.00000000000E+00  0.13673802215E+04  0.14463994412E+04  0.47153226112E+03 0.  0.
      99925    2    3    3    0    0 -0.82404887373E+02 -0.97030757071E+02  0.80764786262E+03  0.85890190505E+03  0.26308150678E+03 0.  0.
         25    1    4    4    0    0 -0.78768154087E+01 -0.27851468493E+02  0.41634907113E+03  0.43569691948E+03  0.12509000000E+03 0.  0.
         25    1    3    3    0    0  0.82404887373E+02  0.97030757071E+02  0.55973235888E+03  0.58749753613E+03  0.12509000000E+03 0.  0.
         25    1    4    4    0    0 -0.74528071965E+02 -0.69179288578E+02  0.39129879150E+03  0.42320498557E+03  0.12509000000E+03 0.  0.
<mgrwt>
<rscale>  2 0.47153226E+03</rscale>
<asrwt>0</asrwt>
<pdfrwt beam="1">  1       21 0.20689553E+00 0.47153226E+03</pdfrwt>
<pdfrwt beam="2">  1       21 0.58102377E-02 0.47153226E+03</pdfrwt>
<totfact> 0.22138237E+04</totfact>
</mgrwt>
</event>
<event>
 7    0  0.4766352E-002  0.4517312E+03  0.7546771E-02  0.1027207E+00
         21   -1    0    0  502  501  0.00000000000E+00  0.00000000000E+00  0.59246283327E+03  0.59246283327E+03  0.00000000000E+00 0.  1.
         21   -1    0    0  501  502 -0.00000000000E+00 -0.00000000000E+00 -0.86107105298E+02  0.86107105298E+02  0.00000000000E+00 0.  1.
      99926    2    1    2    0    0  0.14210854715E-13 -0.71054273576E-14  0.50635572797E+03  0.67856993857E+03  0.45173115708E+03 0.  0.
      99925    2    3    3    0    0 -0.97168873568E+02  0.46285435584E+02  0.35404699358E+03  0.45400460239E+03  0.26303378832E+03 0.  0.
         25    1    4    4    0    0 -0.11080531598E+02  0.26845990569E+02  0.13073259081E+03  0.18325393254E+03  0.12509000000E+03 0.  0.
         25    1    4    4    0    0 -0.86088341970E+02  0.19439445015E+02  0.22331440276E+03  0.27075066986E+03  0.12509000000E+03 0.  0.
         25    1    3    3    0    0  0.97168873568E+02 -0.46285435584E+02  0.15230873440E+03  0.22456533617E+03  0.12509000000E+03 0.  0.
<mgrwt>
<rscale>  2 0.45173116E+03</rscale>
<asrwt>0</asrwt>
<pdfrwt beam="1">  1       21 0.87126886E-01 0.45173116E+03</pdfrwt>
<pdfrwt beam="2">  1       21 0.12662810E-01 0.45173116E+03</pdfrwt>
<totfact> 0.55497253E+04</totfact>
</mgrwt>
</event>
<event>
 7    0  0.4766352E-002  0.4530649E+03  0.7546771E-02  0.1026812E+00
         21   -1    0    0  502  501  0.00000000000E+00  0.00000000000E+00  0.81230591164E+03  0.81230591164E+03  0.00000000000E+00 0. -1.
         21   -1    0    0  501  502 -0.00000000000E+00 -0.00000000000E+00 -0.63174401279E+02  0.63174401279E+02  0.00000000000E+00 0. -1.
      99926    2    1    2    0    0  0.14210854715E-13  0.00000000000E+00  0.74913151036E+03  0.87548031292E+03  0.45306485021E+03 0.  0.
      99925    2    3    3    0    0  0.11000255779E+03 -0.14786561713E+02  0.48937569413E+03  0.56654699116E+03  0.26299756284E+03 0.  0.
         25    1    4    4    0    0  0.21889029678E+02 -0.23931586983E+02  0.18379339991E+03  0.22467615011E+03  0.12509000000E+03 0.  0.
         25    1    3    3    0    0 -0.11000255779E+03  0.14786561713E+02  0.25975581623E+03  0.30893332176E+03  0.12509000000E+03 0.  0.
         25    1    4    4    0    0  0.88113528110E+02  0.91450252708E+01  0.30558229422E+03  0.34187084106E+03  0.12509000000E+03 0.  0.
<mgrwt>
<rscale>  2 0.45306485E+03</rscale>
<asrwt>0</asrwt>
<pdfrwt beam="1">  1       21 0.11945675E+00 0.45306485E+03</pdfrwt>
<pdfrwt beam="2">  1       21 0.92903536E-02 0.45306485E+03</pdfrwt>
<totfact> 0.44988880E+04</totfact>
</mgrwt>
</event>
<event>
 7    0  0.4766352E-002  0.3902996E+03  0.7546771E-02  0.1047191E+00
         21   -1    0    0  502  501  0.00000000000E+00  0.00000000000E+00  0.22152691592E+04  0.22152691592E+04  0.00000000000E+00 0. -1.
         21   -1    0    0  501  502 -0.00000000000E+00 -0.00000000000E+00 -0.17191336144E+02  0.17191336144E+02  0.00000000000E+00 0. -1.
      99926    2    1    2    0    0  0.35527136788E-14  0.00000000000E+00  0.21980778231E+04  0.22324604953E+04  0.39029956067E+03 0.  0.
      99925    2    3    3    0    0  0.13581768377E+02 -0.13789626285E+02  0.14995434456E+04  0.15225503582E+04  0.26297229854E+03 0.  0.
         25    1    3    3    0    0 -0.13581768377E+02  0.13789626285E+02  0.69853437750E+03  0.70991013718E+03  0.12509000000E+03 0.  0.
         25    1    4    4    0    0 -0.13035079001E+02 -0.82858005256E+01  0.54047624886E+03  0.55497806394E+03  0.12509000000E+03 0.  0.
         25    1    4    4    0    0  0.26616847378E+02 -0.55038257592E+01  0.95906719669E+03  0.96757229422E+03  0.12509000000E+03 0.  0.
<mgrwt>
<rscale>  2 0.39029956E+03</rscale>
<asrwt>0</asrwt>
<pdfrwt beam="1">  1       21 0.32577468E+00 0.39029956E+03</pdfrwt>
<pdfrwt beam="2">  1       21 0.25281392E-02 0.39029956E+03</pdfrwt>
<totfact> 0.17598470E+04</totfact>
</mgrwt>
</event>
<event>
 7    0  0.4766352E-002  0.4600415E+03  0.7546771E-02  0.1024769E+00
         21   -1    0    0  502  501  0.00000000000E+00  0.00000000000E+00  0.12295489979E+04  0.12295489979E+04  0.00000000000E+00 0.  1.
         21   -1    0    0  501  502 -0.00000000000E+00 -0.00000000000E+00 -0.43031675521E+02  0.43031675521E+02  0.00000000000E+00 0.  1.
      99926    2    1    2    0    0  0.00000000000E+00  0.00000000000E+00  0.11865173224E+04  0.12725806734E+04  0.46004153514E+03 0.  0.
      99925    2    3    3    0    0  0.94503539711E+02  0.24348549038E+02  0.92608505714E+03  0.96762781848E+03  0.26295682380E+03 0.  0.
         25    1    4    4    0    0  0.52378681403E+02 -0.23593557670E+01  0.59374452023E+03  0.60903953585E+03  0.12509000000E+03 0.  0.
         25    1    4    4    0    0  0.42124858307E+02  0.26707904805E+02  0.33234053691E+03  0.35858828263E+03  0.12509000000E+03 0.  0.
         25    1    3    3    0    0 -0.94503539711E+02 -0.24348549038E+02  0.26043226524E+03  0.30495285494E+03  0.12509000000E+03 0.  0.
<mgrwt>
<rscale>  2 0.46004154E+03</rscale>
<asrwt>0</asrwt>
<pdfrwt beam="1">  1       21 0.18081601E+00 0.46004154E+03</pdfrwt>
<pdfrwt beam="2">  1       21 0.63281884E-02 0.46004154E+03</pdfrwt>
<totfact> 0.28775779E+04</totfact>
</mgrwt>
</event>
<event>
 6    0  0.4766352E-002  0.4670864E+03  0.7546771E-02  0.1022746E+00
         21   -1    0    0  502  501  0.00000000000E+00  0.00000000000E+00  0.10600968382E+03  0.10600968382E+03  0.00000000000E+00 0.  1.
         21   -1    0    0  501  502 -0.00000000000E+00 -0.00000000000E+00 -0.51450408324E+03  0.51450408324E+03  0.00000000000E+00 0.  1.
      99926    2    1    2    0    0  0.00000000000E+00  0.17763568394E-14 -0.40849439943E+03  0.62051376706E+03  0.46708635256E+03 0.  0.
         25    1    3    3    0    0 -0.11146715097E+03 -0.13897999945E+02 -0.75666812706E+02  0.18436663145E+03  0.12509000000E+03 0.  0.
         25    1    3    3    0    0  0.88483242043E+02 -0.32788635176E+01 -0.17153791945E+03  0.23002782653E+03  0.12509000000E+03 0.  0.
         25    1    3    3    0    0  0.22983908924E+02  0.17176863463E+02 -0.16128966727E+03  0.20611930908E+03  0.12509000000E+03 0.  0.
<mgrwt>
<rscale>  2 0.46708635E+03</rscale>
<asrwt>0</asrwt>
<pdfrwt beam="1">  1       21 0.15589659E-01 0.46708635E+03</pdfrwt>
<pdfrwt beam="2">  1       21 0.75662366E-01 0.46708635E+03</pdfrwt>
<totfact> 0.52263205E+04</totfact>
</mgrwt>
</event>
<event>
 7    0  0.4766352E-002  0.4560126E+03  0.7546771E-02  0.1025944E+00
         21   -1    0    0  502  501  0.00000000000E+00  0.00000000000E+00  0.71117553146E+02  0.71117553146E+02  0.00000000000E+00 0. -1.
         21   -1    0    0  501  502 -0.00000000000E+00 -0.00000000000E+00 -0.73099930763E+03  0.73099930763E+03  0.00000000000E+00 0. -1.
      99926    2    1    2    0    0  0.00000000000E+00  0.00000000000E+00 -0.65988175448E+03  0.80211686077E+03  0.45601264066E+03 0.  0.
      99925    2    3    3    0    0 -0.91207210746E+02 -0.59480553818E+02 -0.35914563972E+03  0.45868359157E+03  0.26372022120E+03 0.  0.
         25    1    4    4    0    0 -0.63159952684E+02 -0.16458105150E+02 -0.12601803299E+03  0.18917743414E+03  0.12509000000E+03 0.  0.
         25    1    3    3    0    0  0.91207210746E+02  0.59480553818E+02 -0.30073611476E+03  0.34343326921E+03  0.12509000000E+03 0.  0.
         25    1    4    4    0    0 -0.28047258062E+02 -0.43022448668E+02 -0.23312760672E+03  0.26950615742E+03  0.12509000000E+03 0.  0.
<mgrwt>
<rscale>  2 0.45601264E+03</rscale>
<asrwt>0</asrwt>
<pdfrwt beam="1">  1       21 0.10458464E-01 0.45601264E+03</pdfrwt>
<pdfrwt beam="2">  1       21 0.10749990E+00 0.45601264E+03</pdfrwt>
<totfact> 0.47285692E+04</totfact>
</mgrwt>
</event>
<event>
 7    0  0.4766352E-002  0.4496286E+03  0.7546771E-02  0.1027833E+00
         21   -1    0    0  502  501  0.00000000000E+00  0.00000000000E+00  0.38928629527E+03  0.38928629527E+03  0.00000000000E+00 0.  1.
         21   -1    0    0  501  502 -0.00000000000E+00 -0.00000000000E+00 -0.12983107992E+03  0.12983107992E+03  0.00000000000E+00 0.  1.
      99926    2    1    2    0    0  0.14210854715E-13  0.00000000000E+00  0.25945521535E+03  0.51911737518E+03  0.44962855831E+03 0.  0.
      99925    2    3    3    0    0  0.73971178401E+02  0.46416498582E+02  0.91182780038E+02  0.29198449082E+03  0.26327631289E+03 0.  0.
         25    1    4    4    0    0  0.43538781405E+02  0.53053136179E+02  0.18166971413E+02  0.14383256827E+03  0.12509000000E+03 0.  0.
         25    1    4    4    0    0  0.30432396996E+02 -0.66366375976E+01  0.73015808625E+02  0.14815192255E+03  0.12509000000E+03 0.  0.
         25    1    3    3    0    0 -0.73971178401E+02 -0.46416498582E+02  0.16827243531E+03  0.22713288437E+03  0.12509000000E+03 0.  0.
<mgrwt>
<rscale>  2 0.44962856E+03</rscale>
<asrwt>0</asrwt>
<pdfrwt beam="1">  1       21 0.57247984E-01 0.44962856E+03</pdfrwt>
<pdfrwt beam="2">  1       21 0.19092806E-01 0.44962856E+03</pdfrwt>
<totfact> 0.66746562E+04</totfact>
</mgrwt>
</event>
<event>
 7    0  0.4766352E-002  0.4496565E+03  0.7546771E-02  0.1027825E+00
         21   -1    0    0  502  501  0.00000000000E+00  0.00000000000E+00  0.16558890819E+04  0.16558890819E+04  0.00000000000E+00 0. -1.
         21   -1    0    0  501  502 -0.00000000000E+00 -0.00000000000E+00 -0.30526048322E+02  0.30526048322E+02  0.00000000000E+00 0. -1.
      99926    2    1    2    0    0  0.00000000000E+00  0.00000000000E+00  0.16253630336E+04  0.16864151302E+04  0.44965653617E+03 0.  0.
      99925    2    3    3    0    0 -0.73613416801E+02 -0.79765881028E+02  0.10494939571E+04  0.10872037884E+04  0.26228415976E+03 0.  0.
         25    1    4    4    0    0 -0.12401879798E+02 -0.40712153090E+02  0.62281861446E+03  0.63668031275E+03  0.12509000000E+03 0.  0.
         25    1    4    4    0    0 -0.61211537003E+02 -0.39053727937E+02  0.42667534267E+03  0.45052347560E+03  0.12509000000E+03 0.  0.
         25    1    3    3    0    0  0.73613416801E+02  0.79765881028E+02  0.57586907646E+03  0.59921134188E+03  0.12509000000E+03 0.  0.
<mgrwt>
<rscale>  2 0.44965654E+03</rscale>
<asrwt>0</asrwt>
<pdfrwt beam="1">  1       21 0.24351304E+00 0.44965654E+03</pdfrwt>
<pdfrwt beam="2">  1       21 0.44891259E-02 0.44965654E+03</pdfrwt>
<totfact> 0.20378144E+04</totfact>
</mgrwt>
</event>
<event>
 7    0  0.4766352E-002  0.4542820E+03  0.7546771E-02  0.1026453E+00
         21   -1    0    0  502  501  0.00000000000E+00  0.00000000000E+00  0.16066287684E+04  0.16066287684E+04  0.00000000000E+00 0.  1.
         21   -1    0    0  501  502 -0.00000000000E+00 -0.00000000000E+00 -0.32112610958E+02  0.32112610958E+02  0.00000000000E+00 0.  1.
      99926    2    1    2    0    0 -0.71054273576E-14  0.14210854715E-13  0.15745161574E+04  0.16387413793E+04  0.45428204716E+03 0.  0.
      99925    2    3    3    0    0  0.32231817091E+02 -0.10456646935E+03  0.89664009547E+03  0.94078973344E+03  0.26296164207E+03 0.  0.
         25    1    3    3    0    0 -0.32231817091E+02  0.10456646935E+03  0.67787606193E+03  0.69795164587E+03  0.12509000000E+03 0.  0.
         25    1    4    4    0    0  0.32783201199E+02 -0.92070438848E+02  0.52381083264E+03  0.54733627733E+03  0.12509000000E+03 0.  0.
         25    1    4    4    0    0 -0.55138410794E+00 -0.12496030498E+02  0.37282926283E+03  0.39345345611E+03  0.12509000000E+03 0.  0.
<mgrwt>
<rscale>  2 0.45428205E+03</rscale>
<asrwt>0</asrwt>
<pdfrwt beam="1">  1       21 0.23626888E+00 0.45428205E+03</pdfrwt>
<pdfrwt beam="2">  1       21 0.47224439E-02 0.45428205E+03</pdfrwt>
<totfact> 0.20683369E+04</totfact>
</mgrwt>
</event>
<event>
 7    0  0.4766352E-002  0.4482413E+03  0.7546771E-02  0.1028248E+00
         21   -1    0    0  502  501  0.00000000000E+00  0.00000000000E+00  0.34410445688E+03  0.34410445688E+03  0.00000000000E+00 0.  1.
         21   -1    0    0  501  502 -0.00000000000E+00 -0.00000000000E+00 -0.14597327941E+03  0.14597327941E+03  0.00000000000E+00 0.  1.
      99926    2    1    2    0    0  0.00000000000E+00 -0.71054273576E-14  0.19813117747E+03  0.49007773629E+03  0.44824125661E+03 0.  0.
      99925    2    3    3    0    0  0.52185973290E+02  0.39007138234E+02  0.21765354332E+03  0.34769247192E+03  0.26319585383E+03 0.  0.
         25    1    3    3    0    0 -0.52185973290E+02 -0.39007138234E+02 -0.19522365849E+02  0.14238526437E+03  0.12509000000E+03 0.  0.
         25    1    4    4    0    0  0.47787759064E+02  0.54615084575E+02  0.10697229726E+03  0.17988067673E+03  0.12509000000E+03 0.  0.
         25    1    4    4    0    0  0.43982142264E+01 -0.15607946341E+02  0.11068124606E+03  0.16781179520E+03  0.12509000000E+03 0.  0.
<mgrwt>
<rscale>  2 0.44824126E+03</rscale>
<asrwt>0</asrwt>
<pdfrwt beam="1">  1       21 0.50603596E-01 0.44824126E+03</pdfrwt>
<pdfrwt beam="2">  1       21 0.21466659E-01 0.44824126E+03</pdfrwt>
<totfact> 0.69635455E+04</totfact>
</mgrwt>
</event>
<event>
 7    0  0.4766352E-002  0.4599724E+03  0.7546771E-02  0.1024789E+00
         21   -1    0    0  502  501  0.00000000000E+00  0.00000000000E+00  0.14361620161E+03  0.14361620161E+03  0.00000000000E+00 0.  1.
         21   -1    0    0  501  502 -0.00000000000E+00 -0.00000000000E+00 -0.36829859477E+03  0.36829859477E+03  0.00000000000E+00 0.  1.
      99926    2    1    2    0    0  0.00000000000E+00  0.00000000000E+00 -0.22468239317E+03  0.51191479638E+03  0.45997236977E+03 0.  0.
      99925    2    3    3    0    0 -0.93187241989E+02  0.58670990863E+02 -0.94245062800E+02  0.30028409801E+03  0.26298718679E+03 0.  0.
         25    1    4    4    0    0 -0.74822891396E+02  0.33633629061E+01 -0.62796077307E+02  0.15874707151E+03  0.12509000000E+03 0.  0.
         25    1    4    4    0    0 -0.18364350593E+02  0.55307627957E+02 -0.31448985493E+02  0.14153702650E+03  0.12509000000E+03 0.  0.
         25    1    3    3    0    0  0.93187241989E+02 -0.58670990863E+02 -0.13043733037E+03  0.21163069837E+03  0.12509000000E+03 0.  0.
<mgrwt>
<rscale>  2 0.45997237E+03</rscale>
<asrwt>0</asrwt>
<pdfrwt beam="1">  1       21 0.21120030E-01 0.45997237E+03</pdfrwt>
<pdfrwt beam="2">  1       21 0.54161557E-01 0.45997237E+03</pdfrwt>
<totfact> 0.61959980E+04</totfact>
</mgrwt>
</event>
<event>
 7    0  0.4766352E-002  0.4537850E+03  0.7546771E-02  0.1026599E+00
         21   -1    0    0  502  501  0.00000000000E+00  0.00000000000E+00  0.61108447110E+03  0.61108447110E+03  0.00000000000E+00 0.  1.
         21   -1    0    0  501  502 -0.00000000000E+00 -0.00000000000E+00 -0.84244020076E+02  0.84244020076E+02  0.00000000000E+00 0.  1.
      99926    2    1    2    0    0  0.00000000000E+00  0.14210854715E-13  0.52684045102E+03  0.69532849118E+03  0.45378502598E+03 0.  0.
      99925    2    3    3    0    0 -0.12952938696E+02 -0.10924161985E+03  0.29993796064E+03  0.41384357440E+03  0.26306313636E+03 0.  0.
         25    1    4    4    0    0 -0.34058127013E+02 -0.75025594751E+02  0.12521906293E+03  0.19523349534E+03  0.12509000000E+03 0.  0.
         25    1    4    4    0    0  0.21105188317E+02 -0.34216025104E+02  0.17471889771E+03  0.21861007906E+03  0.12509000000E+03 0.  0.
         25    1    3    3    0    0  0.12952938696E+02  0.10924161985E+03  0.22690249038E+03  0.28148491678E+03  0.12509000000E+03 0.  0.
<mgrwt>
<rscale>  2 0.45378503E+03</rscale>
<asrwt>0</asrwt>
<pdfrwt beam="1">  1       21 0.89865362E-01 0.45378503E+03</pdfrwt>
<pdfrwt beam="2">  1       21 0.12388827E-01 0.45378503E+03</pdfrwt>
<totfact> 0.53668737E+04</totfact>
</mgrwt>
</event>
<event>
 7    0  0.4766352E-002  0.4514068E+03  0.7546771E-02  0.1027303E+00
         21   -1    0    0  502  501  0.00000000000E+00  0.00000000000E+00  0.31766557344E+03  0.31766557344E+03  0.00000000000E+00 0.  1.
         21   -1    0    0  501  502 -0.00000000000E+00 -0.00000000000E+00 -0.16036366880E+03  0.16036366880E+03  0.00000000000E+00 0.  1.
      99926    2    1    2    0    0  0.17763568394E-14  0.00000000000E+00  0.15730190465E+03  0.47802924224E+03  0.45140676471E+03 0.  0.
      99925    2    3    3    0    0 -0.13169723219E+02  0.44201021270E+02 -0.61300492780E+01  0.26711531772E+03  0.26303202004E+03 0.  0.
         25    1    4    4    0    0  0.30793190204E+02  0.37872595978E+02 -0.11679761900E+01  0.13428114669E+03  0.12509000000E+03 0.  0.
         25    1    4    4    0    0 -0.43962913423E+02  0.63284252915E+01 -0.49620730880E+01  0.13283417103E+03  0.12509000000E+03 0.  0.
         25    1    3    3    0    0  0.13169723219E+02 -0.44201021270E+02  0.16343195393E+03  0.21091392452E+03  0.12509000000E+03 0.  0.
<mgrwt>
<rscale>  2 0.45140676E+03</rscale>
<asrwt>0</asrwt>
<pdfrwt beam="1">  1       21 0.46715526E-01 0.45140676E+03</pdfrwt>
<pdfrwt beam="2">  1       21 0.23582892E-01 0.45140676E+03</pdfrwt>
<totfact> 0.68784823E+04</totfact>
</mgrwt>
</event>
<event>
 7    0  0.4766352E-002  0.4593867E+03  0.7546771E-02  0.1024959E+00
         21   -1    0    0  502  501  0.00000000000E+00  0.00000000000E+00  0.34057051930E+03  0.34057051930E+03  0.00000000000E+00 0.  1.
         21   -1    0    0  501  502 -0.00000000000E+00 -0.00000000000E+00 -0.15491368237E+03  0.15491368237E+03  0.00000000000E+00 0.  1.
      99926    2    1    2    0    0 -0.17763568394E-14  0.17763568394E-14  0.18565683693E+03  0.49548420167E+03  0.45938669223E+03 0.  0.
      99925    2    3    3    0    0 -0.28790860065E+01 -0.15178653576E+02  0.24172056119E+03  0.35753736431E+03  0.26299326325E+03 0.  0.
         25    1    3    3    0    0  0.28790860065E+01  0.15178653576E+02 -0.56063724255E+02  0.13794683736E+03  0.12509000000E+03 0.  0.
         25    1    4    4    0    0 -0.32596611830E+02 -0.26699361004E+02  0.98288654956E+02  0.16457084424E+03  0.12509000000E+03 0.  0.
         25    1    4    4    0    0  0.29717525823E+02  0.11520707428E+02  0.14343190623E+03  0.19296652007E+03  0.12509000000E+03 0.  0.
<mgrwt>
<rscale>  2 0.45938669E+03</rscale>
<asrwt>0</asrwt>
<pdfrwt beam="1">  1       21 0.50083900E-01 0.45938669E+03</pdfrwt>
<pdfrwt beam="2">  1       21 0.22781424E-01 0.45938669E+03</pdfrwt>
<totfact> 0.63353917E+04</totfact>
</mgrwt>
</event>
<event>
 7    0  0.4766352E-002  0.4553110E+03  0.7546771E-02  0.1026150E+00
         21   -1    0    0  502  501  0.00000000000E+00  0.00000000000E+00  0.92074238683E+02  0.92074238683E+02  0.00000000000E+00 0. -1.
         21   -1    0    0  501  502 -0.00000000000E+00 -0.00000000000E+00 -0.56288311530E+03  0.56288311530E+03  0.00000000000E+00 0. -1.
      99926    2    1    2    0    0  0.35527136788E-14  0.35527136788E-14 -0.47080887661E+03  0.65495735398E+03  0.45531103351E+03 0.  0.
      99925    2    3    3    0    0  0.19394498239E+02  0.17999253839E+02 -0.13745711433E+03  0.29792650767E+03  0.26299358546E+03 0.  0.
         25    1    4    4    0    0 -0.23358634760E+02 -0.55027948389E+01 -0.88116711015E+02  0.15488050048E+03  0.12509000000E+03 0.  0.
         25    1    4    4    0    0  0.42753132999E+02  0.23502048678E+02 -0.49340403317E+02  0.14304600719E+03  0.12509000000E+03 0.  0.
         25    1    3    3    0    0 -0.19394498239E+02 -0.17999253839E+02 -0.33335176228E+03  0.35703084631E+03  0.12509000000E+03 0.  0.
<mgrwt>
<rscale>  2 0.45531103E+03</rscale>
<asrwt>0</asrwt>
<pdfrwt beam="1">  1       21 0.13540329E-01 0.45531103E+03</pdfrwt>
<pdfrwt beam="2">  1       21 0.82776932E-01 0.45531103E+03</pdfrwt>
<totfact> 0.55281053E+04</totfact>
</mgrwt>
</event>
<event>
 7    0  0.4766352E-002  0.4546998E+03  0.7546771E-02  0.1026330E+00
         21   -1    0    0  502  501  0.00000000000E+00  0.00000000000E+00  0.15126378850E+03  0.15126378850E+03  0.00000000000E+00 0. -1.
         21   -1    0    0  501  502 -0.00000000000E+00 -0.00000000000E+00 -0.34170751571E+03  0.34170751571E+03  0.00000000000E+00 0. -1.
      99926    2    1    2    0    0  0.00000000000E+00  0.88817841970E-15 -0.19044372721E+03  0.49297130422E+03  0.45469978397E+03 0.  0.
      99925    2    3    3    0    0  0.88181439603E+02  0.78621765902E+01 -0.19577182177E+03  0.33962960472E+03  0.26302829144E+03 0.  0.
         25    1    4    4    0    0  0.42332152844E+02  0.28458420070E+02 -0.58444565520E+02  0.14719092423E+03  0.12509000000E+03 0.  0.
         25    1    4    4    0    0  0.45849286759E+02 -0.20596243479E+02 -0.13732725625E+03  0.19243868049E+03  0.12509000000E+03 0.  0.
         25    1    3    3    0    0 -0.88181439603E+02 -0.78621765902E+01  0.53280945524E+01  0.15334169949E+03  0.12509000000E+03 0.  0.
<mgrwt>
<rscale>  2 0.45469978E+03</rscale>
<asrwt>0</asrwt>
<pdfrwt beam="1">  1       21 0.22244675E-01 0.45469978E+03</pdfrwt>
<pdfrwt beam="2">  1       21 0.50251105E-01 0.45469978E+03</pdfrwt>
<totfact> 0.65924296E+04</totfact>
</mgrwt>
</event>
<event>
 7    0  0.4766352E-002  0.4547580E+03  0.7546771E-02  0.1026313E+00
         21   -1    0    0  502  501  0.00000000000E+00  0.00000000000E+00  0.13747275643E+03  0.13747275643E+03  0.00000000000E+00 0.  1.
         21   -1    0    0  501  502 -0.00000000000E+00 -0.00000000000E+00 -0.37608326978E+03  0.37608326978E+03  0.00000000000E+00 0.  1.
      99926    2    1    2    0    0 -0.14210854715E-13  0.00000000000E+00 -0.23861051335E+03  0.51355602621E+03  0.45475797406E+03 0.  0.
      99925    2    3    3    0    0  0.10069357987E+03 -0.52144328800E+01 -0.93495300944E+02  0.29705586384E+03  0.26331431333E+03 0.  0.
         25    1    4    4    0    0  0.87872785037E+02 -0.23777259230E+02 -0.56029358583E+02  0.16454112413E+03  0.12509000000E+03 0.  0.
         25    1    4    4    0    0  0.12820794829E+02  0.18562826351E+02 -0.37465942361E+02  0.13251473971E+03  0.12509000000E+03 0.  0.
         25    1    3    3    0    0 -0.10069357987E+03  0.52144328800E+01 -0.14511521241E+03  0.21650016237E+03  0.12509000000E+03 0.  0.
<mgrwt>
<rscale>  2 0.45475797E+03</rscale>
<asrwt>0</asrwt>
<pdfrwt beam="1">  1       21 0.20216582E-01 0.45475797E+03</pdfrwt>
<pdfrwt beam="2">  1       21 0.55306364E-01 0.45475797E+03</pdfrwt>
<totfact> 0.64452119E+04</totfact>
</mgrwt>
</event>
<event>
 7    0  0.4766352E-002  0.4724706E+03  0.7546771E-02  0.1021225E+00
         21   -1    0    0  502  501  0.00000000000E+00  0.00000000000E+00  0.14884657777E+03  0.14884657777E+03  0.00000000000E+00 0. -1.
         21   -1    0    0  501  502 -0.00000000000E+00 -0.00000000000E+00 -0.37493047541E+03  0.37493047541E+03  0.00000000000E+00 0. -1.
      99926    2    1    2    0    0  0.00000000000E+00 -0.14210854715E-13 -0.22608389764E+03  0.52377705319E+03  0.47247060509E+03 0.  0.
      99925    2    3    3    0    0  0.34533163726E+02  0.11828622949E+03 -0.98717300143E+02  0.30685787529E+03  0.26312065444E+03 0.  0.
         25    1    4    4    0    0  0.10785044509E+02  0.64412160720E+02 -0.76760831245E+01  0.14132117317E+03  0.12509000000E+03 0.  0.
         25    1    4    4    0    0  0.23748119217E+02  0.53874068767E+02 -0.91041217018E+02  0.16553670212E+03  0.12509000000E+03 0.  0.
         25    1    3    3    0    0 -0.34533163726E+02 -0.11828622949E+03 -0.12736659749E+03  0.21691917790E+03  0.12509000000E+03 0.  0.
<mgrwt>
<rscale>  2 0.47247061E+03</rscale>
<asrwt>0</asrwt>
<pdfrwt beam="1">  1       21 0.21889203E-01 0.47247061E+03</pdfrwt>
<pdfrwt beam="2">  1       21 0.55136835E-01 0.47247061E+03</pdfrwt>
<totfact> 0.55524365E+04</totfact>
</mgrwt>
</event>
<event>
 7    0  0.4766352E-002  0.4559722E+03  0.7546771E-02  0.1025956E+00
         21   -1    0    0  502  501  0.00000000000E+00  0.00000000000E+00  0.19909988402E+03  0.19909988402E+03  0.00000000000E+00 0.  1.
         21   -1    0    0  501  502 -0.00000000000E+00 -0.00000000000E+00 -0.26106322931E+03  0.26106322931E+03  0.00000000000E+00 0.  1.
      99926    2    1    2    0    0  0.26645352591E-14  0.00000000000E+00 -0.61963345283E+02  0.46016311333E+03  0.45597218633E+03 0.  0.
      99925    2    3    3    0    0  0.25561534002E+01  0.80846162682E+02 -0.12013704032E+03  0.30024337460E+03  0.26300292696E+03 0.  0.
         25    1    4    4    0    0  0.30245109078E+02  0.31768233243E+02 -0.29467303977E+02  0.13579328912E+03  0.12509000000E+03 0.  0.
         25    1    4    4    0    0 -0.27688955678E+02  0.49077929438E+02 -0.90669736348E+02  0.16445008548E+03  0.12509000000E+03 0.  0.
         25    1    3    3    0    0 -0.25561534002E+01 -0.80846162682E+02  0.58173695042E+02  0.15991973873E+03  0.12509000000E+03 0.  0.
<mgrwt>
<rscale>  2 0.45597219E+03</rscale>
<asrwt>0</asrwt>
<pdfrwt beam="1">  1       21 0.29279395E-01 0.45597219E+03</pdfrwt>
<pdfrwt beam="2">  1       21 0.38391651E-01 0.45597219E+03</pdfrwt>
<totfact> 0.67642727E+04</totfact>
</mgrwt>
</event>
<event>
 7    0  0.4766352E-002  0.4396672E+03  0.7546771E-02  0.1030849E+00
         21   -1    0    0  502  501  0.00000000000E+00  0.00000000000E+00  0.41660028233E+03  0.41660028233E+03  0.00000000000E+00 0.  1.
         21   -1    0    0  501  502 -0.00000000000E+00 -0.00000000000E+00 -0.11600284605E+03  0.11600284605E+03  0.00000000000E+00 0.  1.
      99926    2    1    2    0    0  0.00000000000E+00  0.00000000000E+00  0.30059743628E+03  0.53260312838E+03  0.43966723060E+03 0.  0.
      99925    2    3    3    0    0  0.10497477155E+02 -0.20293524796E+02  0.76295848680E+02  0.27476454618E+03  0.26296858203E+03 0.  0.
         25    1    4    4    0    0 -0.15357107036E+02  0.94830739499E+01  0.73757519692E+01  0.12660047095E+03  0.12509000000E+03 0.  0.
         25    1    3    3    0    0 -0.10497477155E+02  0.20293524796E+02  0.22430158760E+03  0.25783858221E+03  0.12509000000E+03 0.  0.
         25    1    4    4    0    0  0.25854584191E+02 -0.29776598746E+02  0.68920096710E+02  0.14816407522E+03  0.12509000000E+03 0.  0.
<mgrwt>
<rscale>  2 0.43966723E+03</rscale>
<asrwt>0</asrwt>
<pdfrwt beam="1">  1       21 0.61264747E-01 0.43966723E+03</pdfrwt>
<pdfrwt beam="2">  1       21 0.17059242E-01 0.43966723E+03</pdfrwt>
<totfact> 0.71297848E+04</totfact>
</mgrwt>
</event>
<event>
 7    0  0.4766352E-002  0.4486525E+03  0.7546771E-02  0.1028125E+00
         21   -1    0    0  502  501  0.00000000000E+00  0.00000000000E+00  0.52184923813E+03  0.52184923813E+03  0.00000000000E+00 0.  1.
         21   -1    0    0  501  502 -0.00000000000E+00 -0.00000000000E+00 -0.96430679798E+02  0.96430679798E+02  0.00000000000E+00 0.  1.
      99926    2    1    2    0    0  0.00000000000E+00 -0.71054273576E-14  0.42541855833E+03  0.61827991793E+03  0.44865254612E+03 0.  0.
      99925    2    3    3    0    0 -0.50400094567E+02 -0.62729125696E+02  0.17211566043E+03  0.32453686877E+03  0.26310694761E+03 0.  0.
         25    1    3    3    0    0  0.50400094567E+02  0.62729125696E+02  0.25330289791E+03  0.29374304916E+03  0.12509000000E+03 0.  0.
         25    1    4    4    0    0 -0.11993476411E+02 -0.54870475916E+02  0.51722942730E+02  0.14655164110E+03  0.12509000000E+03 0.  0.
         25    1    4    4    0    0 -0.38406618156E+02 -0.78586497804E+01  0.12039271770E+03  0.17798522767E+03  0.12509000000E+03 0.  0.
<mgrwt>
<rscale>  2 0.44865255E+03</rscale>
<asrwt>0</asrwt>
<pdfrwt beam="1">  1       21 0.76742534E-01 0.44865255E+03</pdfrwt>
<pdfrwt beam="2">  1       21 0.14180983E-01 0.44865255E+03</pdfrwt>
<totfact> 0.60545109E+04</totfact>
</mgrwt>
</event>
<event>
 7    0  0.4766352E-002  0.4528035E+03  0.7546771E-02  0.1026889E+00
         21   -1    0    0  502  501  0.00000000000E+00  0.00000000000E+00  0.49556765045E+03  0.49556765045E+03  0.00000000000E+00 0. -1.
         21   -1    0    0  501  502 -0.00000000000E+00 -0.00000000000E+00 -0.10343238625E+03  0.10343238625E+03  0.00000000000E+00 0. -1.
      99926    2    1    2    0    0  0.00000000000E+00 -0.26645352591E-14  0.39213526420E+03  0.59900003670E+03  0.45280346569E+03 0.  0.
      99925    2    3    3    0    0 -0.10157064727E+03 -0.64522701342E+01  0.18836069503E+03  0.33913504999E+03  0.26301065097E+03 0.  0.
         25    1    4    4    0    0 -0.55653037348E+02  0.32425232283E+02  0.72235024141E+02  0.15815834808E+03  0.12509000000E+03 0.  0.
         25    1    3    3    0    0  0.10157064727E+03  0.64522701342E+01  0.20377456917E+03  0.25986498671E+03  0.12509000000E+03 0.  0.
         25    1    4    4    0    0 -0.45917609920E+02 -0.38877502417E+02  0.11612567089E+03  0.18097670191E+03  0.12509000000E+03 0.  0.
<mgrwt>
<rscale>  2 0.45280347E+03</rscale>
<asrwt>0</asrwt>
<pdfrwt beam="1">  1       21 0.72877595E-01 0.45280347E+03</pdfrwt>
<pdfrwt beam="2">  1       21 0.15210645E-01 0.45280347E+03</pdfrwt>
<totfact> 0.59770484E+04</totfact>
</mgrwt>
</event>
<event>
 7    0  0.4766352E-002  0.4593760E+03  0.7546771E-02  0.1024962E+00
         21   -1    0    0  502  501  0.00000000000E+00  0.00000000000E+00  0.55673178161E+02  0.55673178161E+02  0.00000000000E+00 0. -1.
         21   -1    0    0  501  502 -0.00000000000E+00 -0.00000000000E+00 -0.94761200186E+03  0.94761200186E+03  0.00000000000E+00 0. -1.
      99926    2    1    2    0    0  0.14210854715E-13 -0.44408920985E-15 -0.89193882370E+03  0.10032851800E+04  0.45937597589E+03 0.  0.
      99925    2    3    3    0    0 -0.92077019207E+02 -0.24914928496E+01 -0.71864481464E+03  0.77055635354E+03  0.26234012151E+03 0.  0.
         25    1    3    3    0    0  0.92077019207E+02  0.24914928496E+01 -0.17329400905E+03  0.23272882648E+03  0.12509000000E+03 0.  0.
         25    1    4    4    0    0 -0.17712040847E+02 -0.19262797113E+02 -0.27253589138E+03  0.30101178039E+03  0.12509000000E+03 0.  0.
         25    1    4    4    0    0 -0.74364978360E+02  0.16771304263E+02 -0.44610892327E+03  0.46954457315E+03  0.12509000000E+03 0.  0.
<mgrwt>
<rscale>  2 0.45937598E+03</rscale>
<asrwt>0</asrwt>
<pdfrwt beam="1">  1       21 0.81872323E-02 0.45937598E+03</pdfrwt>
<pdfrwt beam="2">  1       21 0.13935470E+00 0.45937598E+03</pdfrwt>
<totfact> 0.37733173E+04</totfact>
</mgrwt>
</event>
<event>
 7    0  0.4766352E-002  0.4580585E+03  0.7546771E-02  0.1025346E+00
         21   -1    0    0  502  501  0.00000000000E+00  0.00000000000E+00  0.90489540584E+02  0.90489540584E+02  0.00000000000E+00 0.  1.
         21   -1    0    0  501  502 -0.00000000000E+00 -0.00000000000E+00 -0.57967351216E+03  0.57967351216E+03  0.00000000000E+00 0.  1.
      99926    2    1    2    0    0  0.00000000000E+00  0.17763568394E-14 -0.48918397157E+03  0.67016305274E+03  0.45805846703E+03 0.  0.
      99925    2    3    3    0    0 -0.11795946446E+02  0.13164075665E+02 -0.13919085584E+03  0.29806746502E+03  0.26297848222E+03 0.  0.
         25    1    4    4    0    0 -0.31861846540E+02  0.28177780851E+02 -0.96228033877E+02  0.16345184980E+03  0.12509000000E+03 0.  0.
         25    1    4    4    0    0  0.20065900094E+02 -0.15013705185E+02 -0.42962821961E+02  0.13461561522E+03  0.12509000000E+03 0.  0.
         25    1    3    3    0    0  0.11795946446E+02 -0.13164075665E+02 -0.34999311574E+03  0.37209558772E+03  0.12509000000E+03 0.  0.
<mgrwt>
<rscale>  2 0.45805847E+03</rscale>
<asrwt>0</asrwt>
<pdfrwt beam="1">  1       21 0.13307285E-01 0.45805847E+03</pdfrwt>
<pdfrwt beam="2">  1       21 0.85246104E-01 0.45805847E+03</pdfrwt>
<totfact> 0.53257401E+04</totfact>
</mgrwt>
</event>
<event>
 7    0  0.4766352E-002  0.4541701E+03  0.7546771E-02  0.1026486E+00
         21   -1    0    0  502  501  0.00000000000E+00  0.00000000000E+00  0.30374171868E+03  0.30374171868E+03  0.00000000000E+00 0.  1.
         21   -1    0    0  501  502 -0.00000000000E+00 -0.00000000000E+00 -0.16977453836E+03  0.16977453836E+03  0.00000000000E+00 0.  1.
      99926    2    1    2    0    0  0.00000000000E+00  0.00000000000E+00  0.13396718031E+03  0.47351625704E+03  0.45417005657E+03 0.  0.
      99925    2    3    3    0    0  0.10062885633E+03 -0.41386361453E+02  0.54815866848E+02  0.28980061763E+03  0.26294604215E+03 0.  0.
         25    1    4    4    0    0  0.53265632182E+02 -0.61613144241E+02  0.30639028324E+02  0.15238000286E+03  0.12509000000E+03 0.  0.
         25    1    3    3    0    0 -0.10062885633E+03  0.41386361453E+02  0.79151313467E+02  0.18371563941E+03  0.12509000000E+03 0.  0.
         25    1    4    4    0    0  0.47363224148E+02  0.20226782788E+02  0.24176838524E+02  0.13742061477E+03  0.12509000000E+03 0.  0.
<mgrwt>
<rscale>  2 0.45417006E+03</rscale>
<asrwt>0</asrwt>
<pdfrwt beam="1">  1       21 0.44667900E-01 0.45417006E+03</pdfrwt>
<pdfrwt beam="2">  1       21 0.24966844E-01 0.45417006E+03</pdfrwt>
<totfact> 0.67619444E+04</totfact>
</mgrwt>
</event>
<event>
 7    0  0.4766352E-002  0.4590503E+03  0.7546771E-02  0.1025057E+00
         21   -1    0    0  502  501  0.00000000000E+00  0.00000000000E+00  0.53636676269E+02  0.53636676269E+02  0.00000000000E+00 0. -1.
         21   -1    0    0  501  502 -0.00000000000E+00 -0.00000000000E+00 -0.98219739948E+03  0.98219739948E+03  0.00000000000E+00 0. -1.
      99926    2    1    2    0    0  0.00000000000E+00 -0.35527136788E-14 -0.92856072321E+03  0.10358340757E+04  0.45905034124E+03 0.  0.
      99925    2    3    3    0    0 -0.95506426310E+02  0.23316165228E+02 -0.72487738938E+03  0.77737802608E+03  0.26306699675E+03 0.  0.
         25    1    4    4    0    0 -0.39572033789E+02  0.35443951514E+02 -0.44882508027E+03  0.46894954989E+03  0.12509000000E+03 0.  0.
         25    1    4    4    0    0 -0.55934392520E+02 -0.12127786285E+02 -0.27605230910E+03  0.30842847619E+03  0.12509000000E+03 0.  0.
         25    1    3    3    0    0  0.95506426310E+02 -0.23316165228E+02 -0.20368333383E+03  0.25845604967E+03  0.12509000000E+03 0.  0.
<mgrwt>
<rscale>  2 0.45905034E+03</rscale>
<asrwt>0</asrwt>
<pdfrwt beam="1">  1       21 0.78877470E-02 0.45905034E+03</pdfrwt>
<pdfrwt beam="2">  1       21 0.14444079E+00 0.45905034E+03</pdfrwt>
<totfact> 0.36629557E+04</totfact>
</mgrwt>
</event>
<event>
 7    0  0.4766352E-002  0.4518255E+03  0.7546771E-02  0.1027179E+00
         21   -1    0    0  502  501  0.00000000000E+00  0.00000000000E+00  0.52967583114E+03  0.52967583114E+03  0.00000000000E+00 0. -1.
         21   -1    0    0  501  502 -0.00000000000E+00 -0.00000000000E+00 -0.96354335475E+02  0.96354335475E+02  0.00000000000E+00 0. -1.
      99926    2    1    2    0    0  0.00000000000E+00  0.00000000000E+00  0.43332149566E+03  0.62603016661E+03  0.45182546509E+03 0.  0.
      99925    2    3    3    0    0 -0.11125687813E+02  0.94094678949E+02  0.19484595050E+03  0.34055567865E+03  0.26274633451E+03 0.  0.
         25    1    4    4    0    0 -0.12215416205E+02  0.26088026277E+02  0.50904457708E+02  0.13808900544E+03  0.12509000000E+03 0.  0.
         25    1    3    3    0    0  0.11125687813E+02 -0.94094678949E+02  0.23847554516E+03  0.28547448796E+03  0.12509000000E+03 0.  0.
         25    1    4    4    0    0  0.10897283921E+01  0.68006652673E+02  0.14394149279E+03  0.20246667322E+03  0.12509000000E+03 0.  0.
<mgrwt>
<rscale>  2 0.45182547E+03</rscale>
<asrwt>0</asrwt>
<pdfrwt beam="1">  1       21 0.77893504E-01 0.45182547E+03</pdfrwt>
<pdfrwt beam="2">  1       21 0.14169755E-01 0.45182547E+03</pdfrwt>
<totfact> 0.58557847E+04</totfact>
</mgrwt>
</event>
<event>
 7    0  0.4766352E-002  0.4534139E+03  0.7546771E-02  0.1026709E+00
         21   -1    0    0  502  501  0.00000000000E+00  0.00000000000E+00  0.11109456759E+03  0.11109456759E+03  0.00000000000E+00 0. -1.
         21   -1    0    0  501  502 -0.00000000000E+00 -0.00000000000E+00 -0.46263320398E+03  0.46263320398E+03  0.00000000000E+00 0. -1.
      99926    2    1    2    0    0  0.17763568394E-14  0.00000000000E+00 -0.35153863639E+03  0.57372777158E+03  0.45341387606E+03 0.  0.
      99925    2    3    3    0    0  0.73804073039E+01  0.11050345443E+03 -0.20594965228E+03  0.35212194077E+03  0.26326624935E+03 0.  0.
         25    1    3    3    0    0 -0.73804073039E+01 -0.11050345443E+03 -0.14558898411E+03  0.22160583081E+03  0.12509000000E+03 0.  0.
         25    1    4    4    0    0  0.29355666892E+02  0.82494828049E+02 -0.86261291447E+02  0.17537294642E+03  0.12509000000E+03 0.  0.
         25    1    4    4    0    0 -0.21975259588E+02  0.28008626380E+02 -0.11968836083E+03  0.17674899435E+03  0.12509000000E+03 0.  0.
<mgrwt>
<rscale>  2 0.45341388E+03</rscale>
<asrwt>0</asrwt>
<pdfrwt beam="1">  1       21 0.16337436E-01 0.45341388E+03</pdfrwt>
<pdfrwt beam="2">  1       21 0.68034294E-01 0.45341388E+03</pdfrwt>
<totfact> 0.61087788E+04</totfact>
</mgrwt>
</event>
<event>
 7    0  0.4766352E-002  0.4753045E+03  0.7546771E-02  0.1020434E+00
         21   -1    0    0  502  501  0.00000000000E+00  0.00000000000E+00  0.16796780138E+04  0.16796780138E+04  0.00000000000E+00 0.  1.
         21   -1    0    0  501  502 -0.00000000000E+00 -0.00000000000E+00 -0.33624651683E+02  0.33624651683E+02  0.00000000000E+00 0.  1.
      99926    2    1    2    0    0  0.17763568394E-14  0.00000000000E+00  0.16460533621E+04  0.17133026655E+04  0.47530448411E+03 0.  0.
      99925    2    3    3    0    0 -0.15662970977E+02 -0.39698863574E+02  0.14656198103E+04  0.14896397425E+04  0.26299012423E+03 0.  0.
         25    1    3    3    0    0  0.15662970977E+02  0.39698863574E+02  0.18043355182E+03  0.22366292306E+03  0.12509000000E+03 0.  0.
         25    1    4    4    0    0 -0.45752912174E+02 -0.17669511248E+02  0.82319903266E+03  0.83409213884E+03  0.12509000000E+03 0.  0.
         25    1    4    4    0    0  0.30089941197E+02 -0.22029352326E+02  0.64242077767E+03  0.65554760362E+03  0.12509000000E+03 0.  0.
<mgrwt>
<rscale>  2 0.47530448E+03</rscale>
<asrwt>0</asrwt>
<pdfrwt beam="1">  1       21 0.24701142E+00 0.47530448E+03</pdfrwt>
<pdfrwt beam="2">  1       21 0.49448029E-02 0.47530448E+03</pdfrwt>
<totfact> 0.16267053E+04</totfact>
</mgrwt>
</event>
<event>
 7    0  0.4766352E-002  0.4723679E+03  0.7546771E-02  0.1021254E+00
         21   -1    0    0  502  501  0.00000000000E+00  0.00000000000E+00  0.57115433966E+02  0.57115433966E+02  0.00000000000E+00 0.  1.
         21   -1    0    0  501  502 -0.00000000000E+00 -0.00000000000E+00 -0.97666853676E+03  0.97666853676E+03  0.00000000000E+00 0.  1.
      99926    2    1    2    0    0  0.00000000000E+00  0.88817841970E-15 -0.91955310279E+03  0.10337839707E+04  0.47236785377E+03 0.  0.
      99925    2    3    3    0    0  0.16692734773E+02  0.53233879712E+01 -0.84927598537E+03  0.88923858966E+03  0.26299920943E+03 0.  0.
         25    1    3    3    0    0 -0.16692734773E+02 -0.53233879712E+01 -0.70277117424E+02  0.14454538106E+03  0.12509000000E+03 0.  0.
         25    1    4    4    0    0  0.40346884948E+02  0.11545668848E+02 -0.35287521643E+03  0.37673545103E+03  0.12509000000E+03 0.  0.
         25    1    4    4    0    0 -0.23654150175E+02 -0.62222808767E+01 -0.49640076894E+03  0.51250313863E+03  0.12509000000E+03 0.  0.
<mgrwt>
<rscale>  2 0.47236785E+03</rscale>
<asrwt>0</asrwt>
<pdfrwt beam="1">  1       21 0.83993294E-02 0.47236785E+03</pdfrwt>
<pdfrwt beam="2">  1       21 0.14362771E+00 0.47236785E+03</pdfrwt>
<totfact> 0.33150026E+04</totfact>
</mgrwt>
</event>
<event>
 7    0  0.4766352E-002  0.4517388E+03  0.7546771E-02  0.1027205E+00
         21   -1    0    0  502  501  0.00000000000E+00  0.00000000000E+00  0.10290191799E+04  0.10290191799E+04  0.00000000000E+00 0.  1.
         21   -1    0    0  501  502 -0.00000000000E+00 -0.00000000000E+00 -0.49578274557E+02  0.49578274557E+02  0.00000000000E+00 0.  1.
      99926    2    1    2    0    0  0.00000000000E+00 -0.17763568394E-14  0.97944090538E+03  0.10785974545E+04  0.45173884238E+03 0.  0.
      99925    2    3    3    0    0 -0.83012121692E+02  0.12803682226E+02  0.44794443249E+03  0.52615654777E+03  0.26292879557E+03 0.  0.
         25    1    3    3    0    0  0.83012121692E+02 -0.12803682226E+02  0.53149647289E+03  0.55244090672E+03  0.12509000000E+03 0.  0.
         25    1    4    4    0    0 -0.19561436259E+02 -0.10868603421E+02  0.15444756096E+03  0.20000583370E+03  0.12509000000E+03 0.  0.
         25    1    4    4    0    0 -0.63450685433E+02  0.23672285646E+02  0.29349687153E+03  0.32615071407E+03  0.12509000000E+03 0.  0.
<mgrwt>
<rscale>  2 0.45173884E+03</rscale>
<asrwt>0</asrwt>
<pdfrwt beam="1">  1       21 0.15132634E+00 0.45173884E+03</pdfrwt>
<pdfrwt beam="2">  1       21 0.72909234E-02 0.45173884E+03</pdfrwt>
<totfact> 0.37182426E+04</totfact>
</mgrwt>
</event>
<event>
 7    0  0.4766352E-002  0.4554828E+03  0.7546771E-02  0.1026100E+00
         21   -1    0    0  502  501  0.00000000000E+00  0.00000000000E+00  0.24997356975E+03  0.24997356975E+03  0.00000000000E+00 0.  1.
         21   -1    0    0  501  502 -0.00000000000E+00 -0.00000000000E+00 -0.20748655126E+03  0.20748655126E+03  0.00000000000E+00 0.  1.
      99926    2    1    2    0    0  0.71054273576E-14  0.00000000000E+00  0.42487018489E+02  0.45746012101E+03  0.45548283785E+03 0.  0.
      99925    2    3    3    0    0  0.42598611727E+02  0.98630440038E+02 -0.10265671813E+02  0.28433311602E+03  0.26305385651E+03 0.  0.
         25    1    4    4    0    0 -0.33104387006E+01  0.13244332024E+02 -0.73489664503E+01  0.12604716079E+03  0.12509000000E+03 0.  0.
         25    1    4    4    0    0  0.45909050427E+02  0.85386108014E+02 -0.29167053623E+01  0.15828595523E+03  0.12509000000E+03 0.  0.
         25    1    3    3    0    0 -0.42598611727E+02 -0.98630440038E+02  0.52752690302E+02  0.17312700499E+03  0.12509000000E+03 0.  0.
<mgrwt>
<rscale>  2 0.45548284E+03</rscale>
<asrwt>0</asrwt>
<pdfrwt beam="1">  1       21 0.36760819E-01 0.45548284E+03</pdfrwt>
<pdfrwt beam="2">  1       21 0.30512728E-01 0.45548284E+03</pdfrwt>
<totfact> 0.68103214E+04</totfact>
</mgrwt>
</event>
<event>
 7    0  0.4766352E-002  0.4626906E+03  0.7546771E-02  0.1024004E+00
         21   -1    0    0  502  501  0.00000000000E+00  0.00000000000E+00  0.20056781142E+03  0.20056781142E+03  0.00000000000E+00 0.  1.
         21   -1    0    0  501  502 -0.00000000000E+00 -0.00000000000E+00 -0.26684564389E+03  0.26684564389E+03  0.00000000000E+00 0.  1.
      99926    2    1    2    0    0 -0.14210854715E-13  0.71054273576E-14 -0.66277832469E+02  0.46741345531E+03  0.46269059546E+03 0.  0.
      99925    2    3    3    0    0  0.10971929777E+03 -0.46998289286E+02 -0.56442144239E+02  0.29423316670E+03  0.26294538832E+03 0.  0.
         25    1    3    3    0    0 -0.10971929777E+03  0.46998289286E+02 -0.98356882295E+01  0.17318028861E+03  0.12509000000E+03 0.  0.
         25    1    4    4    0    0  0.22351290930E+02 -0.48690596380E+02 -0.22761928648E+02  0.13797089504E+03  0.12509000000E+03 0.  0.
         25    1    4    4    0    0  0.87368006839E+02  0.16923070938E+01 -0.33680215592E+02  0.15626227166E+03  0.12509000000E+03 0.  0.
<mgrwt>
<rscale>  2 0.46269060E+03</rscale>
<asrwt>0</asrwt>
<pdfrwt beam="1">  1       21 0.29495267E-01 0.46269060E+03</pdfrwt>
<pdfrwt beam="2">  1       21 0.39242006E-01 0.46269060E+03</pdfrwt>
<totfact> 0.63649493E+04</totfact>
</mgrwt>
</event>
<event>
 7    0  0.4766352E-002  0.4524101E+03  0.7546771E-02  0.1027006E+00
         21   -1    0    0  502  501  0.00000000000E+00  0.00000000000E+00  0.15197964846E+03  0.15197964846E+03  0.00000000000E+00 0.  1.
         21   -1    0    0  501  502 -0.00000000000E+00 -0.00000000000E+00 -0.33668139899E+03  0.33668139899E+03  0.00000000000E+00 0.  1.
      99926    2    1    2    0    0  0.00000000000E+00  0.14210854715E-13 -0.18470175053E+03  0.48866104746E+03  0.45241008240E+03 0.  0.
      99925    2    3    3    0    0 -0.36399457034E+02 -0.99491116491E+02 -0.14912565482E+03  0.32092145935E+03  0.26368299037E+03 0.  0.
         25    1    3    3    0    0  0.36399457034E+02  0.99491116491E+02 -0.35576095711E+02  0.16773958811E+03  0.12509000000E+03 0.  0.
         25    1    4    4    0    0  0.52314057277E+01 -0.53088242354E+02 -0.34843761016E+02  0.14038277980E+03  0.12509000000E+03 0.  0.
         25    1    4    4    0    0 -0.41630862762E+02 -0.46402874138E+02 -0.11428189380E+03  0.18053867955E+03  0.12509000000E+03 0.  0.
<mgrwt>
<rscale>  2 0.45241008E+03</rscale>
<asrwt>0</asrwt>
<pdfrwt beam="1">  1       21 0.22349948E-01 0.45241008E+03</pdfrwt>
<pdfrwt beam="2">  1       21 0.49511970E-01 0.45241008E+03</pdfrwt>
<totfact> 0.67451036E+04</totfact>
</mgrwt>
</event>
<event>
 7    0  0.4766352E-002  0.4497548E+03  0.7546771E-02  0.1027795E+00
         21   -1    0    0  502  501  0.00000000000E+00  0.00000000000E+00  0.38633852722E+03  0.38633852722E+03  0.00000000000E+00 0.  1.
         21   -1    0    0  501  502 -0.00000000000E+00 -0.00000000000E+00 -0.13089518766E+03  0.13089518766E+03  0.00000000000E+00 0.  1.
      99926    2    1    2    0    0  0.00000000000E+00  0.14210854715E-13  0.25544333956E+03  0.51723371487E+03  0.44975483997E+03 0.  0.
      99925    2    3    3    0    0  0.26803925748E+02 -0.81479966317E+02  0.23742045192E+03  0.36449286269E+03  0.26292421079E+03 0.  0.
         25    1    4    4    0    0  0.50870141467E+01  0.52809778572E-01  0.11841175542E+03  0.17232159593E+03  0.12509000000E+03 0.  0.
         25    1    4    4    0    0  0.21716911602E+02 -0.81532776096E+02  0.11900869649E+03  0.19217126676E+03  0.12509000000E+03 0.  0.
         25    1    3    3    0    0 -0.26803925748E+02  0.81479966317E+02  0.18022887647E+02  0.15274085218E+03  0.12509000000E+03 0.  0.
<mgrwt>
<rscale>  2 0.44975484E+03</rscale>
<asrwt>0</asrwt>
<pdfrwt beam="1">  1       21 0.56814489E-01 0.44975484E+03</pdfrwt>
<pdfrwt beam="2">  1       21 0.19249292E-01 0.44975484E+03</pdfrwt>
<totfact> 0.66813467E+04</totfact>
</mgrwt>
</event>
<event>
 7    0  0.4766352E-002  0.4098778E+03  0.7546771E-02  0.1040412E+00
         21   -1    0    0  502  501  0.00000000000E+00  0.00000000000E+00  0.10110767251E+03  0.10110767251E+03  0.00000000000E+00 0. -1.
         21   -1    0    0  501  502 -0.00000000000E+00 -0.00000000000E+00 -0.41539826649E+03  0.41539826649E+03  0.00000000000E+00 0. -1.
      99926    2    1    2    0    0 -0.86042284408E-15  0.00000000000E+00 -0.31429059397E+03  0.51650593900E+03  0.40987779589E+03 0.  0.
      99925    2    3    3    0    0  0.24014428054E+00 -0.12304253178E+01 -0.28457905562E+03  0.38792967670E+03  0.26363350232E+03 0.  0.
         25    1    3    3    0    0 -0.24014428054E+00  0.12304253178E+01 -0.29711538349E+02  0.12857626230E+03  0.12509000000E+03 0.  0.
         25    1    4    4    0    0 -0.37512026511E+02  0.13007808261E+02 -0.15872687875E+03  0.20595651324E+03  0.12509000000E+03 0.  0.
         25    1    4    4    0    0  0.37752170791E+02 -0.14238233579E+02 -0.12585217688E+03  0.18197316346E+03  0.12509000000E+03 0.  0.
<mgrwt>
<rscale>  2 0.40987780E+03</rscale>
<asrwt>0</asrwt>
<pdfrwt beam="1">  1       21 0.14868776E-01 0.40987780E+03</pdfrwt>
<pdfrwt beam="2">  1       21 0.61087978E-01 0.40987780E+03</pdfrwt>
<totfact> 0.93250491E+04</totfact>
</mgrwt>
</event>
<event>
 7    0  0.4766352E-002  0.4657484E+03  0.7546771E-02  0.1023127E+00
         21   -1    0    0  502  501  0.00000000000E+00  0.00000000000E+00  0.50525831757E+03  0.50525831757E+03  0.00000000000E+00 0.  1.
         21   -1    0    0  501  502 -0.00000000000E+00 -0.00000000000E+00 -0.10733203275E+03  0.10733203275E+03  0.00000000000E+00 0.  1.
      99926    2    1    2    0    0  0.00000000000E+00  0.00000000000E+00  0.39792628482E+03  0.61259035032E+03  0.46574843978E+03 0.  0.
      99925    2    3    3    0    0  0.56192640904E+02 -0.85487507535E+02  0.15803496633E+03  0.32334809956E+03  0.26289392551E+03 0.  0.
         25    1    3    3    0    0 -0.56192640904E+02  0.85487507535E+02  0.23989131850E+03  0.28924225076E+03  0.12509000000E+03 0.  0.
         25    1    4    4    0    0  0.30292287348E+02 -0.58342301144E+02  0.12494130713E+03  0.18862472028E+03  0.12509000000E+03 0.  0.
         25    1    4    4    0    0  0.25900353557E+02 -0.27145206391E+02  0.33093659199E+02  0.13472337928E+03  0.12509000000E+03 0.  0.
<mgrwt>
<rscale>  2 0.46574844E+03</rscale>
<asrwt>0</asrwt>
<pdfrwt beam="1">  1       21 0.74302693E-01 0.46574844E+03</pdfrwt>
<pdfrwt beam="2">  1       21 0.15784123E-01 0.46574844E+03</pdfrwt>
<totfact> 0.53243504E+04</totfact>
</mgrwt>
</event>
<event>
 7    0  0.4766352E-002  0.4577480E+03  0.7546771E-02  0.1025436E+00
         21   -1    0    0  502  501  0.00000000000E+00  0.00000000000E+00  0.40295984511E+03  0.40295984511E+03  0.00000000000E+00 0. -1.
         21   -1    0    0  501  502 -0.00000000000E+00 -0.00000000000E+00 -0.12999636883E+03  0.12999636883E+03  0.00000000000E+00 0. -1.
      99926    2    1    2    0    0 -0.35527136788E-14  0.00000000000E+00  0.27296347628E+03  0.53295621394E+03  0.45774803833E+03 0.  0.
      99925    2    3    3    0    0  0.31998059183E+02  0.11111207779E+03  0.17698835124E+03  0.33743510933E+03  0.26299773175E+03 0.  0.
         25    1    4    4    0    0 -0.10668221901E+02  0.24144966006E+02  0.94727486367E+02  0.15911503736E+03  0.12509000000E+03 0.  0.
         25    1    3    3    0    0 -0.31998059183E+02 -0.11111207779E+03  0.95975125037E+02  0.19552110461E+03  0.12509000000E+03 0.  0.
         25    1    4    4    0    0  0.42666281083E+02  0.86967111788E+02  0.82260864878E+02  0.17832007196E+03  0.12509000000E+03 0.  0.
<mgrwt>
<rscale>  2 0.45774804E+03</rscale>
<asrwt>0</asrwt>
<pdfrwt beam="1">  1       21 0.59258800E-01 0.45774804E+03</pdfrwt>
<pdfrwt beam="2">  1       21 0.19117113E-01 0.45774804E+03</pdfrwt>
<totfact> 0.61653044E+04</totfact>
</mgrwt>
</event>
<event>
 6    0  0.4766352E-002  0.4625313E+03  0.7546771E-02  0.1024050E+00
         21   -1    0    0  502  501  0.00000000000E+00  0.00000000000E+00  0.14683607739E+04  0.14683607739E+04  0.00000000000E+00 0. -1.
         21   -1    0    0  501  502 -0.00000000000E+00 -0.00000000000E+00 -0.36424159226E+02  0.36424159226E+02  0.00000000000E+00 0. -1.
      99926    2    1    2    0    0  0.00000000000E+00  0.00000000000E+00  0.14319366147E+04  0.15047849331E+04  0.46253132490E+03 0.  0.
         25    1    3    3    0    0 -0.48520076050E+02  0.23813189101E+02  0.89488088250E+03  0.90519642494E+03  0.12509000000E+03 0.  0.
         25    1    3    3    0    0  0.50222272798E+02 -0.18781634071E+02  0.33873277799E+03  0.36505126962E+03  0.12509000000E+03 0.  0.
         25    1    3    3    0    0 -0.17021967476E+01 -0.50315550299E+01  0.19832295417E+03  0.23453723856E+03  0.12509000000E+03 0.  0.
<mgrwt>
<rscale>  2 0.46253132E+03</rscale>
<asrwt>0</asrwt>
<pdfrwt beam="1">  1       21 0.21593537E+00 0.46253132E+03</pdfrwt>
<pdfrwt beam="2">  1       21 0.53564950E-02 0.46253132E+03</pdfrwt>
<totfact> 0.22327193E+04</totfact>
</mgrwt>
</event>
<event>
 7    0  0.4766352E-002  0.4556866E+03  0.7546771E-02  0.1026040E+00
         21   -1    0    0  502  501  0.00000000000E+00  0.00000000000E+00  0.92365926506E+02  0.92365926506E+02  0.00000000000E+00 0.  1.
         21   -1    0    0  501  502 -0.00000000000E+00 -0.00000000000E+00 -0.56203163812E+03  0.56203163812E+03  0.00000000000E+00 0.  1.
      99926    2    1    2    0    0  0.00000000000E+00  0.00000000000E+00 -0.46966571162E+03  0.65439756463E+03  0.45568661592E+03 0.  0.
      99925    2    3    3    0    0  0.11227614172E+03 -0.18796080333E+02 -0.29179883289E+03  0.40895233798E+03  0.26293769458E+03 0.  0.
         25    1    4    4    0    0  0.38872019514E+02 -0.34045534005E+02 -0.17993724741E+03  0.22515562039E+03  0.12509000000E+03 0.  0.
         25    1    4    4    0    0  0.73404122201E+02  0.15249453673E+02 -0.11186158548E+03  0.18379671760E+03  0.12509000000E+03 0.  0.
         25    1    3    3    0    0 -0.11227614172E+03  0.18796080333E+02 -0.17786687873E+03  0.24544522665E+03  0.12509000000E+03 0.  0.
<mgrwt>
<rscale>  2 0.45568662E+03</rscale>
<asrwt>0</asrwt>
<pdfrwt beam="1">  1       21 0.13583224E-01 0.45568662E+03</pdfrwt>
<pdfrwt beam="2">  1       21 0.82651715E-01 0.45568662E+03</pdfrwt>
<totfact> 0.55149565E+04</totfact>
</mgrwt>
</event>
<event>
 7    0  0.4766352E-002  0.4617627E+03  0.7546771E-02  0.1024271E+00
         21   -1    0    0  502  501  0.00000000000E+00  0.00000000000E+00  0.37806770495E+03  0.37806770495E+03  0.00000000000E+00 0.  1.
         21   -1    0    0  501  502 -0.00000000000E+00 -0.00000000000E+00 -0.14099642276E+03  0.14099642276E+03  0.00000000000E+00 0.  1.
      99926    2    1    2    0    0  0.71054273576E-14  0.00000000000E+00  0.23707128219E+03  0.51906412771E+03  0.46176268346E+03 0.  0.
      99925    2    3    3    0    0 -0.55067812890E+02  0.94564009042E+02  0.20213554002E+03  0.34923235799E+03  0.26292517473E+03 0.  0.
         25    1    4    4    0    0 -0.26038771293E+02  0.55520891983E+02  0.15140575126E+03  0.20574692384E+03  0.12509000000E+03 0.  0.
         25    1    4    4    0    0 -0.29029041597E+02  0.39043117059E+02  0.50729788764E+02  0.14348543415E+03  0.12509000000E+03 0.  0.
         25    1    3    3    0    0  0.55067812890E+02 -0.94564009042E+02  0.34935742168E+02  0.16983176971E+03  0.12509000000E+03 0.  0.
<mgrwt>
<rscale>  2 0.46176268E+03</rscale>
<asrwt>0</asrwt>
<pdfrwt beam="1">  1       21 0.55598192E-01 0.46176268E+03</pdfrwt>
<pdfrwt beam="2">  1       21 0.20734768E-01 0.46176268E+03</pdfrwt>
<totfact> 0.60631541E+04</totfact>
</mgrwt>
</event>
<event>
 7    0  0.4766352E-002  0.4545886E+03  0.7546771E-02  0.1026362E+00
         21   -1    0    0  502  501  0.00000000000E+00  0.00000000000E+00  0.13952577018E+04  0.13952577018E+04  0.00000000000E+00 0.  1.
         21   -1    0    0  501  502 -0.00000000000E+00 -0.00000000000E+00 -0.37027345003E+02  0.37027345003E+02  0.00000000000E+00 0.  1.
      99926    2    1    2    0    0  0.00000000000E+00  0.00000000000E+00  0.13582303568E+04  0.14322850468E+04  0.45458855372E+03 0.  0.
      99925    2    3    3    0    0  0.47025244953E+02 -0.94162231597E+02  0.98238830464E+03  0.10224281745E+04  0.26304883835E+03 0.  0.
         25    1    4    4    0    0  0.37155239774E+01 -0.65297326409E+02  0.61114259832E+03  0.62723227718E+03  0.12509000000E+03 0.  0.
         25    1    4    4    0    0  0.43309720976E+02 -0.28864905188E+02  0.37124570632E+03  0.39519589730E+03  0.12509000000E+03 0.  0.
         25    1    3    3    0    0 -0.47025244953E+02  0.94162231597E+02  0.37584205219E+03  0.40985687235E+03  0.12509000000E+03 0.  0.
<mgrwt>
<rscale>  2 0.45458855E+03</rscale>
<asrwt>0</asrwt>
<pdfrwt beam="1">  1       21 0.20518492E+00 0.45458855E+03</pdfrwt>
<pdfrwt beam="2">  1       21 0.54451987E-02 0.45458855E+03</pdfrwt>
<totfact> 0.25565885E+04</totfact>
</mgrwt>
</event>
<event>
 7    0  0.4766352E-002  0.4503739E+03  0.7546771E-02  0.1027611E+00
         21   -1    0    0  502  501  0.00000000000E+00  0.00000000000E+00  0.87686484141E+02  0.87686484141E+02  0.00000000000E+00 0. -1.
         21   -1    0    0  501  502 -0.00000000000E+00 -0.00000000000E+00 -0.57830068136E+03  0.57830068136E+03  0.00000000000E+00 0. -1.
      99926    2    1    2    0    0  0.00000000000E+00 -0.71054273576E-14 -0.49061419722E+03  0.66598716550E+03  0.45037386036E+03 0.  0.
      99925    2    3    3    0    0 -0.93214087771E+02 -0.53951166998E+02 -0.28770080612E+03  0.40441318559E+03  0.26301839528E+03 0.  0.
         25    1    4    4    0    0 -0.46690387062E+02  0.13772867545E+02 -0.12638415341E+03  0.18436416804E+03  0.12509000000E+03 0.  0.
         25    1    3    3    0    0  0.93214087771E+02  0.53951166998E+02 -0.20291339109E+03  0.26157397991E+03  0.12509000000E+03 0.  0.
         25    1    4    4    0    0 -0.46523700709E+02 -0.67724034543E+02 -0.16131665271E+03  0.22004901755E+03  0.12509000000E+03 0.  0.
<mgrwt>
<rscale>  2 0.45037386E+03</rscale>
<asrwt>0</asrwt>
<pdfrwt beam="1">  1       21 0.12895072E-01 0.45037386E+03</pdfrwt>
<pdfrwt beam="2">  1       21 0.85044215E-01 0.45037386E+03</pdfrwt>
<totfact> 0.56833155E+04</totfact>
</mgrwt>
</event>
<event>
 7    0  0.4766352E-002  0.4497824E+03  0.7546771E-02  0.1027787E+00
         21   -1    0    0  502  501  0.00000000000E+00  0.00000000000E+00  0.15766202252E+03  0.15766202252E+03  0.00000000000E+00 0.  1.
         21   -1    0    0  501  502 -0.00000000000E+00 -0.00000000000E+00 -0.32078774661E+03  0.32078774661E+03  0.00000000000E+00 0.  1.
      99926    2    1    2    0    0  0.00000000000E+00  0.00000000000E+00 -0.16312572408E+03  0.47844976913E+03  0.44978236929E+03 0.  0.
      99925    2    3    3    0    0 -0.50051663785E+02  0.71989418368E+02 -0.35936568782E+02  0.27967292257E+03  0.26313088233E+03 0.  0.
         25    1    4    4    0    0 -0.65476393133E+02  0.46838019335E+02 -0.16022354712E+02  0.14961678403E+03  0.12509000000E+03 0.  0.
         25    1    3    3    0    0  0.50051663785E+02 -0.71989418368E+02 -0.12718915530E+03  0.19877684657E+03  0.12509000000E+03 0.  0.
         25    1    4    4    0    0  0.15424729348E+02  0.25151399033E+02 -0.19914214071E+02  0.13005613854E+03  0.12509000000E+03 0.  0.
<mgrwt>
<rscale>  2 0.44978237E+03</rscale>
<asrwt>0</asrwt>
<pdfrwt beam="1">  1       21 0.23185592E-01 0.44978237E+03</pdfrwt>
<pdfrwt beam="2">  1       21 0.47174668E-01 0.44978237E+03</pdfrwt>
<totfact> 0.69653515E+04</totfact>
</mgrwt>
</event>
<event>
 7    0  0.4766352E-002  0.4562741E+03  0.7546771E-02  0.1025867E+00
         21   -1    0    0  502  501  0.00000000000E+00  0.00000000000E+00  0.11643602690E+03  0.11643602690E+03  0.00000000000E+00 0. -1.
         21   -1    0    0  501  502 -0.00000000000E+00 -0.00000000000E+00 -0.44699670567E+03  0.44699670567E+03  0.00000000000E+00 0. -1.
      99926    2    1    2    0    0 -0.35527136788E-14  0.00000000000E+00 -0.33056067877E+03  0.56343273256E+03  0.45627413008E+03 0.  0.
      99925    2    3    3    0    0  0.99785607703E+01 -0.86380907536E+02 -0.11605070128E+03  0.30032957522E+03  0.26299972552E+03 0.  0.
         25    1    4    4    0    0 -0.33184581668E+02 -0.28237079748E+02 -0.56108064079E+02  0.14385469088E+03  0.12509000000E+03 0.  0.
         25    1    3    3    0    0 -0.99785607703E+01  0.86380907536E+02 -0.21450997749E+03  0.26310315734E+03  0.12509000000E+03 0.  0.
         25    1    4    4    0    0  0.43163142438E+02 -0.58143827788E+02 -0.59942637201E+02  0.15647488434E+03  0.12509000000E+03 0.  0.
<mgrwt>
<rscale>  2 0.45627413E+03</rscale>
<asrwt>0</asrwt>
<pdfrwt beam="1">  1       21 0.17122945E-01 0.45627413E+03</pdfrwt>
<pdfrwt beam="2">  1       21 0.65734811E-01 0.45627413E+03</pdfrwt>
<totfact> 0.60376755E+04</totfact>
</mgrwt>
</event>
<event>
 7    0  0.4766352E-002  0.4344198E+03  0.7546771E-02  0.1032473E+00
         21   -1    0    0  502  501  0.00000000000E+00  0.00000000000E+00  0.69723180795E+02  0.69723180795E+02  0.00000000000E+00 0. -1.
         21   -1    0    0  501  502 -0.00000000000E+00 -0.00000000000E+00 -0.67667786899E+03  0.67667786899E+03  0.00000000000E+00 0. -1.
      99926    2    1    2    0    0  0.00000000000E+00  0.00000000000E+00 -0.60695468820E+03  0.74640104979E+03  0.43441976659E+03 0.  0.
      99925    2    3    3    0    0 -0.24254463846E+02  0.89099042835E+02 -0.40135926386E+03  0.48863389700E+03  0.26295799694E+03 0.  0.
         25    1    4    4    0    0 -0.20057189131E+02  0.23789745321E+02 -0.13187070602E+03  0.18440616591E+03  0.12509000000E+03 0.  0.
         25    1    4    4    0    0 -0.41972747147E+01  0.65309297515E+02 -0.26948855784E+03  0.30422773109E+03  0.12509000000E+03 0.  0.
         25    1    3    3    0    0  0.24254463846E+02 -0.89099042835E+02 -0.20559542434E+03  0.25776715280E+03  0.12509000000E+03 0.  0.
<mgrwt>
<rscale>  2 0.43441977E+03</rscale>
<asrwt>0</asrwt>
<pdfrwt beam="1">  1       21 0.10253409E-01 0.43441977E+03</pdfrwt>
<pdfrwt beam="2">  1       21 0.99511454E-01 0.43441977E+03</pdfrwt>
<totfact> 0.59513538E+04</totfact>
</mgrwt>
</event>
<event>
 7    0  0.4766352E-002  0.4644849E+03  0.7546771E-02  0.1023488E+00
         21   -1    0    0  502  501  0.00000000000E+00  0.00000000000E+00  0.23974255786E+03  0.23974255786E+03  0.00000000000E+00 0. -1.
         21   -1    0    0  501  502 -0.00000000000E+00 -0.00000000000E+00 -0.22497698459E+03  0.22497698459E+03  0.00000000000E+00 0. -1.
      99926    2    1    2    0    0  0.00000000000E+00  0.71054273576E-14  0.14765573268E+02  0.46471954245E+03  0.46448490931E+03 0.  0.
      99925    2    3    3    0    0 -0.18262283417E+02  0.53054178792E+02  0.11767004665E+03  0.29329872801E+03  0.26273493694E+03 0.  0.
         25    1    4    4    0    0 -0.59809306007E+01  0.53626329472E+02  0.28479596668E+02  0.13917668724E+03  0.12509000000E+03 0.  0.
         25    1    3    3    0    0  0.18262283417E+02 -0.53054178792E+02 -0.10290447338E+03  0.17142081444E+03  0.12509000000E+03 0.  0.
         25    1    4    4    0    0 -0.12281352817E+02 -0.57215067993E+00  0.89190449981E+02  0.15412204077E+03  0.12509000000E+03 0.  0.
<mgrwt>
<rscale>  2 0.46448491E+03</rscale>
<asrwt>0</asrwt>
<pdfrwt beam="1">  1       21 0.35256259E-01 0.46448491E+03</pdfrwt>
<pdfrwt beam="2">  1       21 0.33084851E-01 0.46448491E+03</pdfrwt>
<totfact> 0.62939732E+04</totfact>
</mgrwt>
</event>
<event>
 7    0  0.4766352E-002  0.4552942E+03  0.7546771E-02  0.1026155E+00
         21   -1    0    0  502  501  0.00000000000E+00  0.00000000000E+00  0.54551792423E+02  0.54551792423E+02  0.00000000000E+00 0.  1.
         21   -1    0    0  501  502 -0.00000000000E+00 -0.00000000000E+00 -0.94998145674E+03  0.94998145674E+03  0.00000000000E+00 0.  1.
      99926    2    1    2    0    0  0.88817841970E-15 -0.88817841970E-15 -0.89542966432E+03  0.10045332492E+04  0.45529415210E+03 0.  0.
      99925    2    3    3    0    0 -0.69136984284E+01  0.72705185509E+01 -0.81258661347E+03  0.85416324271E+03  0.26305357087E+03 0.  0.
         25    1    3    3    0    0  0.69136984284E+01 -0.72705185509E+01 -0.82843050848E+02  0.15037000645E+03  0.12509000000E+03 0.  0.
         25    1    4    4    0    0  0.87546101948E+00  0.17622071546E+02 -0.28411354679E+03  0.31093298218E+03  0.12509000000E+03 0.  0.
         25    1    4    4    0    0 -0.77891594479E+01 -0.10351552995E+02 -0.52847306668E+03  0.54323026054E+03  0.12509000000E+03 0.  0.
<mgrwt>
<rscale>  2 0.45529415E+03</rscale>
<asrwt>0</asrwt>
<pdfrwt beam="1">  1       21 0.80223227E-02 0.45529415E+03</pdfrwt>
<pdfrwt beam="2">  1       21 0.13970315E+00 0.45529415E+03</pdfrwt>
<totfact> 0.38901495E+04</totfact>
</mgrwt>
</event>
<event>
 7    0  0.4766352E-002  0.4595688E+03  0.7546771E-02  0.1024906E+00
         21   -1    0    0  502  501  0.00000000000E+00  0.00000000000E+00  0.25830053305E+03  0.25830053305E+03  0.00000000000E+00 0.  1.
         21   -1    0    0  501  502 -0.00000000000E+00 -0.00000000000E+00 -0.20441640195E+03  0.20441640195E+03  0.00000000000E+00 0.  1.
      99926    2    1    2    0    0  0.00000000000E+00  0.00000000000E+00  0.53884131099E+02  0.46271693500E+03  0.45956877870E+03 0.  0.
      99925    2    3    3    0    0  0.36939169402E+02 -0.93195398078E+02  0.94928754086E+02  0.29724169929E+03  0.26323235930E+03 0.  0.
         25    1    3    3    0    0 -0.36939169402E+02  0.93195398078E+02 -0.41044622987E+02  0.16547523572E+03  0.12509000000E+03 0.  0.
         25    1    4    4    0    0  0.22782141001E+02 -0.51817650165E+01  0.31768645449E+02  0.13115880287E+03  0.12509000000E+03 0.  0.
         25    1    4    4    0    0  0.14157028402E+02 -0.88013633061E+02  0.63160108636E+02  0.16608289641E+03  0.12509000000E+03 0.  0.
<mgrwt>
<rscale>  2 0.45956878E+03</rscale>
<asrwt>0</asrwt>
<pdfrwt beam="1">  1       21 0.37985372E-01 0.45956878E+03</pdfrwt>
<pdfrwt beam="2">  1       21 0.30061236E-01 0.45956878E+03</pdfrwt>
<totfact> 0.65561401E+04</totfact>
</mgrwt>
</event>
<event>
 7    0  0.4766352E-002  0.4425365E+03  0.7546771E-02  0.1029971E+00
         21   -1    0    0  502  501  0.00000000000E+00  0.00000000000E+00  0.32337612706E+03  0.32337612706E+03  0.00000000000E+00 0.  1.
         21   -1    0    0  501  502 -0.00000000000E+00 -0.00000000000E+00 -0.15140151092E+03  0.15140151092E+03  0.00000000000E+00 0.  1.
      99926    2    1    2    0    0  0.00000000000E+00  0.00000000000E+00  0.17197461614E+03  0.47477763798E+03  0.44253648090E+03 0.  0.
      99925    2    3    3    0    0  0.70507373438E+02  0.65625635996E+02  0.14157073374E+03  0.31399854116E+03  0.26320105887E+03 0.  0.
         25    1    4    4    0    0  0.49481965578E+02  0.50951667717E+02  0.11356406064E+03  0.18327258750E+03  0.12509000000E+03 0.  0.
         25    1    4    4    0    0  0.21025407859E+02  0.14673968279E+02  0.28006673094E+02  0.13072595365E+03  0.12509000000E+03 0.  0.
         25    1    3    3    0    0 -0.70507373438E+02 -0.65625635996E+02  0.30403882407E+02  0.16077909682E+03  0.12509000000E+03 0.  0.
<mgrwt>
<rscale>  2 0.44253648E+03</rscale>
<asrwt>0</asrwt>
<pdfrwt beam="1">  1       21 0.47555313E-01 0.44253648E+03</pdfrwt>
<pdfrwt beam="2">  1       21 0.22264928E-01 0.44253648E+03</pdfrwt>
<totfact> 0.74151120E+04</totfact>
</mgrwt>
</event>
<event>
 7    0  0.4766352E-002  0.4484108E+03  0.7546771E-02  0.1028197E+00
         21   -1    0    0  502  501  0.00000000000E+00  0.00000000000E+00  0.12549403584E+03  0.12549403584E+03  0.00000000000E+00 0. -1.
         21   -1    0    0  501  502 -0.00000000000E+00 -0.00000000000E+00 -0.40056136282E+03  0.40056136282E+03  0.00000000000E+00 0. -1.
      99926    2    1    2    0    0  0.00000000000E+00  0.00000000000E+00 -0.27506732698E+03  0.52605539866E+03  0.44841080282E+03 0.  0.
      99925    2    3    3    0    0  0.60875159599E+02  0.54733387777E+02 -0.25485756424E+03  0.37519960194E+03  0.26290841457E+03 0.  0.
         25    1    3    3    0    0 -0.60875159599E+02 -0.54733387777E+02 -0.20209762741E+02  0.15085579672E+03  0.12509000000E+03 0.  0.
         25    1    4    4    0    0  0.15006673952E+02  0.43480362657E+02 -0.17314062196E+03  0.21849696857E+03  0.12509000000E+03 0.  0.
         25    1    4    4    0    0  0.45868485647E+02  0.11253025120E+02 -0.81716942277E+02  0.15670263337E+03  0.12509000000E+03 0.  0.
<mgrwt>
<rscale>  2 0.44841080E+03</rscale>
<asrwt>0</asrwt>
<pdfrwt beam="1">  1       21 0.18455005E-01 0.44841080E+03</pdfrwt>
<pdfrwt beam="2">  1       21 0.58906082E-01 0.44841080E+03</pdfrwt>
<totfact> 0.66899104E+04</totfact>
</mgrwt>
</event>
<event>
 7    0  0.4766352E-002  0.4476316E+03  0.7546771E-02  0.1028431E+00
         21   -1    0    0  502  501  0.00000000000E+00  0.00000000000E+00  0.37298693376E+03  0.37298693376E+03  0.00000000000E+00 0. -1.
         21   -1    0    0  501  502 -0.00000000000E+00 -0.00000000000E+00 -0.13430366172E+03  0.13430366172E+03  0.00000000000E+00 0. -1.
      99926    2    1    2    0    0 -0.17763568394E-14  0.00000000000E+00  0.23868327205E+03  0.50729059548E+03  0.44763159395E+03 0.  0.
      99925    2    3    3    0    0 -0.12957175491E+02  0.91563600632E+02  0.92306006366E+02  0.29368911289E+03  0.26302303104E+03 0.  0.
         25    1    3    3    0    0  0.12957175491E+02 -0.91563600632E+02  0.14637726568E+03  0.21360148259E+03  0.12509000000E+03 0.  0.
         25    1    4    4    0    0 -0.29581482183E+02  0.17997528503E+02  0.64735533882E+02  0.14504196830E+03  0.12509000000E+03 0.  0.
         25    1    4    4    0    0  0.16624306692E+02  0.73566072129E+02  0.27570472484E+02  0.14864714459E+03  0.12509000000E+03 0.  0.
<mgrwt>
<rscale>  2 0.44763159E+03</rscale>
<asrwt>0</asrwt>
<pdfrwt beam="1">  1       21 0.54851019E-01 0.44763159E+03</pdfrwt>
<pdfrwt beam="2">  1       21 0.19750539E-01 0.44763159E+03</pdfrwt>
<totfact> 0.68691142E+04</totfact>
</mgrwt>
</event>
<event>
 7    0  0.4766352E-002  0.4584247E+03  0.7546771E-02  0.1025239E+00
         21   -1    0    0  502  501  0.00000000000E+00  0.00000000000E+00  0.70747548997E+02  0.70747548997E+02  0.00000000000E+00 0. -1.
         21   -1    0    0  501  502 -0.00000000000E+00 -0.00000000000E+00 -0.74261648587E+03  0.74261648587E+03  0.00000000000E+00 0. -1.
      99926    2    1    2    0    0  0.00000000000E+00  0.00000000000E+00 -0.67186893688E+03  0.81336403487E+03  0.45842467743E+03 0.  0.
      99925    2    3    3    0    0 -0.68559724765E+02  0.48773909977E+02 -0.27857061971E+03  0.39216288988E+03  0.26288935292E+03 0.  0.
         25    1    4    4    0    0 -0.36309650378E+02  0.18051500122E+01 -0.88044149582E+02  0.15722890845E+03  0.12509000000E+03 0.  0.
         25    1    3    3    0    0  0.68559724765E+02 -0.48773909977E+02 -0.39329831717E+03  0.42120114499E+03  0.12509000000E+03 0.  0.
         25    1    4    4    0    0 -0.32250074387E+02  0.46968759965E+02 -0.19052647013E+03  0.23493398143E+03  0.12509000000E+03 0.  0.
<mgrwt>
<rscale>  2 0.45842468E+03</rscale>
<asrwt>0</asrwt>
<pdfrwt beam="1">  1       21 0.10404052E-01 0.45842468E+03</pdfrwt>
<pdfrwt beam="2">  1       21 0.10920830E+00 0.45842468E+03</pdfrwt>
<totfact> 0.45879759E+04</totfact>
</mgrwt>
</event>
<event>
 7    0  0.4766352E-002  0.4629522E+03  0.7546771E-02  0.1023928E+00
         21   -1    0    0  502  501  0.00000000000E+00  0.00000000000E+00  0.16872386121E+03  0.16872386121E+03  0.00000000000E+00 0. -1.
         21   -1    0    0  501  502 -0.00000000000E+00 -0.00000000000E+00 -0.31756729168E+03  0.31756729168E+03  0.00000000000E+00 0. -1.
      99926    2    1    2    0    0  0.00000000000E+00 -0.71054273576E-14 -0.14884343047E+03  0.48629115289E+03  0.46295217742E+03 0.  0.
      99925    2    3    3    0    0 -0.85401511183E+02 -0.54590101572E+02 -0.24664053580E+02  0.28296500344E+03  0.26303494128E+03 0.  0.
         25    1    4    4    0    0 -0.65763464875E+02  0.32846037008E+01 -0.26021990842E+02  0.14373682215E+03  0.12509000000E+03 0.  0.
         25    1    3    3    0    0  0.85401511183E+02  0.54590101572E+02 -0.12417937689E+03  0.20332614944E+03  0.12509000000E+03 0.  0.
         25    1    4    4    0    0 -0.19638046308E+02 -0.57874705273E+02  0.13579372621E+01  0.13922818130E+03  0.12509000000E+03 0.  0.
<mgrwt>
<rscale>  2 0.46295218E+03</rscale>
<asrwt>0</asrwt>
<pdfrwt beam="1">  1       21 0.24812333E-01 0.46295218E+03</pdfrwt>
<pdfrwt beam="2">  1       21 0.46701071E-01 0.46295218E+03</pdfrwt>
<totfact> 0.62223479E+04</totfact>
</mgrwt>
</event>
<event>
 7    0  0.4766352E-002  0.4556969E+03  0.7546771E-02  0.1026037E+00
         21   -1    0    0  502  501  0.00000000000E+00  0.00000000000E+00  0.11498968591E+03  0.11498968591E+03  0.00000000000E+00 0.  1.
         21   -1    0    0  501  502 -0.00000000000E+00 -0.00000000000E+00 -0.45147461293E+03  0.45147461293E+03  0.00000000000E+00 0.  1.
      99926    2    1    2    0    0 -0.14210854715E-13  0.00000000000E+00 -0.33648492702E+03  0.56646429885E+03  0.45569693411E+03 0.  0.
      99925    2    3    3    0    0 -0.91614023006E+02 -0.52715398012E+02 -0.15920763080E+03  0.32512058077E+03  0.26302904771E+03 0.  0.
         25    1    4    4    0    0 -0.71012760998E+02 -0.58705320488E+01 -0.53658680166E+02  0.15363605511E+03  0.12509000000E+03 0.  0.
         25    1    3    3    0    0  0.91614023006E+02  0.52715398012E+02 -0.17727729622E+03  0.24134371807E+03  0.12509000000E+03 0.  0.
         25    1    4    4    0    0 -0.20601262008E+02 -0.46844865963E+02 -0.10554895064E+03  0.17148452567E+03  0.12509000000E+03 0.  0.
<mgrwt>
<rscale>  2 0.45569693E+03</rscale>
<asrwt>0</asrwt>
<pdfrwt beam="1">  1       21 0.16910248E-01 0.45569693E+03</pdfrwt>
<pdfrwt beam="2">  1       21 0.66393326E-01 0.45569693E+03</pdfrwt>
<totfact> 0.60457553E+04</totfact>
</mgrwt>
</event>
<event>
 7    0  0.4766352E-002  0.4555452E+03  0.7546771E-02  0.1026081E+00
         21   -1    0    0  502  501  0.00000000000E+00  0.00000000000E+00  0.40396145706E+03  0.40396145706E+03  0.00000000000E+00 0. -1.
         21   -1    0    0  501  502 -0.00000000000E+00 -0.00000000000E+00 -0.12842896362E+03  0.12842896362E+03  0.00000000000E+00 0. -1.
      99926    2    1    2    0    0  0.00000000000E+00  0.00000000000E+00  0.27553249344E+03  0.53239042069E+03  0.45554517350E+03 0.  0.
      99925    2    3    3    0    0  0.45542090365E+02  0.77833903702E+02  0.25420595390E+03  0.37671599135E+03  0.26298682967E+03 0.  0.
         25    1    3    3    0    0 -0.45542090365E+02 -0.77833903702E+02  0.21326539541E+02  0.15567442934E+03  0.12509000000E+03 0.  0.
         25    1    4    4    0    0  0.56460068690E+02  0.17262955394E+02  0.13511760882E+03  0.19336500536E+03  0.12509000000E+03 0.  0.
         25    1    4    4    0    0 -0.10917978325E+02  0.60570948308E+02  0.11908834508E+03  0.18335098599E+03  0.12509000000E+03 0.  0.
<mgrwt>
<rscale>  2 0.45554517E+03</rscale>
<asrwt>0</asrwt>
<pdfrwt beam="1">  1       21 0.59406096E-01 0.45554517E+03</pdfrwt>
<pdfrwt beam="2">  1       21 0.18886612E-01 0.45554517E+03</pdfrwt>
<totfact> 0.62773302E+04</totfact>
</mgrwt>
</event>
<event>
 7    0  0.4766352E-002  0.4203133E+03  0.7546771E-02  0.1036964E+00
         21   -1    0    0  502  501  0.00000000000E+00  0.00000000000E+00  0.18560927767E+03  0.18560927767E+03  0.00000000000E+00 0. -1.
         21   -1    0    0  501  502 -0.00000000000E+00 -0.00000000000E+00 -0.23795046245E+03  0.23795046245E+03  0.00000000000E+00 0. -1.
      99926    2    1    2    0    0 -0.35527136788E-14  0.00000000000E+00 -0.52341184773E+02  0.42355974012E+03  0.42031328057E+03 0.  0.
      99925    2    3    3    0    0  0.26786389755E+02  0.68551816042E+02 -0.54082873730E+02  0.27841359398E+03  0.26300629255E+03 0.  0.
         25    1    3    3    0    0 -0.26786389755E+02 -0.68551816042E+02  0.17416889565E+01  0.14514614614E+03  0.12509000000E+03 0.  0.
         25    1    4    4    0    0 -0.20949090132E+02  0.10798543941E+02 -0.26095969813E+02  0.12993837258E+03  0.12509000000E+03 0.  0.
         25    1    4    4    0    0  0.47735479887E+02  0.57753272101E+02 -0.27986903917E+02  0.14847522140E+03  0.12509000000E+03 0.  0.
<mgrwt>
<rscale>  2 0.42031328E+03</rscale>
<asrwt>0</asrwt>
<pdfrwt beam="1">  1       21 0.27295482E-01 0.42031328E+03</pdfrwt>
<pdfrwt beam="2">  1       21 0.34992715E-01 0.42031328E+03</pdfrwt>
<totfact> 0.94473586E+04</totfact>
</mgrwt>
</event>
<event>
 6    0  0.4766352E-002  0.4587193E+03  0.7546771E-02  0.1025153E+00
         21   -1    0    0  502  501  0.00000000000E+00  0.00000000000E+00  0.11756273584E+03  0.11756273584E+03  0.00000000000E+00 0. -1.
         21   -1    0    0  501  502 -0.00000000000E+00 -0.00000000000E+00 -0.44747049244E+03  0.44747049244E+03  0.00000000000E+00 0. -1.
      99926    2    1    2    0    0  0.00000000000E+00 -0.35527136788E-14 -0.32990775660E+03  0.56503322829E+03  0.45871932726E+03 0.  0.
         25    1    3    3    0    0 -0.21492699261E+01  0.19069038461E+02 -0.17863484517E+03  0.21892045039E+03  0.12509000000E+03 0.  0.
         25    1    3    3    0    0  0.26797041831E+02 -0.44404517469E+02 -0.16719335984E+03  0.21515336459E+03  0.12509000000E+03 0.  0.
         25    1    3    3    0    0 -0.24647771905E+02  0.25335479008E+02  0.15920448405E+02  0.13095941331E+03  0.12509000000E+03 0.  0.
<mgrwt>
<rscale>  2 0.45871933E+03</rscale>
<asrwt>0</asrwt>
<pdfrwt beam="1">  1       21 0.17288638E-01 0.45871933E+03</pdfrwt>
<pdfrwt beam="2">  1       21 0.65804484E-01 0.45871933E+03</pdfrwt>
<totfact> 0.59125384E+04</totfact>
</mgrwt>
</event>
<event>
 7    0  0.4766352E-002  0.4611700E+03  0.7546771E-02  0.1024442E+00
         21   -1    0    0  502  501  0.00000000000E+00  0.00000000000E+00  0.45508549539E+03  0.45508549539E+03  0.00000000000E+00 0. -1.
         21   -1    0    0  501  502 -0.00000000000E+00 -0.00000000000E+00 -0.11683398271E+03  0.11683398271E+03  0.00000000000E+00 0. -1.
      99926    2    1    2    0    0 -0.14210854715E-13  0.14210854715E-13  0.33825151268E+03  0.57191947810E+03  0.46117003762E+03 0.  0.
      99925    2    3    3    0    0 -0.92711876595E+02  0.64712829684E+02  0.25725944721E+03  0.38486209344E+03  0.26296989447E+03 0.  0.
         25    1    4    4    0    0 -0.38683234805E+02  0.67946001550E+02  0.15864473199E+03  0.21663035538E+03  0.12509000000E+03 0.  0.
         25    1    3    3    0    0  0.92711876595E+02 -0.64712829684E+02  0.80992065465E+02  0.18705738466E+03  0.12509000000E+03 0.  0.
         25    1    4    4    0    0 -0.54028641791E+02 -0.32331718661E+01  0.98614715219E+02  0.16823173806E+03  0.12509000000E+03 0.  0.
<mgrwt>
<rscale>  2 0.46117004E+03</rscale>
<asrwt>0</asrwt>
<pdfrwt beam="1">  1       21 0.66924337E-01 0.46117004E+03</pdfrwt>
<pdfrwt beam="2">  1       21 0.17181468E-01 0.46117004E+03</pdfrwt>
<totfact> 0.57579710E+04</totfact>
</mgrwt>
</event>
<event>
 7    0  0.4766352E-002  0.4458771E+03  0.7546771E-02  0.1028959E+00
         21   -1    0    0  502  501  0.00000000000E+00  0.00000000000E+00  0.90805795998E+03  0.90805795998E+03  0.00000000000E+00 0.  1.
         21   -1    0    0  501  502 -0.00000000000E+00 -0.00000000000E+00 -0.54733941719E+02  0.54733941719E+02  0.00000000000E+00 0.  1.
      99926    2    1    2    0    0 -0.17763568394E-14  0.00000000000E+00  0.85332401826E+03  0.96279190170E+03  0.44587707480E+03 0.  0.
      99925    2    3    3    0    0  0.54242730815E+01 -0.98709299730E+02  0.61554046135E+03  0.67650275306E+03  0.26266512282E+03 0.  0.
         25    1    4    4    0    0 -0.21320713274E+02 -0.35085659530E+02  0.36600504789E+03  0.38896372517E+03  0.12509000000E+03 0.  0.
         25    1    3    3    0    0 -0.54242730815E+01  0.98709299730E+02  0.23778355691E+03  0.28628914864E+03  0.12509000000E+03 0.  0.
         25    1    4    4    0    0  0.26744986356E+02 -0.63623640201E+02  0.24953541346E+03  0.28753902789E+03  0.12509000000E+03 0.  0.
<mgrwt>
<rscale>  2 0.44587707E+03</rscale>
<asrwt>0</asrwt>
<pdfrwt beam="1">  1       21 0.13353793E+00 0.44587707E+03</pdfrwt>
<pdfrwt beam="2">  1       21 0.80491096E-02 0.44587707E+03</pdfrwt>
<totfact> 0.43659060E+04</totfact>
</mgrwt>
</event>
<event>
 7    0  0.4766352E-002  0.4561356E+03  0.7546771E-02  0.1025908E+00
         21   -1    0    0  502  501  0.00000000000E+00  0.00000000000E+00  0.21774615975E+04  0.21774615975E+04  0.00000000000E+00 0.  1.
         21   -1    0    0  501  502 -0.00000000000E+00 -0.00000000000E+00 -0.23887866246E+02  0.23887866246E+02  0.00000000000E+00 0.  1.
      99926    2    1    2    0    0  0.00000000000E+00  0.00000000000E+00  0.21535737313E+04  0.22013494638E+04  0.45613555616E+03 0.  0.
      99925    2    3    3    0    0 -0.26576008800E+02  0.88353277818E+02  0.16782635144E+04  0.17012695738E+04  0.26312953686E+03 0.  0.
         25    1    3    3    0    0  0.26576008800E+02 -0.88353277818E+02  0.47531021693E+03  0.50007988999E+03  0.12509000000E+03 0.  0.
         25    1    4    4    0    0 -0.88897556495E+01  0.75732410644E+02  0.10625888291E+04  0.10726401790E+04  0.12509000000E+03 0.  0.
         25    1    4    4    0    0 -0.17686253150E+02  0.12620867174E+02  0.61567468527E+03  0.62862939482E+03  0.12509000000E+03 0.  0.
<mgrwt>
<rscale>  2 0.45613556E+03</rscale>
<asrwt>0</asrwt>
<pdfrwt beam="1">  1       21 0.32021481E+00 0.45613556E+03</pdfrwt>
<pdfrwt beam="2">  1       21 0.35129230E-02 0.45613556E+03</pdfrwt>
<totfact> 0.10598659E+04</totfact>
</mgrwt>
</event>
<event>
 7    0  0.4766352E-002  0.3975689E+03  0.7546771E-02  0.1044625E+00
         21   -1    0    0  502  501  0.00000000000E+00  0.00000000000E+00  0.33948854433E+02  0.33948854433E+02  0.00000000000E+00 0. -1.
         21   -1    0    0  501  502 -0.00000000000E+00 -0.00000000000E+00 -0.11639644902E+04  0.11639644902E+04  0.00000000000E+00 0. -1.
      99926    2    1    2    0    0  0.35527136788E-14  0.88817841970E-15 -0.11300156358E+04  0.11979133446E+04  0.39756891751E+03 0.  0.
      99925    2    3    3    0    0  0.24905927561E+02  0.62354436042E+01 -0.85083473685E+03  0.89091388469E+03  0.26296124148E+03 0.  0.
         25    1    3    3    0    0 -0.24905927561E+02 -0.62354436042E+01 -0.27918089891E+03  0.30699945994E+03  0.12509000000E+03 0.  0.
         25    1    4    4    0    0  0.28283996116E+02  0.39182220686E+02 -0.46563333204E+03  0.48455870528E+03  0.12509000000E+03 0.  0.
         25    1    4    4    0    0 -0.33780685555E+01 -0.32946777082E+02 -0.38520140481E+03  0.40635517941E+03  0.12509000000E+03 0.  0.
<mgrwt>
<rscale>  2 0.39756892E+03</rscale>
<asrwt>0</asrwt>
<pdfrwt beam="1">  1       21 0.49924776E-02 0.39756892E+03</pdfrwt>
<pdfrwt beam="2">  1       21 0.17117128E+00 0.39756892E+03</pdfrwt>
<totfact> 0.51798467E+04</totfact>
</mgrwt>
</event>
<event>
 7    0  0.4766352E-002  0.4532586E+03  0.7546771E-02  0.1026755E+00
         21   -1    0    0  502  501  0.00000000000E+00  0.00000000000E+00  0.23710752357E+03  0.23710752357E+03  0.00000000000E+00 0. -1.
         21   -1    0    0  501  502 -0.00000000000E+00 -0.00000000000E+00 -0.21661410255E+03  0.21661410255E+03  0.00000000000E+00 0. -1.
      99926    2    1    2    0    0  0.00000000000E+00  0.00000000000E+00  0.20493421022E+02  0.45372162611E+03  0.45325857267E+03 0.  0.
      99925    2    3    3    0    0  0.10336409390E+03  0.40194524398E+02  0.23200651559E+02  0.28652541534E+03  0.26317068170E+03 0.  0.
         25    1    4    4    0    0  0.41571246756E+02 -0.20419005567E+02  0.75056407953E+01  0.13359995168E+03  0.12509000000E+03 0.  0.
         25    1    4    4    0    0  0.61792847143E+02  0.60613529965E+02  0.15695010764E+02  0.15292546366E+03  0.12509000000E+03 0.  0.
         25    1    3    3    0    0 -0.10336409390E+03 -0.40194524398E+02 -0.27072305371E+01  0.16719621077E+03  0.12509000000E+03 0.  0.
<mgrwt>
<rscale>  2 0.45325857E+03</rscale>
<asrwt>0</asrwt>
<pdfrwt beam="1">  1       21 0.34868754E-01 0.45325857E+03</pdfrwt>
<pdfrwt beam="2">  1       21 0.31855015E-01 0.45325857E+03</pdfrwt>
<totfact> 0.69601644E+04</totfact>
</mgrwt>
</event>
<event>
 7    0  0.4766352E-002  0.4505689E+03  0.7546771E-02  0.1027553E+00
         21   -1    0    0  502  501  0.00000000000E+00  0.00000000000E+00  0.66160079883E+02  0.66160079883E+02  0.00000000000E+00 0. -1.
         21   -1    0    0  501  502 -0.00000000000E+00 -0.00000000000E+00 -0.76712548929E+03  0.76712548929E+03  0.00000000000E+00 0. -1.
      99926    2    1    2    0    0 -0.17763568394E-14  0.00000000000E+00 -0.70096540941E+03  0.83328556917E+03  0.45056890106E+03 0.  0.
      99925    2    3    3    0    0 -0.13868747364E+02 -0.72588199919E+02 -0.29451395110E+03  0.40164719624E+03  0.26290799520E+03 0.  0.
         25    1    4    4    0    0  0.31011363262E+02 -0.23047924370E+02 -0.13130100881E+03  0.18541945552E+03  0.12509000000E+03 0.  0.
         25    1    3    3    0    0  0.13868747364E+02  0.72588199919E+02 -0.40645145831E+03  0.43163837293E+03  0.12509000000E+03 0.  0.
         25    1    4    4    0    0 -0.44880110626E+02 -0.49540275549E+02 -0.16321294228E+03  0.21622774073E+03  0.12509000000E+03 0.  0.
<mgrwt>
<rscale>  2 0.45056890E+03</rscale>
<asrwt>0</asrwt>
<pdfrwt beam="1">  1       21 0.97294230E-02 0.45056890E+03</pdfrwt>
<pdfrwt beam="2">  1       21 0.11281258E+00 0.45056890E+03</pdfrwt>
<totfact> 0.47838138E+04</totfact>
</mgrwt>
</event>
<event>
 7    0  0.4766352E-002  0.4523750E+03  0.7546771E-02  0.1027016E+00
         21   -1    0    0  502  501  0.00000000000E+00  0.00000000000E+00  0.72533807390E+02  0.72533807390E+02  0.00000000000E+00 0.  1.
         21   -1    0    0  501  502 -0.00000000000E+00 -0.00000000000E+00 -0.70533700099E+03  0.70533700099E+03  0.00000000000E+00 0.  1.
      99926    2    1    2    0    0  0.35527136788E-14  0.17763568394E-14 -0.63280319360E+03  0.77787080838E+03  0.45237496914E+03 0.  0.
      99925    2    3    3    0    0 -0.20512805940E+02 -0.42195113057E+01 -0.58605196523E+03  0.64269771588E+03  0.26299214544E+03 0.  0.
         25    1    3    3    0    0  0.20512805940E+02  0.42195113057E+01 -0.46751228373E+02  0.13517309251E+03  0.12509000000E+03 0.  0.
         25    1    4    4    0    0 -0.27611257746E+02  0.22352546540E+02 -0.36164777783E+03  0.38431580920E+03  0.12509000000E+03 0.  0.
         25    1    4    4    0    0  0.70984518065E+01 -0.26572057846E+02 -0.22440418740E+03  0.25838190668E+03  0.12509000000E+03 0.  0.
<mgrwt>
<rscale>  2 0.45237497E+03</rscale>
<asrwt>0</asrwt>
<pdfrwt beam="1">  1       21 0.10666735E-01 0.45237497E+03</pdfrwt>
<pdfrwt beam="2">  1       21 0.10372604E+00 0.45237497E+03</pdfrwt>
<totfact> 0.49873557E+04</totfact>
</mgrwt>
</event>
<event>
 7    0  0.4766352E-002  0.4470325E+03  0.7546771E-02  0.1028611E+00
         21   -1    0    0  502  501  0.00000000000E+00  0.00000000000E+00  0.26110180229E+03  0.26110180229E+03  0.00000000000E+00 0.  1.
         21   -1    0    0  501  502 -0.00000000000E+00 -0.00000000000E+00 -0.19134115421E+03  0.19134115421E+03  0.00000000000E+00 0.  1.
      99926    2    1    2    0    0 -0.71054273576E-14  0.88817841970E-15  0.69760648077E+02  0.45244295650E+03  0.44703252775E+03 0.  0.
      99925    2    3    3    0    0  0.16864073372E+02  0.14331606681E+01  0.14965200086E+03  0.30305558331E+03  0.26298386699E+03 0.  0.
         25    1    4    4    0    0 -0.20914581724E+02 -0.23434117012E+02  0.90036618348E+02  0.15729169817E+03  0.12509000000E+03 0.  0.
         25    1    3    3    0    0 -0.16864073372E+02 -0.14331606681E+01 -0.79891352781E+02  0.14938737319E+03  0.12509000000E+03 0.  0.
         25    1    4    4    0    0  0.37778655096E+02  0.24867277680E+02  0.59615382510E+02  0.14576388514E+03  0.12509000000E+03 0.  0.
<mgrwt>
<rscale>  2 0.44703253E+03</rscale>
<asrwt>0</asrwt>
<pdfrwt beam="1">  1       21 0.38397324E-01 0.44703253E+03</pdfrwt>
<pdfrwt beam="2">  1       21 0.28138405E-01 0.44703253E+03</pdfrwt>
<totfact> 0.73281405E+04</totfact>
</mgrwt>
</event>
<event>
 7    0  0.4766352E-002  0.4531507E+03  0.7546771E-02  0.1026787E+00
         21   -1    0    0  502  501  0.00000000000E+00  0.00000000000E+00  0.50554603138E+03  0.50554603138E+03  0.00000000000E+00 0.  1.
         21   -1    0    0  501  502 -0.00000000000E+00 -0.00000000000E+00 -0.10154641923E+03  0.10154641923E+03  0.00000000000E+00 0.  1.
      99926    2    1    2    0    0  0.00000000000E+00  0.00000000000E+00  0.40399961216E+03  0.60709245061E+03  0.45315070006E+03 0.  0.
      99925    2    3    3    0    0 -0.91201051161E+02  0.41991680358E+02  0.31929939260E+03  0.42570179968E+03  0.26303799570E+03 0.  0.
         25    1    3    3    0    0  0.91201051161E+02 -0.41991680358E+02  0.84700219559E+02  0.18139065093E+03  0.12509000000E+03 0.  0.
         25    1    4    4    0    0 -0.76527122427E+02  0.44777654114E+02  0.14833832454E+03  0.21333824177E+03  0.12509000000E+03 0.  0.
         25    1    4    4    0    0 -0.14673928734E+02 -0.27859737558E+01  0.17096106806E+03  0.21236355791E+03  0.12509000000E+03 0.  0.
<mgrwt>
<rscale>  2 0.45315070E+03</rscale>
<asrwt>0</asrwt>
<pdfrwt beam="1">  1       21 0.74345004E-01 0.45315070E+03</pdfrwt>
<pdfrwt beam="2">  1       21 0.14933297E-01 0.45315070E+03</pdfrwt>
<totfact> 0.59102505E+04</totfact>
</mgrwt>
</event>
<event>
 7    0  0.4766352E-002  0.4591240E+03  0.7546771E-02  0.1025036E+00
         21   -1    0    0  502  501  0.00000000000E+00  0.00000000000E+00  0.22880882920E+03  0.22880882920E+03  0.00000000000E+00 0.  1.
         21   -1    0    0  501  502 -0.00000000000E+00 -0.00000000000E+00 -0.23031761194E+03  0.23031761194E+03  0.00000000000E+00 0.  1.
      99926    2    1    2    0    0  0.14210854715E-13  0.00000000000E+00 -0.15087827364E+01  0.45912644114E+03  0.45912396205E+03 0.  0.
      99925    2    3    3    0    0 -0.62113983509E+02  0.19109621165E+02  0.96425125478E+02  0.28748179937E+03  0.26291568150E+03 0.  0.
         25    1    4    4    0    0 -0.72556976977E+02  0.98954238608E+01  0.53233770119E+02  0.15441430213E+03  0.12509000000E+03 0.  0.
         25    1    4    4    0    0  0.10442993468E+02  0.92141973041E+01  0.43191355360E+02  0.13306749724E+03  0.12509000000E+03 0.  0.
         25    1    3    3    0    0  0.62113983509E+02 -0.19109621165E+02 -0.97933908215E+02  0.17164464177E+03  0.12509000000E+03 0.  0.
<mgrwt>
<rscale>  2 0.45912396E+03</rscale>
<asrwt>0</asrwt>
<pdfrwt beam="1">  1       21 0.33648357E-01 0.45912396E+03</pdfrwt>
<pdfrwt beam="2">  1       21 0.33870237E-01 0.45912396E+03</pdfrwt>
<totfact> 0.66044452E+04</totfact>
</mgrwt>
</event>
<event>
 7    0  0.4766352E-002  0.4556051E+03  0.7546771E-02  0.1026064E+00
         21   -1    0    0  502  501  0.00000000000E+00  0.00000000000E+00  0.19706221700E+03  0.19706221700E+03  0.00000000000E+00 0. -1.
         21   -1    0    0  501  502 -0.00000000000E+00 -0.00000000000E+00 -0.26333813078E+03  0.26333813078E+03  0.00000000000E+00 0. -1.
      99926    2    1    2    0    0  0.00000000000E+00 -0.14210854715E-13 -0.66275913785E+02  0.46040034778E+03  0.45560507403E+03 0.  0.
      99925    2    3    3    0    0  0.64054921708E+02 -0.84619929753E+02 -0.25342295353E+00  0.28356697168E+03  0.26295740662E+03 0.  0.
         25    1    4    4    0    0  0.17092131714E+02 -0.79841457555E+02  0.81556056503E+01  0.14960221026E+03  0.12509000000E+03 0.  0.
         25    1    3    3    0    0 -0.64054921708E+02  0.84619929753E+02 -0.66022490832E+02  0.17683337610E+03  0.12509000000E+03 0.  0.
         25    1    4    4    0    0  0.46962789993E+02 -0.47784721979E+01 -0.84090286038E+01  0.13396476142E+03  0.12509000000E+03 0.  0.
<mgrwt>
<rscale>  2 0.45560507E+03</rscale>
<asrwt>0</asrwt>
<pdfrwt beam="1">  1       21 0.28979738E-01 0.45560507E+03</pdfrwt>
<pdfrwt beam="2">  1       21 0.38726196E-01 0.45560507E+03</pdfrwt>
<totfact> 0.67823549E+04</totfact>
</mgrwt>
</event>
<event>
 7    0  0.4766352E-002  0.4514619E+03  0.7546771E-02  0.1027287E+00
         21   -1    0    0  502  501  0.00000000000E+00  0.00000000000E+00  0.16530626240E+02  0.16530626240E+02  0.00000000000E+00 0.  1.
         21   -1    0    0  501  502 -0.00000000000E+00 -0.00000000000E+00 -0.30824282547E+04  0.30824282547E+04  0.00000000000E+00 0.  1.
      99926    2    1    2    0    0  0.00000000000E+00  0.00000000000E+00 -0.30658976285E+04  0.30989588810E+04  0.45146193368E+03 0.  0.
      99925    2    3    3    0    0 -0.45983910264E+02  0.99212830166E+02 -0.20025165790E+04  0.20226761717E+04  0.26303714735E+03 0.  0.
         25    1    4    4    0    0  0.70788406907E+01  0.76532160147E+02 -0.10784362488E+04  0.10883839086E+04  0.12509000000E+03 0.  0.
         25    1    4    4    0    0 -0.53062750955E+02  0.22680670019E+02 -0.92408033013E+03  0.93429226315E+03  0.12509000000E+03 0.  0.
         25    1    3    3    0    0  0.45983910264E+02 -0.99212830166E+02 -0.10633810495E+04  0.10762827093E+04  0.12509000000E+03 0.  0.
<mgrwt>
<rscale>  2 0.45146193E+03</rscale>
<asrwt>0</asrwt>
<pdfrwt beam="1">  1       21 0.24309725E-02 0.45146193E+03</pdfrwt>
<pdfrwt beam="2">  1       21 0.45329863E+00 0.45146193E+03</pdfrwt>
<totfact> 0.28098060E+03</totfact>
</mgrwt>
</event>
<event>
 7    0  0.4766352E-002  0.4527939E+03  0.7546771E-02  0.1026892E+00
         21   -1    0    0  502  501  0.00000000000E+00  0.00000000000E+00  0.32664851288E+03  0.32664851288E+03  0.00000000000E+00 0. -1.
         21   -1    0    0  501  502 -0.00000000000E+00 -0.00000000000E+00 -0.15691352047E+03  0.15691352047E+03  0.00000000000E+00 0. -1.
      99926    2    1    2    0    0  0.00000000000E+00  0.00000000000E+00  0.16973499241E+03  0.48356203335E+03  0.45279385205E+03 0.  0.
      99925    2    3    3    0    0  0.66208515353E+02  0.67266199618E+02  0.16959115828E+03  0.32685900880E+03  0.26299684703E+03 0.  0.
         25    1    3    3    0    0 -0.66208515353E+02 -0.67266199618E+02  0.14383413003E+00  0.15670302455E+03  0.12509000000E+03 0.  0.
         25    1    4    4    0    0  0.31682230412E+02  0.16708101991E+02  0.38736796626E+02  0.13576071563E+03  0.12509000000E+03 0.  0.
         25    1    4    4    0    0  0.34526284941E+02  0.50558097627E+02  0.13085436165E+03  0.19109829316E+03  0.12509000000E+03 0.  0.
<mgrwt>
<rscale>  2 0.45279385E+03</rscale>
<asrwt>0</asrwt>
<pdfrwt beam="1">  1       21 0.48036546E-01 0.45279385E+03</pdfrwt>
<pdfrwt beam="2">  1       21 0.23075518E-01 0.45279385E+03</pdfrwt>
<totfact> 0.67618185E+04</totfact>
</mgrwt>
</event>
<event>
 7    0  0.4766352E-002  0.4047510E+03  0.7546771E-02  0.1042147E+00
         21   -1    0    0  502  501  0.00000000000E+00  0.00000000000E+00  0.89022871045E+02  0.89022871045E+02  0.00000000000E+00 0.  1.
         21   -1    0    0  501  502 -0.00000000000E+00 -0.00000000000E+00 -0.46005974471E+03  0.46005974471E+03  0.00000000000E+00 0.  1.
      99926    2    1    2    0    0  0.35527136788E-14  0.00000000000E+00 -0.37103687367E+03  0.54908261576E+03  0.40475098185E+03 0.  0.
      99925    2    3    3    0    0 -0.19991066836E+02 -0.29514494784E+02 -0.30151814569E+03  0.40160004121E+03  0.26286622598E+03 0.  0.
         25    1    3    3    0    0  0.19991066836E+02  0.29514494784E+02 -0.69518727977E+02  0.14748257455E+03  0.12509000000E+03 0.  0.
         25    1    4    4    0    0 -0.28617160328E+02 -0.40265222302E+02 -0.19410974644E+03  0.23614896094E+03  0.12509000000E+03 0.  0.
         25    1    4    4    0    0  0.86260934921E+01  0.10750727518E+02 -0.10740839925E+03  0.16545108026E+03  0.12509000000E+03 0.  0.
<mgrwt>
<rscale>  2 0.40475098E+03</rscale>
<asrwt>0</asrwt>
<pdfrwt beam="1">  1       21 0.13091599E-01 0.40475098E+03</pdfrwt>
<pdfrwt beam="2">  1       21 0.67655846E-01 0.40475098E+03</pdfrwt>
<totfact> 0.94131573E+04</totfact>
</mgrwt>
</event>
<event>
 7    0  0.4766352E-002  0.4462244E+03  0.7546771E-02  0.1028854E+00
         21   -1    0    0  502  501  0.00000000000E+00  0.00000000000E+00  0.16642384993E+03  0.16642384993E+03  0.00000000000E+00 0.  1.
         21   -1    0    0  501  502 -0.00000000000E+00 -0.00000000000E+00 -0.29911004020E+03  0.29911004020E+03  0.00000000000E+00 0.  1.
      99926    2    1    2    0    0  0.00000000000E+00 -0.17763568394E-14 -0.13268619027E+03  0.46553389012E+03  0.44622435811E+03 0.  0.
      99925    2    3    3    0    0  0.58006564682E+02  0.47596730344E+01 -0.17503112729E+03  0.32121473746E+03  0.26297451590E+03 0.  0.
         25    1    4    4    0    0  0.73639096799E+01  0.16475452675E+02 -0.47050438726E+02  0.13485888770E+03  0.12509000000E+03 0.  0.
         25    1    3    3    0    0 -0.58006564682E+02 -0.47596730344E+01  0.42344937019E+02  0.14431915266E+03  0.12509000000E+03 0.  0.
         25    1    4    4    0    0  0.50642655002E+02 -0.11715779641E+02 -0.12798068856E+03  0.18635584977E+03  0.12509000000E+03 0.  0.
<mgrwt>
<rscale>  2 0.44622436E+03</rscale>
<asrwt>0</asrwt>
<pdfrwt beam="1">  1       21 0.24474096E-01 0.44622436E+03</pdfrwt>
<pdfrwt beam="2">  1       21 0.43986770E-01 0.44622436E+03</pdfrwt>
<totfact> 0.72700694E+04</totfact>
</mgrwt>
</event>
<event>
 7    0  0.4766352E-002  0.4589077E+03  0.7546771E-02  0.1025098E+00
         21   -1    0    0  502  501  0.00000000000E+00  0.00000000000E+00  0.28482885006E+02  0.28482885006E+02  0.00000000000E+00 0.  1.
         21   -1    0    0  501  502 -0.00000000000E+00 -0.00000000000E+00 -0.18484456511E+04  0.18484456511E+04  0.00000000000E+00 0.  1.
      99926    2    1    2    0    0  0.00000000000E+00  0.35527136788E-14 -0.18199627661E+04  0.18769285361E+04  0.45890768100E+03 0.  0.
      99925    2    3    3    0    0 -0.68230050061E+02  0.28585224865E+02 -0.15107945700E+04  0.15353074940E+04  0.26305211212E+03 0.  0.
         25    1    4    4    0    0 -0.68210399220E+02 -0.38218612968E+01 -0.71158907921E+03  0.72572294365E+03  0.12509000000E+03 0.  0.
         25    1    4    4    0    0 -0.19650840605E-01  0.32407086162E+02 -0.79920549076E+03  0.80958455036E+03  0.12509000000E+03 0.  0.
         25    1    3    3    0    0  0.68230050061E+02 -0.28585224865E+02 -0.30916819616E+03  0.34162104213E+03  0.12509000000E+03 0.  0.
<mgrwt>
<rscale>  2 0.45890768E+03</rscale>
<asrwt>0</asrwt>
<pdfrwt beam="1">  1       21 0.41886606E-02 0.45890768E+03</pdfrwt>
<pdfrwt beam="2">  1       21 0.27183018E+00 0.45890768E+03</pdfrwt>
<totfact> 0.15354120E+04</totfact>
</mgrwt>
</event>
<event>
 7    0  0.4766352E-002  0.4558754E+03  0.7546771E-02  0.1025984E+00
         21   -1    0    0  502  501  0.00000000000E+00  0.00000000000E+00  0.39492325055E+03  0.39492325055E+03  0.00000000000E+00 0.  1.
         21   -1    0    0  501  502 -0.00000000000E+00 -0.00000000000E+00 -0.13155868876E+03  0.13155868876E+03  0.00000000000E+00 0.  1.
      99926    2    1    2    0    0  0.00000000000E+00 -0.44408920985E-15  0.26336456179E+03  0.52648193931E+03  0.45587535579E+03 0.  0.
      99925    2    3    3    0    0 -0.46262144870E+02  0.11737464049E+01  0.28636403191E+03  0.39113775786E+03  0.26237915908E+03 0.  0.
         25    1    3    3    0    0  0.46262144870E+02 -0.11737464049E+01 -0.22999470118E+02  0.13534418146E+03  0.12509000000E+03 0.  0.
         25    1    4    4    0    0  0.11325601128E+02  0.52718241416E+01  0.10779863631E+03  0.16560228097E+03  0.12509000000E+03 0.  0.
         25    1    4    4    0    0 -0.57587745998E+02 -0.40980777368E+01  0.17856539560E+03  0.22553547689E+03  0.12509000000E+03 0.  0.
<mgrwt>
<rscale>  2 0.45587536E+03</rscale>
<asrwt>0</asrwt>
<pdfrwt beam="1">  1       21 0.58076948E-01 0.45587536E+03</pdfrwt>
<pdfrwt beam="2">  1       21 0.19346866E-01 0.45587536E+03</pdfrwt>
<totfact> 0.63006971E+04</totfact>
</mgrwt>
</event>
<event>
 7    0  0.4766352E-002  0.4417467E+03  0.7546771E-02  0.1030212E+00
         21   -1    0    0  502  501  0.00000000000E+00  0.00000000000E+00  0.66819018079E+03  0.66819018079E+03  0.00000000000E+00 0.  1.
         21   -1    0    0  501  502 -0.00000000000E+00 -0.00000000000E+00 -0.73010711872E+02  0.73010711872E+02  0.00000000000E+00 0.  1.
      99926    2    1    2    0    0 -0.35527136788E-14  0.00000000000E+00  0.59517946892E+03  0.74120089267E+03  0.44174671823E+03 0.  0.
      99925    2    3    3    0    0 -0.25322957702E+02  0.96780452005E+02  0.36682412112E+03  0.46227190341E+03  0.26292141178E+03 0.  0.
         25    1    4    4    0    0  0.16989479769E+02  0.49239321292E+02  0.22561938937E+03  0.26318200954E+03  0.12509000000E+03 0.  0.
         25    1    3    3    0    0  0.25322957702E+02 -0.96780452005E+02  0.22835534781E+03  0.27892898926E+03  0.12509000000E+03 0.  0.
         25    1    4    4    0    0 -0.42312437472E+02  0.47541130713E+02  0.14120473175E+03  0.19908989387E+03  0.12509000000E+03 0.  0.
<mgrwt>
<rscale>  2 0.44174672E+03</rscale>
<asrwt>0</asrwt>
<pdfrwt beam="1">  1       21 0.98263259E-01 0.44174672E+03</pdfrwt>
<pdfrwt beam="2">  1       21 0.10736870E-01 0.44174672E+03</pdfrwt>
<totfact> 0.56369816E+04</totfact>
</mgrwt>
</event>
<event>
 7    0  0.4766352E-002  0.4497221E+03  0.7546771E-02  0.1027805E+00
         21   -1    0    0  502  501  0.00000000000E+00  0.00000000000E+00  0.12765045504E+03  0.12765045504E+03  0.00000000000E+00 0.  1.
         21   -1    0    0  501  502 -0.00000000000E+00 -0.00000000000E+00 -0.39610112860E+03  0.39610112860E+03  0.00000000000E+00 0.  1.
      99926    2    1    2    0    0 -0.17763568394E-14 -0.14210854715E-13 -0.26845067356E+03  0.52375158364E+03  0.44972208889E+03 0.  0.
      99925    2    3    3    0    0 -0.85544397708E+01  0.10562610852E+03 -0.14464559655E+03  0.31831239937E+03  0.26300262689E+03 0.  0.
         25    1    4    4    0    0 -0.40531062689E+02  0.47405977057E+02 -0.91373451861E+02  0.16699314210E+03  0.12509000000E+03 0.  0.
         25    1    3    3    0    0  0.85544397708E+01 -0.10562610852E+03 -0.12380507701E+03  0.20543918427E+03  0.12509000000E+03 0.  0.
         25    1    4    4    0    0  0.31976622918E+02  0.58220131468E+02 -0.53272144690E+02  0.15131925727E+03  0.12509000000E+03 0.  0.
<mgrwt>
<rscale>  2 0.44972209E+03</rscale>
<asrwt>0</asrwt>
<pdfrwt beam="1">  1       21 0.18772126E-01 0.44972209E+03</pdfrwt>
<pdfrwt beam="2">  1       21 0.58250165E-01 0.44972209E+03</pdfrwt>
<totfact> 0.66364827E+04</totfact>
</mgrwt>
</event>
<event>
 7    0  0.4766352E-002  0.4469402E+03  0.7546771E-02  0.1028638E+00
         21   -1    0    0  502  501  0.00000000000E+00  0.00000000000E+00  0.10860825094E+03  0.10860825094E+03  0.00000000000E+00 0. -1.
         21   -1    0    0  501  502 -0.00000000000E+00 -0.00000000000E+00 -0.45980739368E+03  0.45980739368E+03  0.00000000000E+00 0. -1.
      99926    2    1    2    0    0  0.00000000000E+00  0.00000000000E+00 -0.35119914274E+03  0.56841564462E+03  0.44694016063E+03 0.  0.
      99925    2    3    3    0    0 -0.53536144895E+02  0.69575376691E+02 -0.14798833236E+03  0.31415398136E+03  0.26284087512E+03 0.  0.
         25    1    4    4    0    0 -0.30489769598E+02  0.24250284328E+02 -0.11691059327E+03  0.17559412650E+03  0.12509000000E+03 0.  0.
         25    1    4    4    0    0 -0.23046375297E+02  0.45325092363E+02 -0.31077739090E+02  0.13855985486E+03  0.12509000000E+03 0.  0.
         25    1    3    3    0    0  0.53536144895E+02 -0.69575376691E+02 -0.20321081038E+03  0.25426166326E+03  0.12509000000E+03 0.  0.
<mgrwt>
<rscale>  2 0.44694016E+03</rscale>
<asrwt>0</asrwt>
<pdfrwt beam="1">  1       21 0.15971802E-01 0.44694016E+03</pdfrwt>
<pdfrwt beam="2">  1       21 0.67618735E-01 0.44694016E+03</pdfrwt>
<totfact> 0.64691449E+04</totfact>
</mgrwt>
</event>
<event>
 7    0  0.4766352E-002  0.4523262E+03  0.7546771E-02  0.1027031E+00
         21   -1    0    0  502  501  0.00000000000E+00  0.00000000000E+00  0.67116250897E+02  0.67116250897E+02  0.00000000000E+00 0.  1.
         21   -1    0    0  501  502 -0.00000000000E+00 -0.00000000000E+00 -0.76210662932E+03  0.76210662932E+03  0.00000000000E+00 0.  1.
      99926    2    1    2    0    0  0.00000000000E+00  0.00000000000E+00 -0.69499037843E+03  0.82922288022E+03  0.45232616437E+03 0.  0.
      99925    2    3    3    0    0 -0.14774944139E+02  0.38729826829E+02 -0.62651415611E+03  0.68071429601E+03  0.26293281752E+03 0.  0.
         25    1    4    4    0    0  0.28780362413E+02  0.28027498063E+02 -0.27079621827E+03  0.30098496613E+03  0.12509000000E+03 0.  0.
         25    1    4    4    0    0 -0.43555306552E+02  0.10702328766E+02 -0.35571793784E+03  0.37972932988E+03  0.12509000000E+03 0.  0.
         25    1    3    3    0    0  0.14774944139E+02 -0.38729826829E+02 -0.68476222314E+02  0.14850858421E+03  0.12509000000E+03 0.  0.
<mgrwt>
<rscale>  2 0.45232616E+03</rscale>
<asrwt>0</asrwt>
<pdfrwt beam="1">  1       21 0.98700377E-02 0.45232616E+03</pdfrwt>
<pdfrwt beam="2">  1       21 0.11207449E+00 0.45232616E+03</pdfrwt>
<totfact> 0.47369578E+04</totfact>
</mgrwt>
</event>
<event>
 7    0  0.4766352E-002  0.4551243E+03  0.7546771E-02  0.1026205E+00
         21   -1    0    0  502  501  0.00000000000E+00  0.00000000000E+00  0.94501944412E+03  0.94501944412E+03  0.00000000000E+00 0. -1.
         21   -1    0    0  501  502 -0.00000000000E+00 -0.00000000000E+00 -0.54797325873E+02  0.54797325873E+02  0.00000000000E+00 0. -1.
      99926    2    1    2    0    0  0.00000000000E+00  0.00000000000E+00  0.89022211825E+03  0.99981677000E+03  0.45512432779E+03 0.  0.
      99925    2    3    3    0    0  0.29877529257E+02  0.50328592111E+02  0.34735886120E+03  0.43966173977E+03  0.26309434244E+03 0.  0.
         25    1    4    4    0    0  0.12018125729E+00  0.55719014464E+02  0.21613049319E+03  0.25586035488E+03  0.12509000000E+03 0.  0.
         25    1    3    3    0    0 -0.29877529257E+02 -0.50328592111E+02  0.54286325705E+03  0.56015503023E+03  0.12509000000E+03 0.  0.
         25    1    4    4    0    0  0.29757348000E+02 -0.53904223534E+01  0.13122836802E+03  0.18380138488E+03  0.12509000000E+03 0.  0.
<mgrwt>
<rscale>  2 0.45512433E+03</rscale>
<asrwt>0</asrwt>
<pdfrwt beam="1">  1       21 0.13897344E+00 0.45512433E+03</pdfrwt>
<pdfrwt beam="2">  1       21 0.80584309E-02 0.45512433E+03</pdfrwt>
<totfact> 0.39135914E+04</totfact>
</mgrwt>
</event>
<event>
 7    0  0.4766352E-002  0.4552820E+03  0.7546771E-02  0.1026158E+00
         21   -1    0    0  502  501  0.00000000000E+00  0.00000000000E+00  0.90410291509E+02  0.90410291509E+02  0.00000000000E+00 0. -1.
         21   -1    0    0  501  502 -0.00000000000E+00 -0.00000000000E+00 -0.57316965881E+03  0.57316965881E+03  0.00000000000E+00 0. -1.
      99926    2    1    2    0    0  0.00000000000E+00  0.00000000000E+00 -0.48275936730E+03  0.66357995032E+03  0.45528204857E+03 0.  0.
      99925    2    3    3    0    0  0.10214689753E+03 -0.48427760801E+02 -0.28768733585E+03  0.40574309833E+03  0.26283877556E+03 0.  0.
         25    1    4    4    0    0  0.57193922224E+02  0.15550224539E+02 -0.14644331082E+03  0.20150956703E+03  0.12509000000E+03 0.  0.
         25    1    3    3    0    0 -0.10214689753E+03  0.48427760801E+02 -0.19507203145E+03  0.25783685199E+03  0.12509000000E+03 0.  0.
         25    1    4    4    0    0  0.44952975306E+02 -0.63977985340E+02 -0.14124402503E+03  0.20423353129E+03  0.12509000000E+03 0.  0.
<mgrwt>
<rscale>  2 0.45528205E+03</rscale>
<asrwt>0</asrwt>
<pdfrwt beam="1">  1       21 0.13295631E-01 0.45528205E+03</pdfrwt>
<pdfrwt beam="2">  1       21 0.84289654E-01 0.45528205E+03</pdfrwt>
<totfact> 0.54803070E+04</totfact>
</mgrwt>
</event>
<event>
 7    0  0.4766352E-002  0.4549226E+03  0.7546771E-02  0.1026264E+00
         21   -1    0    0  502  501  0.00000000000E+00  0.00000000000E+00  0.25092225531E+02  0.25092225531E+02  0.00000000000E+00 0.  1.
         21   -1    0    0  501  502 -0.00000000000E+00 -0.00000000000E+00 -0.20619391245E+04  0.20619391245E+04  0.00000000000E+00 0.  1.
      99926    2    1    2    0    0  0.00000000000E+00  0.00000000000E+00 -0.20368468989E+04  0.20870313500E+04  0.45492259360E+03 0.  0.
      99925    2    3    3    0    0  0.28554965565E+02 -0.84467363060E+02 -0.16005680857E+04  0.16244982891E+04  0.26310905100E+03 0.  0.
         25    1    3    3    0    0 -0.28554965565E+02  0.84467363060E+02 -0.43627881319E+03  0.46253306089E+03  0.12509000000E+03 0.  0.
         25    1    4    4    0    0  0.46356769202E+02 -0.23012346373E+02 -0.69005405002E+03  0.70320737922E+03  0.12509000000E+03 0.  0.
         25    1    4    4    0    0 -0.17801803637E+02 -0.61455016688E+02 -0.91051403571E+03  0.92129090987E+03  0.12509000000E+03 0.  0.
<mgrwt>
<rscale>  2 0.45492259E+03</rscale>
<asrwt>0</asrwt>
<pdfrwt beam="1">  1       21 0.36900323E-02 0.45492259E+03</pdfrwt>
<pdfrwt beam="2">  1       21 0.30322642E+00 0.45492259E+03</pdfrwt>
<totfact> 0.12347895E+04</totfact>
</mgrwt>
</event>
<event>
 7    0  0.4766352E-002  0.4559592E+03  0.7546771E-02  0.1025960E+00
         21   -1    0    0  502  501  0.00000000000E+00  0.00000000000E+00  0.19427347001E+04  0.19427347001E+04  0.00000000000E+00 0.  1.
         21   -1    0    0  501  502 -0.00000000000E+00 -0.00000000000E+00 -0.26753371100E+02  0.26753371100E+02  0.00000000000E+00 0.  1.
      99926    2    1    2    0    0  0.00000000000E+00  0.00000000000E+00  0.19159813290E+04  0.19694880712E+04  0.45595921914E+03 0.  0.
      99925    2    3    3    0    0 -0.65254571344E+02  0.81931276729E+01  0.80232857206E+03  0.84690388390E+03  0.26303947348E+03 0.  0.
         25    1    4    4    0    0 -0.52890171393E+01  0.20708557809E+02  0.46363937842E+03  0.48069304071E+03  0.12509000000E+03 0.  0.
         25    1    3    3    0    0  0.65254571344E+02 -0.81931276729E+01  0.11136527569E+04  0.11225841873E+04  0.12509000000E+03 0.  0.
         25    1    4    4    0    0 -0.59965554205E+02 -0.12515430136E+02  0.33868919364E+03  0.36621084319E+03  0.12509000000E+03 0.  0.
<mgrwt>
<rscale>  2 0.45595922E+03</rscale>
<asrwt>0</asrwt>
<pdfrwt beam="1">  1       21 0.28569618E+00 0.45595922E+03</pdfrwt>
<pdfrwt beam="2">  1       21 0.39343206E-02 0.45595922E+03</pdfrwt>
<totfact> 0.14109141E+04</totfact>
</mgrwt>
</event>
<event>
 7    0  0.4766352E-002  0.4586962E+03  0.7546771E-02  0.1025160E+00
         21   -1    0    0  502  501  0.00000000000E+00  0.00000000000E+00  0.22452599893E+03  0.22452599893E+03  0.00000000000E+00 0. -1.
         21   -1    0    0  501  502 -0.00000000000E+00 -0.00000000000E+00 -0.23427378861E+03  0.23427378861E+03  0.00000000000E+00 0. -1.
      99926    2    1    2    0    0  0.00000000000E+00  0.14210854715E-13 -0.97477896830E+01  0.45879978754E+03  0.45869622371E+03 0.  0.
      99925    2    3    3    0    0  0.76905048158E+02  0.87579982491E+02 -0.53634446773E+01  0.28776946758E+03  0.26305486151E+03 0.  0.
         25    1    4    4    0    0  0.78440639831E+01  0.38594745291E+02 -0.30493888711E+02  0.13464200330E+03  0.12509000000E+03 0.  0.
         25    1    4    4    0    0  0.69060984175E+02  0.48985237200E+02  0.25130444033E+02  0.15312746428E+03  0.12509000000E+03 0.  0.
         25    1    3    3    0    0 -0.76905048158E+02 -0.87579982491E+02 -0.43843450057E+01  0.17103031996E+03  0.12509000000E+03 0.  0.
<mgrwt>
<rscale>  2 0.45869622E+03</rscale>
<asrwt>0</asrwt>
<pdfrwt beam="1">  1       21 0.33018530E-01 0.45869622E+03</pdfrwt>
<pdfrwt beam="2">  1       21 0.34452027E-01 0.45869622E+03</pdfrwt>
<totfact> 0.66291573E+04</totfact>
</mgrwt>
</event>
<event>
 7    0  0.4766352E-002  0.4354530E+03  0.7546771E-02  0.1032151E+00
         21   -1    0    0  502  501  0.00000000000E+00  0.00000000000E+00  0.40994680150E+03  0.40994680150E+03  0.00000000000E+00 0.  1.
         21   -1    0    0  501  502 -0.00000000000E+00 -0.00000000000E+00 -0.11563655734E+03  0.11563655734E+03  0.00000000000E+00 0.  1.
      99926    2    1    2    0    0 -0.17763568394E-14 -0.35527136788E-14  0.29431024415E+03  0.52558335884E+03  0.43545303682E+03 0.  0.
      99925    2    3    3    0    0 -0.12951023068E+02 -0.24529388213E+02  0.80663997873E+02  0.27646160841E+03  0.26297323150E+03 0.  0.
         25    1    4    4    0    0 -0.36366237130E+02  0.14855148187E+02  0.36185909853E+02  0.13601509770E+03  0.12509000000E+03 0.  0.
         25    1    4    4    0    0  0.23415214062E+02 -0.39384536400E+02  0.44478088019E+02  0.14044651071E+03  0.12509000000E+03 0.  0.
         25    1    3    3    0    0  0.12951023068E+02  0.24529388213E+02  0.21364624628E+03  0.24912175043E+03  0.12509000000E+03 0.  0.
<mgrwt>
<rscale>  2 0.43545304E+03</rscale>
<asrwt>0</asrwt>
<pdfrwt beam="1">  1       21 0.60286294E-01 0.43545304E+03</pdfrwt>
<pdfrwt beam="2">  1       21 0.17005376E-01 0.43545304E+03</pdfrwt>
<totfact> 0.74366441E+04</totfact>
</mgrwt>
</event>
<event>
 7    0  0.4766352E-002  0.4522439E+03  0.7546771E-02  0.1027055E+00
         21   -1    0    0  502  501  0.00000000000E+00  0.00000000000E+00  0.13361792075E+03  0.13361792075E+03  0.00000000000E+00 0. -1.
         21   -1    0    0  501  502 -0.00000000000E+00 -0.00000000000E+00 -0.38266681833E+03  0.38266681833E+03  0.00000000000E+00 0. -1.
      99926    2    1    2    0    0 -0.14210854715E-13  0.88817841970E-15 -0.24904889757E+03  0.51628473908E+03  0.45224393686E+03 0.  0.
      99925    2    3    3    0    0 -0.10091321069E+03  0.60720331401E+01 -0.10555887061E+03  0.30074531898E+03  0.26283973452E+03 0.  0.
         25    1    4    4    0    0 -0.70765314346E+02 -0.18445143377E+02 -0.25199051254E+02  0.14707295235E+03  0.12509000000E+03 0.  0.
         25    1    3    3    0    0  0.10091321069E+03 -0.60720331401E+01 -0.14349002696E+03  0.21553942010E+03  0.12509000000E+03 0.  0.
         25    1    4    4    0    0 -0.30147896348E+02  0.24517176517E+02 -0.80359819357E+02  0.15367236663E+03  0.12509000000E+03 0.  0.
<mgrwt>
<rscale>  2 0.45224394E+03</rscale>
<asrwt>0</asrwt>
<pdfrwt beam="1">  1       21 0.19649695E-01 0.45224394E+03</pdfrwt>
<pdfrwt beam="2">  1       21 0.56274531E-01 0.45224394E+03</pdfrwt>
<totfact> 0.65563117E+04</totfact>
</mgrwt>
</event>
<event>
 7    0  0.4766352E-002  0.4567931E+03  0.7546771E-02  0.1025715E+00
         21   -1    0    0  502  501  0.00000000000E+00  0.00000000000E+00  0.62004885932E+02  0.62004885932E+02  0.00000000000E+00 0. -1.
         21   -1    0    0  501  502 -0.00000000000E+00 -0.00000000000E+00 -0.84130435282E+03  0.84130435282E+03  0.00000000000E+00 0. -1.
      99926    2    1    2    0    0  0.00000000000E+00  0.00000000000E+00 -0.77929946688E+03  0.90330923875E+03  0.45679308414E+03 0.  0.
      99925    2    3    3    0    0 -0.70861343954E+02  0.75247637269E+02 -0.39173219256E+03  0.48314327486E+03  0.26322951273E+03 0.  0.
         25    1    4    4    0    0 -0.58245061159E+02  0.20860211237E+02 -0.14706941069E+03  0.20274258364E+03  0.12509000000E+03 0.  0.
         25    1    4    4    0    0 -0.12616282795E+02  0.54387426032E+02 -0.24466278187E+03  0.28040069122E+03  0.12509000000E+03 0.  0.
         25    1    3    3    0    0  0.70861343954E+02 -0.75247637269E+02 -0.38756727433E+03  0.42016596389E+03  0.12509000000E+03 0.  0.
<mgrwt>
<rscale>  2 0.45679308E+03</rscale>
<asrwt>0</asrwt>
<pdfrwt beam="1">  1       21 0.91183664E-02 0.45679308E+03</pdfrwt>
<pdfrwt beam="2">  1       21 0.12372122E+00 0.45679308E+03</pdfrwt>
<totfact> 0.42491277E+04</totfact>
</mgrwt>
</event>
<event>
 7    0  0.4766352E-002  0.4476432E+03  0.7546771E-02  0.1028427E+00
         21   -1    0    0  502  501  0.00000000000E+00  0.00000000000E+00  0.15518096519E+04  0.15518096519E+04  0.00000000000E+00 0.  1.
         21   -1    0    0  501  502 -0.00000000000E+00 -0.00000000000E+00 -0.32282381878E+02  0.32282381878E+02  0.00000000000E+00 0.  1.
      99926    2    1    2    0    0 -0.14210854715E-13  0.00000000000E+00  0.15195272700E+04  0.15840920337E+04  0.44764321411E+03 0.  0.
      99925    2    3    3    0    0  0.86191209689E+02  0.13679822088E+02  0.11763826508E+04  0.12085766547E+04  0.26299301681E+03 0.  0.
         25    1    4    4    0    0  0.49940368618E+02  0.45368617650E+02  0.65479808857E+03  0.67004507070E+03  0.12509000000E+03 0.  0.
         25    1    3    3    0    0 -0.86191209689E+02 -0.13679822088E+02  0.34314461914E+03  0.37551537906E+03  0.12509000000E+03 0.  0.
         25    1    4    4    0    0  0.36250841072E+02 -0.31688795562E+02  0.52158456228E+03  0.53853158399E+03  0.12509000000E+03 0.  0.
<mgrwt>
<rscale>  2 0.44764321E+03</rscale>
<asrwt>0</asrwt>
<pdfrwt beam="1">  1       21 0.22820725E+00 0.44764321E+03</pdfrwt>
<pdfrwt beam="2">  1       21 0.47474101E-02 0.44764321E+03</pdfrwt>
<totfact> 0.23082140E+04</totfact>
</mgrwt>
</event>
<event>
 7    0  0.4766352E-002  0.4560000E+03  0.7546771E-02  0.1025948E+00
         21   -1    0    0  502  501  0.00000000000E+00  0.00000000000E+00  0.15289199878E+03  0.15289199878E+03  0.00000000000E+00 0. -1.
         21   -1    0    0  501  502 -0.00000000000E+00 -0.00000000000E+00 -0.34000478428E+03  0.34000478428E+03  0.00000000000E+00 0. -1.
      99926    2    1    2    0    0  0.00000000000E+00  0.71054273576E-14 -0.18711278550E+03  0.49289678306E+03  0.45600004852E+03 0.  0.
      99925    2    3    3    0    0  0.17300338844E+02 -0.47850703392E+02 -0.72212786182E+01  0.26795800497E+03  0.26298356226E+03 0.  0.
         25    1    3    3    0    0 -0.17300338844E+02  0.47850703392E+02 -0.17989150688E+03  0.22493877809E+03  0.12509000000E+03 0.  0.
         25    1    4    4    0    0  0.12534583007E+02  0.99175700631E+01 -0.26172321265E+02  0.12879430293E+03  0.12509000000E+03 0.  0.
         25    1    4    4    0    0  0.47657558369E+01 -0.57768273455E+02  0.18951042647E+02  0.13916370203E+03  0.12509000000E+03 0.  0.
<mgrwt>
<rscale>  2 0.45600005E+03</rscale>
<asrwt>0</asrwt>
<pdfrwt beam="1">  1       21 0.22484117E-01 0.45600005E+03</pdfrwt>
<pdfrwt beam="2">  1       21 0.50000704E-01 0.45600005E+03</pdfrwt>
<totfact> 0.65253028E+04</totfact>
</mgrwt>
</event>
<event>
 7    0  0.4766352E-002  0.4474637E+03  0.7546771E-02  0.1028481E+00
         21   -1    0    0  502  501  0.00000000000E+00  0.00000000000E+00  0.12753599512E+03  0.12753599512E+03  0.00000000000E+00 0. -1.
         21   -1    0    0  501  502 -0.00000000000E+00 -0.00000000000E+00 -0.39248485494E+03  0.39248485494E+03  0.00000000000E+00 0. -1.
      99926    2    1    2    0    0  0.35527136788E-14 -0.14210854715E-13 -0.26494885982E+03  0.52002085006E+03  0.44746372610E+03 0.  0.
      99925    2    3    3    0    0 -0.30692485921E+02  0.75474195190E+02 -0.89069192600E+02  0.28932722580E+03  0.26294208428E+03 0.  0.
         25    1    4    4    0    0 -0.19895230002E+02  0.78755166257E+02 -0.57261756179E+02  0.15976424259E+03  0.12509000000E+03 0.  0.
         25    1    4    4    0    0 -0.10797255918E+02 -0.32809710671E+01 -0.31807436421E+02  0.12956298321E+03  0.12509000000E+03 0.  0.
         25    1    3    3    0    0  0.30692485921E+02 -0.75474195190E+02 -0.17587966722E+03  0.23069362426E+03  0.12509000000E+03 0.  0.
<mgrwt>
<rscale>  2 0.44746373E+03</rscale>
<asrwt>0</asrwt>
<pdfrwt beam="1">  1       21 0.18755293E-01 0.44746373E+03</pdfrwt>
<pdfrwt beam="2">  1       21 0.57718362E-01 0.44746373E+03</pdfrwt>
<totfact> 0.67850999E+04</totfact>
</mgrwt>
</event>
<event>
 7    0  0.4766352E-002  0.4544630E+03  0.7546771E-02  0.1026399E+00
         21   -1    0    0  502  501  0.00000000000E+00  0.00000000000E+00  0.21574731456E+03  0.21574731456E+03  0.00000000000E+00 0.  1.
         21   -1    0    0  501  502 -0.00000000000E+00 -0.00000000000E+00 -0.23932694009E+03  0.23932694009E+03  0.00000000000E+00 0.  1.
      99926    2    1    2    0    0  0.00000000000E+00  0.00000000000E+00 -0.23579625534E+02  0.45507425465E+03  0.45446295614E+03 0.  0.
      99925    2    3    3    0    0 -0.74938836146E+02  0.37039628941E+02 -0.89927061963E+02  0.29064416709E+03  0.26343764369E+03 0.  0.
         25    1    4    4    0    0 -0.36331192429E+02 -0.54818171156E+01 -0.79282077636E+02  0.15258820989E+03  0.12509000000E+03 0.  0.
         25    1    4    4    0    0 -0.38607643717E+02  0.42521446057E+02 -0.10644984327E+02  0.13805595720E+03  0.12509000000E+03 0.  0.
         25    1    3    3    0    0  0.74938836146E+02 -0.37039628941E+02  0.66347436429E+02  0.16443008756E+03  0.12509000000E+03 0.  0.
<mgrwt>
<rscale>  2 0.45446296E+03</rscale>
<asrwt>0</asrwt>
<pdfrwt beam="1">  1       21 0.31727546E-01 0.45446296E+03</pdfrwt>
<pdfrwt beam="2">  1       21 0.35195138E-01 0.45446296E+03</pdfrwt>
<totfact> 0.68834866E+04</totfact>
</mgrwt>
</event>
<event>
 7    0  0.4766352E-002  0.4417579E+03  0.7546771E-02  0.1030209E+00
         21   -1    0    0  502  501  0.00000000000E+00  0.00000000000E+00  0.64150163564E+03  0.64150163564E+03  0.00000000000E+00 0. -1.
         21   -1    0    0  501  502 -0.00000000000E+00 -0.00000000000E+00 -0.76052060336E+02  0.76052060336E+02  0.00000000000E+00 0. -1.
      99926    2    1    2    0    0  0.71054273576E-14  0.00000000000E+00  0.56544957531E+03  0.71755369598E+03  0.44175794775E+03 0.  0.
      99925    2    3    3    0    0  0.39298355938E+02 -0.81766163657E+02  0.42974184509E+03  0.51189825005E+03  0.26292907540E+03 0.  0.
         25    1    4    4    0    0  0.39019300509E+02 -0.19104833575E+02  0.26124206359E+03  0.29288636767E+03  0.12509000000E+03 0.  0.
         25    1    4    4    0    0  0.27905542844E+00 -0.62661330082E+02  0.16849978149E+03  0.21901188238E+03  0.12509000000E+03 0.  0.
         25    1    3    3    0    0 -0.39298355938E+02  0.81766163657E+02  0.13570773022E+03  0.20565544593E+03  0.12509000000E+03 0.  0.
<mgrwt>
<rscale>  2 0.44175795E+03</rscale>
<asrwt>0</asrwt>
<pdfrwt beam="1">  1       21 0.94338473E-01 0.44175795E+03</pdfrwt>
<pdfrwt beam="2">  1       21 0.11184127E-01 0.44175795E+03</pdfrwt>
<totfact> 0.57744007E+04</totfact>
</mgrwt>
</event>
<event>
 7    0  0.4766352E-002  0.4358325E+03  0.7546771E-02  0.1032033E+00
         21   -1    0    0  502  501  0.00000000000E+00  0.00000000000E+00  0.88157984003E+03  0.88157984003E+03  0.00000000000E+00 0.  1.
         21   -1    0    0  501  502 -0.00000000000E+00 -0.00000000000E+00 -0.53866350102E+02  0.53866350102E+02  0.00000000000E+00 0.  1.
      99926    2    1    2    0    0  0.00000000000E+00  0.00000000000E+00  0.82771348993E+03  0.93544619013E+03  0.43583248298E+03 0.  0.
      99925    2    3    3    0    0  0.53484347622E+02 -0.57136398067E+02  0.41818091266E+03  0.50014217755E+03  0.26294824325E+03 0.  0.
         25    1    4    4    0    0  0.13085216902E+01 -0.57948581069E+02  0.19013736525E+03  0.23486054594E+03  0.12509000000E+03 0.  0.
         25    1    3    3    0    0 -0.53484347622E+02  0.57136398067E+02  0.40953257727E+03  0.43530401259E+03  0.12509000000E+03 0.  0.
         25    1    4    4    0    0  0.52175825932E+02  0.81218300220E+00  0.22804354741E+03  0.26528163160E+03  0.12509000000E+03 0.  0.
<mgrwt>
<rscale>  2 0.43583248E+03</rscale>
<asrwt>0</asrwt>
<pdfrwt beam="1">  1       21 0.12964409E+00 0.43583248E+03</pdfrwt>
<pdfrwt beam="2">  1       21 0.79215226E-02 0.43583248E+03</pdfrwt>
<totfact> 0.48626174E+04</totfact>
</mgrwt>
</event>
<event>
 7    0  0.4766352E-002  0.4588655E+03  0.7546771E-02  0.1025111E+00
         21   -1    0    0  502  501  0.00000000000E+00  0.00000000000E+00  0.43312954873E+03  0.43312954873E+03  0.00000000000E+00 0. -1.
         21   -1    0    0  501  502 -0.00000000000E+00 -0.00000000000E+00 -0.12153265091E+03  0.12153265091E+03  0.00000000000E+00 0. -1.
      99926    2    1    2    0    0 -0.35527136788E-14  0.00000000000E+00  0.31159689783E+03  0.55466219964E+03  0.45886548026E+03 0.  0.
      99925    2    3    3    0    0 -0.12594693424E+02 -0.54695817100E+02  0.31914459530E+03  0.41734965634E+03  0.26301559692E+03 0.  0.
         25    1    3    3    0    0  0.12594693424E+02  0.54695817100E+02 -0.75476974745E+01  0.13731254330E+03  0.12509000000E+03 0.  0.
         25    1    4    4    0    0 -0.38519181439E+02 -0.26107703193E+01  0.15073089421E+03  0.19964431880E+03  0.12509000000E+03 0.  0.
         25    1    4    4    0    0  0.25924488015E+02 -0.52085046781E+02  0.16841370109E+03  0.21770533754E+03  0.12509000000E+03 0.  0.
<mgrwt>
<rscale>  2 0.45886548E+03</rscale>
<asrwt>0</asrwt>
<pdfrwt beam="1">  1       21 0.63695521E-01 0.45886548E+03</pdfrwt>
<pdfrwt beam="2">  1       21 0.17872449E-01 0.45886548E+03</pdfrwt>
<totfact> 0.59712417E+04</totfact>
</mgrwt>
</event>
<event>
 7    0  0.4766352E-002  0.4563131E+03  0.7546771E-02  0.1025856E+00
         21   -1    0    0  502  501  0.00000000000E+00  0.00000000000E+00  0.14445993045E+03  0.14445993045E+03  0.00000000000E+00 0. -1.
         21   -1    0    0  501  502 -0.00000000000E+00 -0.00000000000E+00 -0.36034491860E+03  0.36034491860E+03  0.00000000000E+00 0. -1.
      99926    2    1    2    0    0 -0.14210854715E-13  0.71054273576E-14 -0.21588498815E+03  0.50480484905E+03  0.45631305868E+03 0.  0.
      99925    2    3    3    0    0 -0.10188142143E+03  0.42911494277E+02 -0.16854759167E+03  0.33128379102E+03  0.26290576099E+03 0.  0.
         25    1    4    4    0    0 -0.50585505274E+02  0.48493904784E+02 -0.51434041339E+02  0.15232701945E+03  0.12509000000E+03 0.  0.
         25    1    4    4    0    0 -0.51295916161E+02 -0.55824105077E+01 -0.11711355033E+03  0.17895677158E+03  0.12509000000E+03 0.  0.
         25    1    3    3    0    0  0.10188142143E+03 -0.42911494277E+02 -0.47337396486E+02  0.17352105803E+03  0.12509000000E+03 0.  0.
<mgrwt>
<rscale>  2 0.45631306E+03</rscale>
<asrwt>0</asrwt>
<pdfrwt beam="1">  1       21 0.21244107E-01 0.45631306E+03</pdfrwt>
<pdfrwt beam="2">  1       21 0.52991900E-01 0.45631306E+03</pdfrwt>
<totfact> 0.64262032E+04</totfact>
</mgrwt>
</event>
<event>
 7    0  0.4766352E-002  0.4568875E+03  0.7546771E-02  0.1025688E+00
         21   -1    0    0  502  501  0.00000000000E+00  0.00000000000E+00  0.13439417193E+03  0.13439417193E+03  0.00000000000E+00 0. -1.
         21   -1    0    0  501  502 -0.00000000000E+00 -0.00000000000E+00 -0.38830959378E+03  0.38830959378E+03  0.00000000000E+00 0. -1.
      99926    2    1    2    0    0  0.00000000000E+00  0.00000000000E+00 -0.25391542185E+03  0.52270376571E+03  0.45688749736E+03 0.  0.
      99925    2    3    3    0    0 -0.10816804601E+03  0.36930030656E+02 -0.17432048607E+03  0.33549528502E+03  0.26287887147E+03 0.  0.
         25    1    4    4    0    0 -0.67654437237E+02  0.57795935392E+02 -0.94804685602E+02  0.18042430418E+03  0.12509000000E+03 0.  0.
         25    1    4    4    0    0 -0.40513608770E+02 -0.20865904736E+02 -0.79515800473E+02  0.15507098085E+03  0.12509000000E+03 0.  0.
         25    1    3    3    0    0  0.10816804601E+03 -0.36930030656E+02 -0.79594935773E+02  0.18720848069E+03  0.12509000000E+03 0.  0.
<mgrwt>
<rscale>  2 0.45688750E+03</rscale>
<asrwt>0</asrwt>
<pdfrwt beam="1">  1       21 0.19763849E-01 0.45688750E+03</pdfrwt>
<pdfrwt beam="2">  1       21 0.57104351E-01 0.45688750E+03</pdfrwt>
<totfact> 0.62758372E+04</totfact>
</mgrwt>
</event>
<event>
 7    0  0.4766352E-002  0.4545216E+03  0.7546771E-02  0.1026382E+00
         21   -1    0    0  502  501  0.00000000000E+00  0.00000000000E+00  0.13093336493E+03  0.13093336493E+03  0.00000000000E+00 0.  1.
         21   -1    0    0  501  502 -0.00000000000E+00 -0.00000000000E+00 -0.39445616223E+03  0.39445616223E+03  0.00000000000E+00 0.  1.
      99926    2    1    2    0    0  0.00000000000E+00  0.00000000000E+00 -0.26352279731E+03  0.52538952716E+03  0.45452160625E+03 0.  0.
      99925    2    3    3    0    0  0.82873193127E+02 -0.71114245774E+02 -0.19879277710E+03  0.34716863695E+03  0.26283510452E+03 0.  0.
         25    1    4    4    0    0  0.82382478838E+02 -0.42257152463E+02 -0.12023550092E+03  0.19666373213E+03  0.12509000000E+03 0.  0.
         25    1    4    4    0    0  0.49071428857E+00 -0.28857093311E+02 -0.78557276179E+02  0.15050490482E+03  0.12509000000E+03 0.  0.
         25    1    3    3    0    0 -0.82873193127E+02  0.71114245774E+02 -0.64730020206E+02  0.17822089021E+03  0.12509000000E+03 0.  0.
<mgrwt>
<rscale>  2 0.45452161E+03</rscale>
<asrwt>0</asrwt>
<pdfrwt beam="1">  1       21 0.19254907E-01 0.45452161E+03</pdfrwt>
<pdfrwt beam="2">  1       21 0.58008258E-01 0.45452161E+03</pdfrwt>
<totfact> 0.63761162E+04</totfact>
</mgrwt>
</event>
<event>
 7    0  0.4766352E-002  0.4519490E+03  0.7546771E-02  0.1027142E+00
         21   -1    0    0  502  501  0.00000000000E+00  0.00000000000E+00  0.90549058746E+02  0.90549058746E+02  0.00000000000E+00 0.  1.
         21   -1    0    0  501  502 -0.00000000000E+00 -0.00000000000E+00 -0.56394259924E+03  0.56394259924E+03  0.00000000000E+00 0.  1.
      99926    2    1    2    0    0  0.00000000000E+00  0.00000000000E+00 -0.47339354049E+03  0.65449165799E+03  0.45194898627E+03 0.  0.
      99925    2    3    3    0    0 -0.66232167465E+02 -0.82809380737E+02 -0.25520874572E+03  0.38155172629E+03  0.26307056543E+03 0.  0.
         25    1    4    4    0    0 -0.53726062600E+02 -0.45650716632E+02 -0.18056949862E+03  0.23070181981E+03  0.12509000000E+03 0.  0.
         25    1    4    4    0    0 -0.12506104865E+02 -0.37158664105E+02 -0.74639247104E+02  0.15084990648E+03  0.12509000000E+03 0.  0.
         25    1    3    3    0    0  0.66232167465E+02  0.82809380737E+02 -0.21818479478E+03  0.27293993170E+03  0.12509000000E+03 0.  0.
<mgrwt>
<rscale>  2 0.45194899E+03</rscale>
<asrwt>0</asrwt>
<pdfrwt beam="1">  1       21 0.13316038E-01 0.45194899E+03</pdfrwt>
<pdfrwt beam="2">  1       21 0.82932733E-01 0.45194899E+03</pdfrwt>
<totfact> 0.56798028E+04</totfact>
</mgrwt>
</event>
<event>
 7    0  0.4766352E-002  0.4521720E+03  0.7546771E-02  0.1027076E+00
         21   -1    0    0  502  501  0.00000000000E+00  0.00000000000E+00  0.15350115737E+03  0.15350115737E+03  0.00000000000E+00 0.  1.
         21   -1    0    0  501  502 -0.00000000000E+00 -0.00000000000E+00 -0.33299342718E+03  0.33299342718E+03  0.00000000000E+00 0.  1.
      99926    2    1    2    0    0  0.00000000000E+00  0.00000000000E+00 -0.17949226981E+03  0.48649458456E+03  0.45217198706E+03 0.  0.
      99925    2    3    3    0    0  0.54097840464E+02  0.71841748366E+02 -0.44097915050E+02  0.28139228678E+03  0.26296231631E+03 0.  0.
         25    1    3    3    0    0 -0.54097840464E+02 -0.71841748366E+02 -0.13539435476E+03  0.20510229777E+03  0.12509000000E+03 0.  0.
         25    1    4    4    0    0  0.38129519340E+02  0.15579236687E+00 -0.37379869229E+01  0.13082570528E+03  0.12509000000E+03 0.  0.
         25    1    4    4    0    0  0.15968321124E+02  0.71685955999E+02 -0.40359928127E+02  0.15056658150E+03  0.12509000000E+03 0.  0.
<mgrwt>
<rscale>  2 0.45217199E+03</rscale>
<asrwt>0</asrwt>
<pdfrwt beam="1">  1       21 0.22573700E-01 0.45217199E+03</pdfrwt>
<pdfrwt beam="2">  1       21 0.48969621E-01 0.45217199E+03</pdfrwt>
<totfact> 0.67738332E+04</totfact>
</mgrwt>
</event>
<event>
 7    0  0.4766352E-002  0.4535932E+03  0.7546771E-02  0.1026656E+00
         21   -1    0    0  502  501  0.00000000000E+00  0.00000000000E+00  0.63697489919E+02  0.63697489919E+02  0.00000000000E+00 0.  1.
         21   -1    0    0  501  502 -0.00000000000E+00 -0.00000000000E+00 -0.80751513916E+03  0.80751513916E+03  0.00000000000E+00 0.  1.
      99926    2    1    2    0    0  0.00000000000E+00 -0.71054273576E-14 -0.74381764924E+03  0.87121262908E+03  0.45359315443E+03 0.  0.
      99925    2    3    3    0    0 -0.27023168003E+02 -0.49064138016E+02 -0.65455763137E+03  0.70765101947E+03  0.26303370757E+03 0.  0.
         25    1    4    4    0    0 -0.69502643818E+01 -0.64551704345E+01 -0.22295508656E+03  0.25582504593E+03  0.12509000000E+03 0.  0.
         25    1    3    3    0    0  0.27023168003E+02  0.49064138016E+02 -0.89260017867E+02  0.16356160961E+03  0.12509000000E+03 0.  0.
         25    1    4    4    0    0 -0.20072903621E+02 -0.42608967581E+02 -0.43160254481E+03  0.45182597354E+03  0.12509000000E+03 0.  0.
<mgrwt>
<rscale>  2 0.45359315E+03</rscale>
<asrwt>0</asrwt>
<pdfrwt beam="1">  1       21 0.93672783E-02 0.45359315E+03</pdfrwt>
<pdfrwt beam="2">  1       21 0.11875222E+00 0.45359315E+03</pdfrwt>
<totfact> 0.44995582E+04</totfact>
</mgrwt>
</event>
<event>
 7    0  0.4766352E-002  0.4545558E+03  0.7546771E-02  0.1026372E+00
         21   -1    0    0  502  501  0.00000000000E+00  0.00000000000E+00  0.46432850010E+02  0.46432850010E+02  0.00000000000E+00 0.  1.
         21   -1    0    0  501  502 -0.00000000000E+00 -0.00000000000E+00 -0.11124719938E+04  0.11124719938E+04  0.00000000000E+00 0.  1.
      99926    2    1    2    0    0  0.00000000000E+00  0.00000000000E+00 -0.10660391438E+04  0.11589048438E+04  0.45455580615E+03 0.  0.
      99925    2    3    3    0    0  0.10333361100E+03  0.24395201179E+02 -0.57423195028E+03  0.64045061759E+03  0.26298612100E+03 0.  0.
         25    1    3    3    0    0 -0.10333361100E+03 -0.24395201179E+02 -0.49180719347E+03  0.51845422619E+03  0.12509000000E+03 0.  0.
         25    1    4    4    0    0  0.85842372221E+02  0.38321762388E+02 -0.31027944577E+03  0.34750296820E+03  0.12509000000E+03 0.  0.
         25    1    4    4    0    0  0.17491238779E+02 -0.13926561209E+02 -0.26395250452E+03  0.29294764939E+03  0.12509000000E+03 0.  0.
<mgrwt>
<rscale>  2 0.45455581E+03</rscale>
<asrwt>0</asrwt>
<pdfrwt beam="1">  1       21 0.68283607E-02 0.45455581E+03</pdfrwt>
<pdfrwt beam="2">  1       21 0.16359881E+00 0.45455581E+03</pdfrwt>
<totfact> 0.33602609E+04</totfact>
</mgrwt>
</event>
<event>
 7    0  0.4766352E-002  0.4460152E+03  0.7546771E-02  0.1028917E+00
         21   -1    0    0  502  501  0.00000000000E+00  0.00000000000E+00  0.24685108395E+03  0.24685108395E+03  0.00000000000E+00 0. -1.
         21   -1    0    0  501  502 -0.00000000000E+00 -0.00000000000E+00 -0.20146716115E+03  0.20146716115E+03  0.00000000000E+00 0. -1.
      99926    2    1    2    0    0  0.00000000000E+00 -0.14210854715E-13  0.45383922799E+02  0.44831824510E+03  0.44601518858E+03 0.  0.
      99925    2    3    3    0    0  0.63078279288E+02 -0.79980288427E+02  0.50018610697E+01  0.28202352220E+03  0.26293826767E+03 0.  0.
         25    1    4    4    0    0  0.26729401087E+02 -0.21515523186E+02 -0.33839344132E+02  0.13405218361E+03  0.12509000000E+03 0.  0.
         25    1    3    3    0    0 -0.63078279288E+02  0.79980288427E+02  0.40382061729E+02  0.16629472290E+03  0.12509000000E+03 0.  0.
         25    1    4    4    0    0  0.36348878201E+02 -0.58464765241E+02  0.38841205202E+02  0.14797133859E+03  0.12509000000E+03 0.  0.
<mgrwt>
<rscale>  2 0.44601519E+03</rscale>
<asrwt>0</asrwt>
<pdfrwt beam="1">  1       21 0.36301630E-01 0.44601519E+03</pdfrwt>
<pdfrwt beam="2">  1       21 0.29627523E-01 0.44601519E+03</pdfrwt>
<totfact> 0.74217401E+04</totfact>
</mgrwt>
</event>
<event>
 7    0  0.4766352E-002  0.4743829E+03  0.7546771E-02  0.1020690E+00
         21   -1    0    0  502  501  0.00000000000E+00  0.00000000000E+00  0.92845487818E+03  0.92845487818E+03  0.00000000000E+00 0.  1.
         21   -1    0    0  501  502 -0.00000000000E+00 -0.00000000000E+00 -0.60595061145E+02  0.60595061145E+02  0.00000000000E+00 0.  1.
      99926    2    1    2    0    0  0.00000000000E+00 -0.14210854715E-13  0.86785981704E+03  0.98904993933E+03  0.47438288382E+03 0.  0.
      99925    2    3    3    0    0  0.94368286948E+02 -0.65346183772E+02  0.40755985742E+03  0.49843903623E+03  0.26298467283E+03 0.  0.
         25    1    4    4    0    0  0.27001163346E+02 -0.54209188188E+02  0.24966272494E+03  0.28573883746E+03  0.12509000000E+03 0.  0.
         25    1    3    3    0    0 -0.94368286948E+02  0.65346183772E+02  0.46029995962E+03  0.49061090310E+03  0.12509000000E+03 0.  0.
         25    1    4    4    0    0  0.67367123602E+02 -0.11136995585E+02  0.15789713248E+03  0.21270019877E+03  0.12509000000E+03 0.  0.
<mgrwt>
<rscale>  2 0.47438288E+03</rscale>
<asrwt>0</asrwt>
<pdfrwt beam="1">  1       21 0.13653747E+00 0.47438288E+03</pdfrwt>
<pdfrwt beam="2">  1       21 0.89110390E-02 0.47438288E+03</pdfrwt>
<totfact> 0.34126898E+04</totfact>
</mgrwt>
</event>
<event>
 7    0  0.4766352E-002  0.4065057E+03  0.7546771E-02  0.1041550E+00
         21   -1    0    0  502  501  0.00000000000E+00  0.00000000000E+00  0.19393137953E+04  0.19393137953E+04  0.00000000000E+00 0. -1.
         21   -1    0    0  501  502 -0.00000000000E+00 -0.00000000000E+00 -0.21302232795E+02  0.21302232795E+02  0.00000000000E+00 0. -1.
      99926    2    1    2    0    0  0.00000000000E+00  0.00000000000E+00  0.19180115625E+04  0.19606160281E+04  0.40650566506E+03 0.  0.
      99925    2    3    3    0    0 -0.33978271235E+02  0.13935086702E+02  0.10540439570E+04  0.10868676427E+04  0.26253361662E+03 0.  0.
         25    1    4    4    0    0 -0.28884980480E+02  0.44841092629E+02  0.52270649488E+03  0.54010615028E+03  0.12509000000E+03 0.  0.
         25    1    3    3    0    0  0.33978271235E+02 -0.13935086702E+02  0.86396760545E+03  0.87374838537E+03  0.12509000000E+03 0.  0.
         25    1    4    4    0    0 -0.50932907556E+01 -0.30906005927E+02  0.53133746216E+03  0.54676149243E+03  0.12509000000E+03 0.  0.
<mgrwt>
<rscale>  2 0.40650567E+03</rscale>
<asrwt>0</asrwt>
<pdfrwt beam="1">  1       21 0.28519309E+00 0.40650567E+03</pdfrwt>
<pdfrwt beam="2">  1       21 0.31326826E-02 0.40650567E+03</pdfrwt>
<totfact> 0.21336967E+04</totfact>
</mgrwt>
</event>
<event>
 7    0  0.4766352E-002  0.4511537E+03  0.7546771E-02  0.1027379E+00
         21   -1    0    0  502  501  0.00000000000E+00  0.00000000000E+00  0.11573646556E+03  0.11573646556E+03  0.00000000000E+00 0. -1.
         21   -1    0    0  501  502 -0.00000000000E+00 -0.00000000000E+00 -0.43966199741E+03  0.43966199741E+03  0.00000000000E+00 0. -1.
      99926    2    1    2    0    0  0.00000000000E+00  0.00000000000E+00 -0.32392553185E+03  0.55539846297E+03  0.45115374595E+03 0.  0.
      99925    2    3    3    0    0 -0.47875380519E+02  0.27533044877E+02 -0.88003136632E+02  0.28271365356E+03  0.26293028968E+03 0.  0.
         25    1    4    4    0    0 -0.29854745982E+02 -0.14607691621E+02 -0.13651935226E+02  0.13014827678E+03  0.12509000000E+03 0.  0.
         25    1    3    3    0    0  0.47875380519E+02 -0.27533044877E+02 -0.23592239522E+03  0.27268480942E+03  0.12509000000E+03 0.  0.
         25    1    4    4    0    0 -0.18020634536E+02  0.42140736498E+02 -0.74351201406E+02  0.15256537678E+03  0.12509000000E+03 0.  0.
<mgrwt>
<rscale>  2 0.45115375E+03</rscale>
<asrwt>0</asrwt>
<pdfrwt beam="1">  1       21 0.17020068E-01 0.45115375E+03</pdfrwt>
<pdfrwt beam="2">  1       21 0.64656176E-01 0.45115375E+03</pdfrwt>
<totfact> 0.63418898E+04</totfact>
</mgrwt>
</event>
<event>
 7    0  0.4766352E-002  0.5218338E+03  0.7546771E-02  0.1008232E+00
         21   -1    0    0  502  501  0.00000000000E+00  0.00000000000E+00  0.98048526124E+03  0.98048526124E+03  0.00000000000E+00 0.  1.
         21   -1    0    0  501  502 -0.00000000000E+00 -0.00000000000E+00 -0.69432591432E+02  0.69432591432E+02  0.00000000000E+00 0.  1.
      99926    2    1    2    0    0  0.00000000000E+00  0.00000000000E+00  0.91105266981E+03  0.10499178527E+04  0.52183381473E+03 0.  0.
      99925    2    3    3    0    0 -0.19907103699E+02 -0.16232165359E+03  0.46532248767E+03  0.55893158466E+03  0.26293513802E+03 0.  0.
         25    1    4    4    0    0 -0.45264128722E+02 -0.60731243177E+02  0.20810992030E+03  0.25435088416E+03  0.12509000000E+03 0.  0.
         25    1    3    3    0    0  0.19907103699E+02  0.16232165359E+03  0.44573018214E+03  0.49098626801E+03  0.12509000000E+03 0.  0.
         25    1    4    4    0    0  0.25357025023E+02 -0.10159041041E+03  0.25721256737E+03  0.30458070050E+03  0.12509000000E+03 0.  0.
<mgrwt>
<rscale>  2 0.52183381E+03</rscale>
<asrwt>0</asrwt>
<pdfrwt beam="1">  1       21 0.14418900E+00 0.52183381E+03</pdfrwt>
<pdfrwt beam="2">  1       21 0.10210676E-01 0.52183381E+03</pdfrwt>
<totfact> 0.22831602E+04</totfact>
</mgrwt>
</event>
<event>
 7    0  0.4766352E-002  0.4569049E+03  0.7546771E-02  0.1025683E+00
         21   -1    0    0  502  501  0.00000000000E+00  0.00000000000E+00  0.50548721271E+03  0.50548721271E+03  0.00000000000E+00 0.  1.
         21   -1    0    0  501  502 -0.00000000000E+00 -0.00000000000E+00 -0.10324795947E+03  0.10324795947E+03  0.00000000000E+00 0.  1.
      99926    2    1    2    0    0  0.00000000000E+00  0.00000000000E+00  0.40223925324E+03  0.60873517218E+03  0.45690490586E+03 0.  0.
      99925    2    3    3    0    0 -0.24875858259E+02 -0.88295643949E+02  0.34495078307E+03  0.44337373176E+03  0.26301006484E+03 0.  0.
         25    1    4    4    0    0 -0.23638347023E+02 -0.17399053864E+02  0.20992103697E+03  0.24612161301E+03  0.12509000000E+03 0.  0.
         25    1    3    3    0    0  0.24875858259E+02  0.88295643949E+02  0.57288470169E+02  0.16536144042E+03  0.12509000000E+03 0.  0.
         25    1    4    4    0    0 -0.12375112360E+01 -0.70896590086E+02  0.13502974610E+03  0.19725211875E+03  0.12509000000E+03 0.  0.
<mgrwt>
<rscale>  2 0.45690491E+03</rscale>
<asrwt>0</asrwt>
<pdfrwt beam="1">  1       21 0.74336354E-01 0.45690491E+03</pdfrwt>
<pdfrwt beam="2">  1       21 0.15183524E-01 0.45690491E+03</pdfrwt>
<totfact> 0.57277043E+04</totfact>
</mgrwt>
</event>
<event>
 7    0  0.4766352E-002  0.4522522E+03  0.7546771E-02  0.1027053E+00
         21   -1    0    0  502  501  0.00000000000E+00  0.00000000000E+00  0.11518746221E+04  0.11518746221E+04  0.00000000000E+00 0.  1.
         21   -1    0    0  501  502 -0.00000000000E+00 -0.00000000000E+00 -0.44391125774E+02  0.44391125774E+02  0.00000000000E+00 0.  1.
      99926    2    1    2    0    0  0.35527136788E-14  0.00000000000E+00  0.11074834963E+04  0.11962657478E+04  0.45225219169E+03 0.  0.
      99925    2    3    3    0    0  0.26637124506E+02 -0.10513550394E+03  0.75498334239E+03  0.80682142936E+03  0.26305505318E+03 0.  0.
         25    1    4    4    0    0 -0.22080190399E+02 -0.71052949325E+02  0.41047339412E+03  0.43551345765E+03  0.12509000000E+03 0.  0.
         25    1    4    4    0    0  0.48717314905E+02 -0.34082554613E+02  0.34450994827E+03  0.37130797171E+03  0.12509000000E+03 0.  0.
         25    1    3    3    0    0 -0.26637124506E+02  0.10513550394E+03  0.35250015389E+03  0.38944431847E+03  0.12509000000E+03 0.  0.
<mgrwt>
<rscale>  2 0.45225219E+03</rscale>
<asrwt>0</asrwt>
<pdfrwt beam="1">  1       21 0.16939331E+00 0.45225219E+03</pdfrwt>
<pdfrwt beam="2">  1       21 0.65281075E-02 0.45225219E+03</pdfrwt>
<totfact> 0.32974747E+04</totfact>
</mgrwt>
</event>
<event>
 7    0  0.4766352E-002  0.4552850E+03  0.7546771E-02  0.1026158E+00
         21   -1    0    0  502  501  0.00000000000E+00  0.00000000000E+00  0.72965781885E+03  0.72965781885E+03  0.00000000000E+00 0. -1.
         21   -1    0    0  501  502 -0.00000000000E+00 -0.00000000000E+00 -0.71021118122E+02  0.71021118122E+02  0.00000000000E+00 0. -1.
      99926    2    1    2    0    0  0.71054273576E-14  0.00000000000E+00  0.65863670072E+03  0.80067893697E+03  0.45528502783E+03 0.  0.
      99925    2    3    3    0    0  0.47476442071E+02 -0.84822132532E+02  0.51678375708E+03  0.58803234650E+03  0.26318773190E+03 0.  0.
         25    1    4    4    0    0 -0.13686741873E+01 -0.72217206886E+01  0.22104663770E+03  0.25409279930E+03  0.12509000000E+03 0.  0.
         25    1    3    3    0    0 -0.47476442071E+02  0.84822132532E+02  0.14185294364E+03  0.21264659047E+03  0.12509000000E+03 0.  0.
         25    1    4    4    0    0  0.48845116259E+02 -0.77600411843E+02  0.29573711938E+03  0.33393954720E+03  0.12509000000E+03 0.  0.
<mgrwt>
<rscale>  2 0.45528503E+03</rscale>
<asrwt>0</asrwt>
<pdfrwt beam="1">  1       21 0.10730262E+00 0.45528503E+03</pdfrwt>
<pdfrwt beam="2">  1       21 0.10444282E-01 0.45528503E+03</pdfrwt>
<totfact> 0.47625367E+04</totfact>
</mgrwt>
</event>
<event>
 7    0  0.4766352E-002  0.4342674E+03  0.7546771E-02  0.1032520E+00
         21   -1    0    0  502  501  0.00000000000E+00  0.00000000000E+00  0.76457566091E+02  0.76457566091E+02  0.00000000000E+00 0. -1.
         21   -1    0    0  501  502 -0.00000000000E+00 -0.00000000000E+00 -0.61664335647E+03  0.61664335647E+03  0.00000000000E+00 0. -1.
      99926    2    1    2    0    0 -0.71054273576E-14  0.00000000000E+00 -0.54018579038E+03  0.69310092256E+03  0.43426742996E+03 0.  0.
      99925    2    3    3    0    0 -0.42391232451E+02  0.81750929562E+02 -0.33382362806E+03  0.43481216707E+03  0.26295089829E+03 0.  0.
         25    1    4    4    0    0 -0.56275999179E+02  0.54926706459E+02 -0.20526571455E+03  0.25291392377E+03  0.12509000000E+03 0.  0.
         25    1    3    3    0    0  0.42391232451E+02 -0.81750929562E+02 -0.20636216232E+03  0.25828875549E+03  0.12509000000E+03 0.  0.
         25    1    4    4    0    0  0.13884766729E+02  0.26824223103E+02 -0.12855791350E+03  0.18189824330E+03  0.12509000000E+03 0.  0.
<mgrwt>
<rscale>  2 0.43426743E+03</rscale>
<asrwt>0</asrwt>
<pdfrwt beam="1">  1       21 0.11243760E-01 0.43426743E+03</pdfrwt>
<pdfrwt beam="2">  1       21 0.90682843E-01 0.43426743E+03</pdfrwt>
<totfact> 0.62938065E+04</totfact>
</mgrwt>
</event>
<event>
 7    0  0.4766352E-002  0.4568472E+03  0.7546771E-02  0.1025700E+00
         21   -1    0    0  502  501  0.00000000000E+00  0.00000000000E+00  0.42110783950E+03  0.42110783950E+03  0.00000000000E+00 0.  1.
         21   -1    0    0  501  502 -0.00000000000E+00 -0.00000000000E+00 -0.12390496168E+03  0.12390496168E+03  0.00000000000E+00 0.  1.
      99926    2    1    2    0    0  0.00000000000E+00  0.00000000000E+00  0.29720287782E+03  0.54501280118E+03  0.45684724238E+03 0.  0.
      99925    2    3    3    0    0 -0.19600770494E+02  0.42046636586E+02  0.61485054958E+02  0.27415765545E+03  0.26311575059E+03 0.  0.
         25    1    4    4    0    0  0.51088454754E+01  0.20512583570E+02  0.69395294637E+02  0.14460318601E+03  0.12509000000E+03 0.  0.
         25    1    3    3    0    0  0.19600770494E+02 -0.42046636586E+02  0.23571782286E+03  0.27085514573E+03  0.12509000000E+03 0.  0.
         25    1    4    4    0    0 -0.24709615970E+02  0.21534053015E+02 -0.79102396790E+01  0.12955446944E+03  0.12509000000E+03 0.  0.
<mgrwt>
<rscale>  2 0.45684724E+03</rscale>
<asrwt>0</asrwt>
<pdfrwt beam="1">  1       21 0.61927623E-01 0.45684724E+03</pdfrwt>
<pdfrwt beam="2">  1       21 0.18221318E-01 0.45684724E+03</pdfrwt>
<totfact> 0.61296376E+04</totfact>
</mgrwt>
</event>
<event>
 7    0  0.4766352E-002  0.4453167E+03  0.7546771E-02  0.1029128E+00
         21   -1    0    0  502  501  0.00000000000E+00  0.00000000000E+00  0.72132923020E+02  0.72132923020E+02  0.00000000000E+00 0. -1.
         21   -1    0    0  501  502 -0.00000000000E+00 -0.00000000000E+00 -0.68729684267E+03  0.68729684267E+03  0.00000000000E+00 0. -1.
      99926    2    1    2    0    0  0.00000000000E+00  0.00000000000E+00 -0.61516391965E+03  0.75942976569E+03  0.44531665248E+03 0.  0.
      99925    2    3    3    0    0  0.48701824746E+02 -0.64724760512E+02 -0.27939258310E+03  0.39207290798E+03  0.26286838403E+03 0.  0.
         25    1    4    4    0    0 -0.24653674280E+01 -0.13875262326E+02 -0.94133612844E+02  0.15718538771E+03  0.12509000000E+03 0.  0.
         25    1    4    4    0    0  0.51167192174E+02 -0.50849498186E+02 -0.18525897025E+03  0.23488752027E+03  0.12509000000E+03 0.  0.
         25    1    3    3    0    0 -0.48701824746E+02  0.64724760512E+02 -0.33577133656E+03  0.36735685771E+03  0.12509000000E+03 0.  0.
<mgrwt>
<rscale>  2 0.44531665E+03</rscale>
<asrwt>0</asrwt>
<pdfrwt beam="1">  1       21 0.10607783E-01 0.44531665E+03</pdfrwt>
<pdfrwt beam="2">  1       21 0.10107306E+00 0.44531665E+03</pdfrwt>
<totfact> 0.53761642E+04</totfact>
</mgrwt>
</event>
<event>
 7    0  0.4766352E-002  0.4542660E+03  0.7546771E-02  0.1026457E+00
         21   -1    0    0  502  501  0.00000000000E+00  0.00000000000E+00  0.61797433734E+03  0.61797433734E+03  0.00000000000E+00 0. -1.
         21   -1    0    0  501  502 -0.00000000000E+00 -0.00000000000E+00 -0.83481462783E+02  0.83481462783E+02  0.00000000000E+00 0. -1.
      99926    2    1    2    0    0 -0.35527136788E-14  0.14210854715E-13  0.53449287456E+03  0.70145580012E+03  0.45426600861E+03 0.  0.
      99925    2    3    3    0    0  0.20378596217E+02 -0.10950762351E+03  0.31261745013E+03  0.42345684535E+03  0.26301867416E+03 0.  0.
         25    1    4    4    0    0 -0.16009927268E+02 -0.30672116908E+02  0.11087161262E+03  0.17069598446E+03  0.12509000000E+03 0.  0.
         25    1    3    3    0    0 -0.20378596217E+02  0.10950762351E+03  0.22187542442E+03  0.27799895477E+03  0.12509000000E+03 0.  0.
         25    1    4    4    0    0  0.36388523484E+02 -0.78835506605E+02  0.20174583752E+03  0.25276086089E+03  0.12509000000E+03 0.  0.
<mgrwt>
<rscale>  2 0.45426601E+03</rscale>
<asrwt>0</asrwt>
<pdfrwt beam="1">  1       21 0.90878577E-01 0.45426601E+03</pdfrwt>
<pdfrwt beam="2">  1       21 0.12276686E-01 0.45426601E+03</pdfrwt>
<totfact> 0.53130207E+04</totfact>
</mgrwt>
</event>
<event>
 7    0  0.4766352E-002  0.4246134E+03  0.7546771E-02  0.1035575E+00
         21   -1    0    0  502  501  0.00000000000E+00  0.00000000000E+00  0.60055165284E+02  0.60055165284E+02  0.00000000000E+00 0. -1.
         21   -1    0    0  501  502 -0.00000000000E+00 -0.00000000000E+00 -0.75054548092E+03  0.75054548092E+03  0.00000000000E+00 0. -1.
      99926    2    1    2    0    0  0.00000000000E+00 -0.71054273576E-14 -0.69049031564E+03  0.81060064621E+03  0.42461339079E+03 0.  0.
      99925    2    3    3    0    0  0.65377878523E+02 -0.46998044348E+02 -0.42318851030E+03  0.50469077972E+03  0.26294711392E+03 0.  0.
         25    1    3    3    0    0 -0.65377878523E+02  0.46998044348E+02 -0.26730180534E+03  0.30590986648E+03  0.12509000000E+03 0.  0.
         25    1    4    4    0    0  0.56142831312E+02 -0.58426775870E+02 -0.23123744048E+03  0.27510719297E+03  0.12509000000E+03 0.  0.
         25    1    4    4    0    0  0.92350472102E+01  0.11428731522E+02 -0.19195106982E+03  0.22958358675E+03  0.12509000000E+03 0.  0.
<mgrwt>
<rscale>  2 0.42461339E+03</rscale>
<asrwt>0</asrwt>
<pdfrwt beam="1">  1       21 0.88316424E-02 0.42461339E+03</pdfrwt>
<pdfrwt beam="2">  1       21 0.11037433E+00 0.42461339E+03</pdfrwt>
<totfact> 0.60427301E+04</totfact>
</mgrwt>
</event>
<event>
 7    0  0.4766352E-002  0.4516183E+03  0.7546771E-02  0.1027241E+00
         21   -1    0    0  502  501  0.00000000000E+00  0.00000000000E+00  0.15403841277E+03  0.15403841277E+03  0.00000000000E+00 0.  1.
         21   -1    0    0  501  502 -0.00000000000E+00 -0.00000000000E+00 -0.33101981171E+03  0.33101981171E+03  0.00000000000E+00 0.  1.
      99926    2    1    2    0    0 -0.14210854715E-13  0.00000000000E+00 -0.17698139894E+03  0.48505822448E+03  0.45161827418E+03 0.  0.
      99925    2    3    3    0    0 -0.94595177388E+02  0.29394365895E+02 -0.59901034928E+02  0.28715017496E+03  0.26278282414E+03 0.  0.
         25    1    4    4    0    0 -0.71108609497E+01  0.16023776842E+01 -0.34141901805E+02  0.12987035657E+03  0.12509000000E+03 0.  0.
         25    1    3    3    0    0  0.94595177388E+02 -0.29394365895E+02 -0.11708036401E+03  0.19790804953E+03  0.12509000000E+03 0.  0.
         25    1    4    4    0    0 -0.87484316438E+02  0.27791988210E+02 -0.25759133123E+02  0.15727981838E+03  0.12509000000E+03 0.  0.
<mgrwt>
<rscale>  2 0.45161827E+03</rscale>
<asrwt>0</asrwt>
<pdfrwt beam="1">  1       21 0.22652708E-01 0.45161827E+03</pdfrwt>
<pdfrwt beam="2">  1       21 0.48679383E-01 0.45161827E+03</pdfrwt>
<totfact> 0.68144828E+04</totfact>
</mgrwt>
</event>
<event>
 7    0  0.4766352E-002  0.4509982E+03  0.7546771E-02  0.1027425E+00
         21   -1    0    0  502  501  0.00000000000E+00  0.00000000000E+00  0.43810583942E+03  0.43810583942E+03  0.00000000000E+00 0.  1.
         21   -1    0    0  501  502 -0.00000000000E+00 -0.00000000000E+00 -0.11606750363E+03  0.11606750363E+03  0.00000000000E+00 0.  1.
      99926    2    1    2    0    0  0.00000000000E+00  0.00000000000E+00  0.32203833578E+03  0.55417334305E+03  0.45099823108E+03 0.  0.
      99925    2    3    3    0    0 -0.69400167136E+02 -0.39437059306E+02  0.11099266382E+03  0.29618216375E+03  0.26274100909E+03 0.  0.
         25    1    4    4    0    0 -0.39409162114E+02 -0.46737318804E+02  0.89618902612E+02  0.16557933094E+03  0.12509000000E+03 0.  0.
         25    1    4    4    0    0 -0.29991005022E+02  0.73002594981E+01  0.21373761212E+02  0.13060283282E+03  0.12509000000E+03 0.  0.
         25    1    3    3    0    0  0.69400167136E+02  0.39437059306E+02  0.21104567196E+03  0.25799117930E+03  0.12509000000E+03 0.  0.
<mgrwt>
<rscale>  2 0.45099823E+03</rscale>
<asrwt>0</asrwt>
<pdfrwt beam="1">  1       21 0.64427329E-01 0.45099823E+03</pdfrwt>
<pdfrwt beam="2">  1       21 0.17068751E-01 0.45099823E+03</pdfrwt>
<totfact> 0.63580629E+04</totfact>
</mgrwt>
</event>
<event>
 7    0  0.4766352E-002  0.4513943E+03  0.7546771E-02  0.1027307E+00
         21   -1    0    0  502  501  0.00000000000E+00  0.00000000000E+00  0.16451570089E+03  0.16451570089E+03  0.00000000000E+00 0. -1.
         21   -1    0    0  501  502 -0.00000000000E+00 -0.00000000000E+00 -0.30963119073E+03  0.30963119073E+03  0.00000000000E+00 0. -1.
      99926    2    1    2    0    0  0.71054273576E-14  0.71054273576E-14 -0.14511548984E+03  0.47414689161E+03  0.45139425055E+03 0.  0.
      99925    2    3    3    0    0 -0.38603549292E+02 -0.59798481715E+02 -0.17935747442E+03  0.32620732949E+03  0.26301335660E+03 0.  0.
         25    1    3    3    0    0  0.38603549292E+02  0.59798481715E+02  0.34241984578E+02  0.14793956212E+03  0.12509000000E+03 0.  0.
         25    1    4    4    0    0  0.20646200093E+02 -0.28037710643E+02 -0.96657896142E+02  0.16187228232E+03  0.12509000000E+03 0.  0.
         25    1    4    4    0    0 -0.59249749386E+02 -0.31760771072E+02 -0.82699578277E+02  0.16433504717E+03  0.12509000000E+03 0.  0.
<mgrwt>
<rscale>  2 0.45139425E+03</rscale>
<asrwt>0</asrwt>
<pdfrwt beam="1">  1       21 0.24193485E-01 0.45139425E+03</pdfrwt>
<pdfrwt beam="2">  1       21 0.45533999E-01 0.45139425E+03</pdfrwt>
<totfact> 0.69084571E+04</totfact>
</mgrwt>
</event>
<event>
 7    0  0.4766352E-002  0.4599075E+03  0.7546771E-02  0.1024808E+00
         21   -1    0    0  502  501  0.00000000000E+00  0.00000000000E+00  0.15490459415E+03  0.15490459415E+03  0.00000000000E+00 0.  1.
         21   -1    0    0  501  502 -0.00000000000E+00 -0.00000000000E+00 -0.34136321511E+03  0.34136321511E+03  0.00000000000E+00 0.  1.
      99926    2    1    2    0    0  0.71054273576E-14 -0.71054273576E-14 -0.18645862096E+03  0.49626780925E+03  0.45990751372E+03 0.  0.
      99925    2    3    3    0    0 -0.60736341729E+02  0.60030605503E+02 -0.20413813678E+03  0.34377961239E+03  0.26309592586E+03 0.  0.
         25    1    4    4    0    0 -0.58995071619E+02  0.88565341994E+01 -0.12795852681E+03  0.18862595091E+03  0.12509000000E+03 0.  0.
         25    1    3    3    0    0  0.60736341729E+02 -0.60030605503E+02  0.17679515818E+02  0.15248819687E+03  0.12509000000E+03 0.  0.
         25    1    4    4    0    0 -0.17412701101E+01  0.51174071303E+02 -0.76179609961E+02  0.15515366148E+03  0.12509000000E+03 0.  0.
<mgrwt>
<rscale>  2 0.45990751E+03</rscale>
<asrwt>0</asrwt>
<pdfrwt beam="1">  1       21 0.22780087E-01 0.45990751E+03</pdfrwt>
<pdfrwt beam="2">  1       21 0.50200473E-01 0.45990751E+03</pdfrwt>
<totfact> 0.63041603E+04</totfact>
</mgrwt>
</event>
<event>
 7    0  0.4766352E-002  0.4569871E+03  0.7546771E-02  0.1025659E+00
         21   -1    0    0  502  501  0.00000000000E+00  0.00000000000E+00  0.16013906051E+03  0.16013906051E+03  0.00000000000E+00 0. -1.
         21   -1    0    0  501  502 -0.00000000000E+00 -0.00000000000E+00 -0.32602483653E+03  0.32602483653E+03  0.00000000000E+00 0. -1.
      99926    2    1    2    0    0  0.00000000000E+00  0.00000000000E+00 -0.16588577601E+03  0.48616389704E+03  0.45698713778E+03 0.  0.
      99925    2    3    3    0    0  0.10344747372E+03  0.18943883560E+02 -0.15333048144E+03  0.32225723438E+03  0.26320949456E+03 0.  0.
         25    1    4    4    0    0  0.81591897396E+02  0.25679348087E+02 -0.11238182469E+03  0.18866332250E+03  0.12509000000E+03 0.  0.
         25    1    4    4    0    0  0.21855576322E+02 -0.67354645277E+01 -0.40948656756E+02  0.13359391187E+03  0.12509000000E+03 0.  0.
         25    1    3    3    0    0 -0.10344747372E+03 -0.18943883560E+02 -0.12555294573E+02  0.16390666266E+03  0.12509000000E+03 0.  0.
<mgrwt>
<rscale>  2 0.45698714E+03</rscale>
<asrwt>0</asrwt>
<pdfrwt beam="1">  1       21 0.23549862E-01 0.45698714E+03</pdfrwt>
<pdfrwt beam="2">  1       21 0.47944828E-01 0.45698714E+03</pdfrwt>
<totfact> 0.65219186E+04</totfact>
</mgrwt>
</event>
<event>
 7    0  0.4766352E-002  0.4130020E+03  0.7546771E-02  0.1039368E+00
         21   -1    0    0  502  501  0.00000000000E+00  0.00000000000E+00  0.38811469959E+02  0.38811469959E+02  0.00000000000E+00 0.  1.
         21   -1    0    0  501  502 -0.00000000000E+00 -0.00000000000E+00 -0.10987126610E+04  0.10987126610E+04  0.00000000000E+00 0.  1.
      99926    2    1    2    0    0  0.00000000000E+00  0.17763568394E-14 -0.10599011911E+04  0.11375241310E+04  0.41300195369E+03 0.  0.
      99925    2    3    3    0    0 -0.63483366858E+02  0.11148431400E+02 -0.65146476055E+03  0.70552615499E+03  0.26307108497E+03 0.  0.
         25    1    4    4    0    0 -0.50152725171E+02 -0.17089026259E+02 -0.40813750031E+03  0.43015236594E+03  0.12509000000E+03 0.  0.
         25    1    4    4    0    0 -0.13330641687E+02  0.28237457660E+02 -0.24332726024E+03  0.27537378906E+03  0.12509000000E+03 0.  0.
         25    1    3    3    0    0  0.63483366858E+02 -0.11148431400E+02 -0.40843643052E+03  0.43199797600E+03  0.12509000000E+03 0.  0.
<mgrwt>
<rscale>  2 0.41300195E+03</rscale>
<asrwt>0</asrwt>
<pdfrwt beam="1">  1       21 0.57075686E-02 0.41300195E+03</pdfrwt>
<pdfrwt beam="2">  1       21 0.16157540E+00 0.41300195E+03</pdfrwt>
<totfact> 0.48128308E+04</totfact>
</mgrwt>
</event>
<event>
 7    0  0.4766352E-002  0.4545692E+03  0.7546771E-02  0.1026368E+00
         21   -1    0    0  502  501  0.00000000000E+00  0.00000000000E+00  0.29312253742E+03  0.29312253742E+03  0.00000000000E+00 0. -1.
         21   -1    0    0  501  502 -0.00000000000E+00 -0.00000000000E+00 -0.17623444891E+03  0.17623444891E+03  0.00000000000E+00 0. -1.
      99926    2    1    2    0    0  0.00000000000E+00  0.00000000000E+00  0.11688808851E+03  0.46935698633E+03  0.45456919757E+03 0.  0.
      99925    2    3    3    0    0  0.50458309351E+02 -0.76731764472E+02  0.14119360487E+03  0.31228352936E+03  0.26296684960E+03 0.  0.
         25    1    3    3    0    0 -0.50458309351E+02  0.76731764472E+02 -0.24305516358E+02  0.15707345698E+03  0.12509000000E+03 0.  0.
         25    1    4    4    0    0  0.74937416392E+01 -0.75098595086E+02  0.79617594255E+02  0.16638036111E+03  0.12509000000E+03 0.  0.
         25    1    4    4    0    0  0.42964567712E+02 -0.16331693866E+01  0.61576010618E+02  0.14590316825E+03  0.12509000000E+03 0.  0.
<mgrwt>
<rscale>  2 0.45456920E+03</rscale>
<asrwt>0</asrwt>
<pdfrwt beam="1">  1       21 0.43106256E-01 0.45456920E+03</pdfrwt>
<pdfrwt beam="2">  1       21 0.25916831E-01 0.45456920E+03</pdfrwt>
<totfact> 0.67714697E+04</totfact>
</mgrwt>
</event>
<event>
 7    0  0.4766352E-002  0.4354372E+03  0.7546771E-02  0.1032156E+00
         21   -1    0    0  502  501  0.00000000000E+00  0.00000000000E+00  0.61735648330E+03  0.61735648330E+03  0.00000000000E+00 0. -1.
         21   -1    0    0  501  502 -0.00000000000E+00 -0.00000000000E+00 -0.76781215150E+02  0.76781215150E+02  0.00000000000E+00 0. -1.
      99926    2    1    2    0    0  0.00000000000E+00  0.00000000000E+00  0.54057526815E+03  0.69413769845E+03  0.43543716409E+03 0.  0.
      99925    2    3    3    0    0  0.42192403909E+02 -0.47656165524E+02  0.23743223917E+03  0.36008004897E+03  0.26312024705E+03 0.  0.
         25    1    4    4    0    0  0.29030337471E+01  0.96121448831E+01  0.88516325116E+02  0.15356910121E+03  0.12509000000E+03 0.  0.
         25    1    4    4    0    0  0.39289370162E+02 -0.57268310407E+02  0.14891591406E+03  0.20651094776E+03  0.12509000000E+03 0.  0.
         25    1    3    3    0    0 -0.42192403909E+02  0.47656165524E+02  0.30314302898E+03  0.33405764949E+03  0.12509000000E+03 0.  0.
<mgrwt>
<rscale>  2 0.43543716E+03</rscale>
<asrwt>0</asrwt>
<pdfrwt beam="1">  1       21 0.90787715E-01 0.43543716E+03</pdfrwt>
<pdfrwt beam="2">  1       21 0.11291356E-01 0.43543716E+03</pdfrwt>
<totfact> 0.62270899E+04</totfact>
</mgrwt>
</event>
<event>
 7    0  0.4766352E-002  0.4535753E+03  0.7546771E-02  0.1026661E+00
         21   -1    0    0  502  501  0.00000000000E+00  0.00000000000E+00  0.91807906166E+03  0.91807906166E+03  0.00000000000E+00 0.  1.
         21   -1    0    0  501  502 -0.00000000000E+00 -0.00000000000E+00 -0.56022005340E+02  0.56022005340E+02  0.00000000000E+00 0.  1.
      99926    2    1    2    0    0  0.14210854715E-13  0.14210854715E-13  0.86205705632E+03  0.97410106700E+03  0.45357526429E+03 0.  0.
      99925    2    3    3    0    0 -0.89585340610E+02 -0.66711454702E+02  0.54689121337E+03  0.61709550947E+03  0.26313668903E+03 0.  0.
         25    1    4    4    0    0 -0.60224156267E+02 -0.67234716648E+02  0.25258433022E+03  0.29596251130E+03  0.12509000000E+03 0.  0.
         25    1    3    3    0    0  0.89585340610E+02  0.66711454702E+02  0.31516584295E+03  0.35700555752E+03  0.12509000000E+03 0.  0.
         25    1    4    4    0    0 -0.29361184344E+02  0.52326194574E+00  0.29430688315E+03  0.32113299818E+03  0.12509000000E+03 0.  0.
<mgrwt>
<rscale>  2 0.45357526E+03</rscale>
<asrwt>0</asrwt>
<pdfrwt beam="1">  1       21 0.13501162E+00 0.45357526E+03</pdfrwt>
<pdfrwt beam="2">  1       21 0.82385308E-02 0.45357526E+03</pdfrwt>
<totfact> 0.40630620E+04</totfact>
</mgrwt>
</event>
<event>
 7    0  0.4766352E-002  0.4509777E+03  0.7546771E-02  0.1027431E+00
         21   -1    0    0  502  501  0.00000000000E+00  0.00000000000E+00  0.35426465426E+03  0.35426465426E+03  0.00000000000E+00 0.  1.
         21   -1    0    0  501  502 -0.00000000000E+00 -0.00000000000E+00 -0.14352326621E+03  0.14352326621E+03  0.00000000000E+00 0.  1.
      99926    2    1    2    0    0  0.00000000000E+00  0.00000000000E+00  0.21074138805E+03  0.49778792047E+03  0.45097769471E+03 0.  0.
      99925    2    3    3    0    0 -0.86443569678E+01  0.67326092296E+02  0.22779422549E+03  0.35444973653E+03  0.26293892627E+03 0.  0.
         25    1    3    3    0    0  0.86443569678E+01 -0.67326092296E+02 -0.17052837443E+02  0.14333818394E+03  0.12509000000E+03 0.  0.
         25    1    4    4    0    0  0.13372097117E+02  0.40957968174E+02  0.68390996628E+02  0.14893355786E+03  0.12509000000E+03 0.  0.
         25    1    4    4    0    0 -0.22016454084E+02  0.26368124122E+02  0.15940322887E+03  0.20551617867E+03  0.12509000000E+03 0.  0.
<mgrwt>
<rscale>  2 0.45097769E+03</rscale>
<asrwt>0</asrwt>
<pdfrwt beam="1">  1       21 0.52097743E-01 0.45097769E+03</pdfrwt>
<pdfrwt beam="2">  1       21 0.21106363E-01 0.45097769E+03</pdfrwt>
<totfact> 0.67557781E+04</totfact>
</mgrwt>
</event>
<event>
 7    0  0.4766352E-002  0.4601510E+03  0.7546771E-02  0.1024737E+00
         21   -1    0    0  502  501  0.00000000000E+00  0.00000000000E+00  0.24866491229E+03  0.24866491229E+03  0.00000000000E+00 0. -1.
         21   -1    0    0  501  502 -0.00000000000E+00 -0.00000000000E+00 -0.21287581656E+03  0.21287581656E+03  0.00000000000E+00 0. -1.
      99926    2    1    2    0    0  0.00000000000E+00 -0.14210854715E-13  0.35789095728E+02  0.46154072885E+03  0.46015104587E+03 0.  0.
      99925    2    3    3    0    0  0.28399423422E+02  0.11144014492E+03 -0.34474525376E+01  0.28714907776E+03  0.26309176114E+03 0.  0.
         25    1    4    4    0    0 -0.25563978625E+02  0.51274198580E+02 -0.11032618597E+02  0.13802821167E+03  0.12509000000E+03 0.  0.
         25    1    4    4    0    0  0.53963402046E+02  0.60165946343E+02  0.75851660592E+01  0.14912086609E+03  0.12509000000E+03 0.  0.
         25    1    3    3    0    0 -0.28399423422E+02 -0.11144014492E+03  0.39236548265E+02  0.17439165109E+03  0.12509000000E+03 0.  0.
<mgrwt>
<rscale>  2 0.46015105E+03</rscale>
<asrwt>0</asrwt>
<pdfrwt beam="1">  1       21 0.36568370E-01 0.46015105E+03</pdfrwt>
<pdfrwt beam="2">  1       21 0.31305267E-01 0.46015105E+03</pdfrwt>
<totfact> 0.65342229E+04</totfact>
</mgrwt>
</event>
<event>
 7    0  0.4766352E-002  0.4444876E+03  0.7546771E-02  0.1029379E+00
         21   -1    0    0  502  501  0.00000000000E+00  0.00000000000E+00  0.76929593914E+03  0.76929593914E+03  0.00000000000E+00 0.  1.
         21   -1    0    0  501  502 -0.00000000000E+00 -0.00000000000E+00 -0.64204554254E+02  0.64204554254E+02  0.00000000000E+00 0.  1.
      99926    2    1    2    0    0  0.00000000000E+00  0.14210854715E-13  0.70509138488E+03  0.83350049339E+03  0.44448758301E+03 0.  0.
      99925    2    3    3    0    0 -0.36302753197E+02  0.67515761294E+02  0.31938000010E+03  0.42082986399E+03  0.26309299127E+03 0.  0.
         25    1    3    3    0    0  0.36302753197E+02 -0.67515761294E+02  0.38571138479E+03  0.41267062940E+03  0.12509000000E+03 0.  0.
         25    1    4    4    0    0 -0.57429528105E+02  0.35335631787E+02  0.14784450125E+03  0.20506648244E+03  0.12509000000E+03 0.  0.
         25    1    4    4    0    0  0.21126774909E+02  0.32180129507E+02  0.17153549885E+03  0.21576338155E+03  0.12509000000E+03 0.  0.
<mgrwt>
<rscale>  2 0.44448758E+03</rscale>
<asrwt>0</asrwt>
<pdfrwt beam="1">  1       21 0.11313175E+00 0.44448758E+03</pdfrwt>
<pdfrwt beam="2">  1       21 0.94418467E-02 0.44448758E+03</pdfrwt>
<totfact> 0.50200855E+04</totfact>
</mgrwt>
</event>
<event>
 7    0  0.4766352E-002  0.4539311E+03  0.7546771E-02  0.1026556E+00
         21   -1    0    0  502  501  0.00000000000E+00  0.00000000000E+00  0.45303416106E+03  0.45303416106E+03  0.00000000000E+00 0.  1.
         21   -1    0    0  501  502 -0.00000000000E+00 -0.00000000000E+00 -0.11370747464E+03  0.11370747464E+03  0.00000000000E+00 0.  1.
      99926    2    1    2    0    0  0.14210854715E-13  0.17763568394E-14  0.33932668641E+03  0.56674163570E+03  0.45393114183E+03 0.  0.
      99925    2    3    3    0    0 -0.11170106315E+03 -0.87609312935E+01  0.20829830811E+03  0.35373969804E+03  0.26303936470E+03 0.  0.
         25    1    4    4    0    0 -0.84547840146E+02  0.25777510856E+02  0.10574751716E+03  0.18612593270E+03  0.12509000000E+03 0.  0.
         25    1    3    3    0    0  0.11170106315E+03  0.87609312935E+01  0.13102837831E+03  0.21300193766E+03  0.12509000000E+03 0.  0.
         25    1    4    4    0    0 -0.27153223002E+02 -0.34538442149E+02  0.10255079095E+03  0.16761376534E+03  0.12509000000E+03 0.  0.
<mgrwt>
<rscale>  2 0.45393114E+03</rscale>
<asrwt>0</asrwt>
<pdfrwt beam="1">  1       21 0.66622670E-01 0.45393114E+03</pdfrwt>
<pdfrwt beam="2">  1       21 0.16721688E-01 0.45393114E+03</pdfrwt>
<totfact> 0.61290027E+04</totfact>
</mgrwt>
</event>
<event>
 7    0  0.4766352E-002  0.4514943E+03  0.7546771E-02  0.1027277E+00
         21   -1    0    0  502  501  0.00000000000E+00  0.00000000000E+00  0.36140225959E+03  0.36140225959E+03  0.00000000000E+00 0. -1.
         21   -1    0    0  501  502 -0.00000000000E+00 -0.00000000000E+00 -0.14101120203E+03  0.14101120203E+03  0.00000000000E+00 0. -1.
      99926    2    1    2    0    0  0.35527136788E-14  0.00000000000E+00  0.22039105756E+03  0.50241346162E+03  0.45149426149E+03 0.  0.
      99925    2    3    3    0    0 -0.25607032656E+02  0.79606155116E+02  0.21832163238E+03  0.35193206518E+03  0.26305699626E+03 0.  0.
         25    1    4    4    0    0  0.54888478520E+01  0.17711976532E+02  0.14091630740E+03  0.18933767548E+03  0.12509000000E+03 0.  0.
         25    1    3    3    0    0  0.25607032656E+02 -0.79606155116E+02  0.20694251866E+01  0.15048139644E+03  0.12509000000E+03 0.  0.
         25    1    4    4    0    0 -0.31095880508E+02  0.61894178584E+02  0.77405324973E+02  0.16259438970E+03  0.12509000000E+03 0.  0.
<mgrwt>
<rscale>  2 0.45149426E+03</rscale>
<asrwt>0</asrwt>
<pdfrwt beam="1">  1       21 0.53147391E-01 0.45149426E+03</pdfrwt>
<pdfrwt beam="2">  1       21 0.20736941E-01 0.45149426E+03</pdfrwt>
<totfact> 0.66944973E+04</totfact>
</mgrwt>
</event>
<event>
 7    0  0.4766352E-002  0.4547736E+03  0.7546771E-02  0.1026308E+00
         21   -1    0    0  502  501  0.00000000000E+00  0.00000000000E+00  0.38896095008E+03  0.38896095008E+03  0.00000000000E+00 0. -1.
         21   -1    0    0  501  502 -0.00000000000E+00 -0.00000000000E+00 -0.13293045465E+03  0.13293045465E+03  0.00000000000E+00 0. -1.
      99926    2    1    2    0    0  0.00000000000E+00  0.00000000000E+00  0.25603049543E+03  0.52189140473E+03  0.45477359614E+03 0.  0.
      99925    2    3    3    0    0 -0.10302832871E+03 -0.16884618017E+02  0.11180112865E+03  0.30429189833E+03  0.26304779068E+03 0.  0.
         25    1    4    4    0    0 -0.32998758015E+02  0.27674230632E+02  0.62177814686E+02  0.14617923864E+03  0.12509000000E+03 0.  0.
         25    1    4    4    0    0 -0.70029570698E+02 -0.44558848649E+02  0.49623313964E+02  0.15811265969E+03  0.12509000000E+03 0.  0.
         25    1    3    3    0    0  0.10302832871E+03  0.16884618017E+02  0.14422936677E+03  0.21759950639E+03  0.12509000000E+03 0.  0.
<mgrwt>
<rscale>  2 0.45477360E+03</rscale>
<asrwt>0</asrwt>
<pdfrwt beam="1">  1       21 0.57200139E-01 0.45477360E+03</pdfrwt>
<pdfrwt beam="2">  1       21 0.19548596E-01 0.45477360E+03</pdfrwt>
<totfact> 0.63873210E+04</totfact>
</mgrwt>
</event>
<event>
 7    0  0.4766352E-002  0.4590390E+03  0.7546771E-02  0.1025060E+00
         21   -1    0    0  502  501  0.00000000000E+00  0.00000000000E+00  0.65858067641E+03  0.65858067641E+03  0.00000000000E+00 0. -1.
         21   -1    0    0  501  502 -0.00000000000E+00 -0.00000000000E+00 -0.79989003955E+02  0.79989003955E+02  0.00000000000E+00 0. -1.
      99926    2    1    2    0    0  0.00000000000E+00  0.00000000000E+00  0.57859167246E+03  0.73856968037E+03  0.45903904989E+03 0.  0.
      99925    2    3    3    0    0 -0.77769949730E+02  0.58716794640E+02  0.46681143251E+03  0.54456412066E+03  0.26294741097E+03 0.  0.
         25    1    3    3    0    0  0.77769949730E+02 -0.58716794640E+02  0.11178023995E+03  0.19400555970E+03  0.12509000000E+03 0.  0.
         25    1    4    4    0    0 -0.50784453254E+02  0.46810627703E+02  0.31336538392E+03  0.34440625357E+03  0.12509000000E+03 0.  0.
         25    1    4    4    0    0 -0.26985496475E+02  0.11906166937E+02  0.15344604859E+03  0.20015786709E+03  0.12509000000E+03 0.  0.
<mgrwt>
<rscale>  2 0.45903905E+03</rscale>
<asrwt>0</asrwt>
<pdfrwt beam="1">  1       21 0.96850097E-01 0.45903905E+03</pdfrwt>
<pdfrwt beam="2">  1       21 0.11763089E-01 0.45903905E+03</pdfrwt>
<totfact> 0.49274970E+04</totfact>
</mgrwt>
</event>
<event>
 7    0  0.4766352E-002  0.4570685E+03  0.7546771E-02  0.1025635E+00
         21   -1    0    0  502  501  0.00000000000E+00  0.00000000000E+00  0.98844265321E+02  0.98844265321E+02  0.00000000000E+00 0.  1.
         21   -1    0    0  501  502 -0.00000000000E+00 -0.00000000000E+00 -0.52838578430E+03  0.52838578430E+03  0.00000000000E+00 0.  1.
      99926    2    1    2    0    0  0.00000000000E+00  0.00000000000E+00 -0.42954151898E+03  0.62723004962E+03  0.45706850539E+03 0.  0.
      99925    2    3    3    0    0 -0.99209064666E+01  0.85594247191E+02 -0.16480132396E+03  0.32200934506E+03  0.26287971087E+03 0.  0.
         25    1    4    4    0    0 -0.29530992865E+01  0.23578752550E+02 -0.12065086421E+03  0.17541042586E+03  0.12509000000E+03 0.  0.
         25    1    4    4    0    0 -0.69678071801E+01  0.62015494641E+02 -0.44150459755E+02  0.14659891919E+03  0.12509000000E+03 0.  0.
         25    1    3    3    0    0  0.99209064666E+01 -0.85594247191E+02 -0.26474019502E+03  0.30522070457E+03  0.12509000000E+03 0.  0.
<mgrwt>
<rscale>  2 0.45706851E+03</rscale>
<asrwt>0</asrwt>
<pdfrwt beam="1">  1       21 0.14535921E-01 0.45706851E+03</pdfrwt>
<pdfrwt beam="2">  1       21 0.77703791E-01 0.45706851E+03</pdfrwt>
<totfact> 0.56110775E+04</totfact>
</mgrwt>
</event>
<event>
 7    0  0.4766352E-002  0.4323774E+03  0.7546771E-02  0.1033112E+00
         21   -1    0    0  502  501  0.00000000000E+00  0.00000000000E+00  0.17630076475E+03  0.17630076475E+03  0.00000000000E+00 0. -1.
         21   -1    0    0  501  502 -0.00000000000E+00 -0.00000000000E+00 -0.26510120611E+03  0.26510120611E+03  0.00000000000E+00 0. -1.
      99926    2    1    2    0    0  0.00000000000E+00  0.00000000000E+00 -0.88800441368E+02  0.44140197086E+03  0.43237736006E+03 0.  0.
      99925    2    3    3    0    0  0.43542839779E+01 -0.85799516480E+02 -0.87947498939E+02  0.28964969764E+03  0.26226259351E+03 0.  0.
         25    1    4    4    0    0  0.70010179523E+01 -0.21968643764E+01 -0.34600680099E+02  0.12999444461E+03  0.12509000000E+03 0.  0.
         25    1    4    4    0    0 -0.26467339744E+01 -0.83602652104E+02 -0.53346818840E+02  0.15965525303E+03  0.12509000000E+03 0.  0.
         25    1    3    3    0    0 -0.43542839779E+01  0.85799516480E+02 -0.85294242846E+00  0.15175227322E+03  0.12509000000E+03 0.  0.
<mgrwt>
<rscale>  2 0.43237736E+03</rscale>
<asrwt>0</asrwt>
<pdfrwt beam="1">  1       21 0.25926583E-01 0.43237736E+03</pdfrwt>
<pdfrwt beam="2">  1       21 0.38985471E-01 0.43237736E+03</pdfrwt>
<totfact> 0.83653681E+04</totfact>
</mgrwt>
</event>
<event>
 7    0  0.4766352E-002  0.4553204E+03  0.7546771E-02  0.1026147E+00
         21   -1    0    0  502  501  0.00000000000E+00  0.00000000000E+00  0.28268588197E+03  0.28268588197E+03  0.00000000000E+00 0. -1.
         21   -1    0    0  501  502 -0.00000000000E+00 -0.00000000000E+00 -0.18334540715E+03  0.18334540715E+03  0.00000000000E+00 0. -1.
      99926    2    1    2    0    0  0.00000000000E+00  0.00000000000E+00  0.99340474825E+02  0.46603128913E+03  0.45532036250E+03 0.  0.
      99925    2    3    3    0    0  0.24539190950E+02  0.39282248808E+02  0.16854036439E+03  0.31576020149E+03  0.26297030906E+03 0.  0.
         25    1    3    3    0    0 -0.24539190950E+02 -0.39282248808E+02 -0.69199889567E+02  0.15027108764E+03  0.12509000000E+03 0.  0.
         25    1    4    4    0    0 -0.20708467511E+02  0.37540929879E+01  0.59409727926E+02  0.14007125941E+03  0.12509000000E+03 0.  0.
         25    1    4    4    0    0  0.45247658461E+02  0.35528155820E+02  0.10913063647E+03  0.17568894208E+03  0.12509000000E+03 0.  0.
<mgrwt>
<rscale>  2 0.45532036E+03</rscale>
<asrwt>0</asrwt>
<pdfrwt beam="1">  1       21 0.41571453E-01 0.45532036E+03</pdfrwt>
<pdfrwt beam="2">  1       21 0.26962560E-01 0.45532036E+03</pdfrwt>
<totfact> 0.67560693E+04</totfact>
</mgrwt>
</event>
<event>
 7    0  0.4766352E-002  0.4541865E+03  0.7546771E-02  0.1026481E+00
         21   -1    0    0  502  501  0.00000000000E+00  0.00000000000E+00  0.41010768620E+02  0.41010768620E+02  0.00000000000E+00 0.  1.
         21   -1    0    0  501  502 -0.00000000000E+00 -0.00000000000E+00 -0.12575071893E+04  0.12575071893E+04  0.00000000000E+00 0.  1.
      99926    2    1    2    0    0  0.00000000000E+00  0.11102230246E-15 -0.12164964207E+04  0.12985179579E+04  0.45418646557E+03 0.  0.
      99925    2    3    3    0    0  0.78517186157E+02 -0.78520481953E+00 -0.99606263087E+03  0.10331801942E+04  0.26297335223E+03 0.  0.
         25    1    3    3    0    0 -0.78517186157E+02  0.78520481953E+00 -0.22043378979E+03  0.26533776371E+03  0.12509000000E+03 0.  0.
         25    1    4    4    0    0  0.18414196060E+02 -0.18282786307E+01 -0.60897890685E+03  0.62196884351E+03  0.12509000000E+03 0.  0.
         25    1    4    4    0    0  0.60102990097E+02  0.10430738111E+01 -0.38708372403E+03  0.41121135068E+03  0.12509000000E+03 0.  0.
<mgrwt>
<rscale>  2 0.45418647E+03</rscale>
<asrwt>0</asrwt>
<pdfrwt beam="1">  1       21 0.60309960E-02 0.45418647E+03</pdfrwt>
<pdfrwt beam="2">  1       21 0.18492751E+00 0.45418647E+03</pdfrwt>
<totfact> 0.29342979E+04</totfact>
</mgrwt>
</event>
<event>
 7    0  0.4766352E-002  0.4645595E+03  0.7546771E-02  0.1023467E+00
         21   -1    0    0  502  501  0.00000000000E+00  0.00000000000E+00  0.85442050693E+02  0.85442050693E+02  0.00000000000E+00 0.  1.
         21   -1    0    0  501  502 -0.00000000000E+00 -0.00000000000E+00 -0.63146741826E+03  0.63146741826E+03  0.00000000000E+00 0.  1.
      99926    2    1    2    0    0  0.00000000000E+00  0.71054273576E-14 -0.54602536757E+03  0.71690946896E+03  0.46455945222E+03 0.  0.
      99925    2    3    3    0    0  0.84814980702E+02 -0.42012333965E+02 -0.45941485175E+03  0.53772379233E+03  0.26291872066E+03 0.  0.
         25    1    4    4    0    0  0.28077508134E+02 -0.41083140345E+02 -0.28919922048E+03  0.31899822587E+03  0.12509000000E+03 0.  0.
         25    1    4    4    0    0  0.56737472568E+02 -0.92919362036E+00 -0.17021563127E+03  0.21872556646E+03  0.12509000000E+03 0.  0.
         25    1    3    3    0    0 -0.84814980702E+02  0.42012333965E+02 -0.86610515819E+02  0.17918567662E+03  0.12509000000E+03 0.  0.
<mgrwt>
<rscale>  2 0.46455945E+03</rscale>
<asrwt>0</asrwt>
<pdfrwt beam="1">  1       21 0.12565007E-01 0.46455945E+03</pdfrwt>
<pdfrwt beam="2">  1       21 0.92862860E-01 0.46455945E+03</pdfrwt>
<totfact> 0.48261600E+04</totfact>
</mgrwt>
</event>
<event>
 7    0  0.4766352E-002  0.4339403E+03  0.7546771E-02  0.1032622E+00
         21   -1    0    0  502  501  0.00000000000E+00  0.00000000000E+00  0.60001267998E+03  0.60001267998E+03  0.00000000000E+00 0. -1.
         21   -1    0    0  501  502 -0.00000000000E+00 -0.00000000000E+00 -0.78458434321E+02  0.78458434321E+02  0.00000000000E+00 0. -1.
      99926    2    1    2    0    0  0.00000000000E+00  0.71054273576E-14  0.52155424566E+03  0.67847111430E+03  0.43394034357E+03 0.  0.
      99925    2    3    3    0    0  0.32331018484E+02 -0.56626409799E+02  0.43671636071E+03  0.51385999722E+03  0.26282897860E+03 0.  0.
         25    1    3    3    0    0 -0.32331018484E+02  0.56626409799E+02  0.84837884951E+02  0.16461111708E+03  0.12509000000E+03 0.  0.
         25    1    4    4    0    0  0.29072871450E+02 -0.66986458309E+02  0.24766580585E+03  0.28691161869E+03  0.12509000000E+03 0.  0.
         25    1    4    4    0    0  0.32581470344E+01  0.10360048510E+02  0.18905055486E+03  0.22694837853E+03  0.12509000000E+03 0.  0.
<mgrwt>
<rscale>  2 0.43394034E+03</rscale>
<asrwt>0</asrwt>
<pdfrwt beam="1">  1       21 0.88237156E-01 0.43394034E+03</pdfrwt>
<pdfrwt beam="2">  1       21 0.11538005E-01 0.43394034E+03</pdfrwt>
<totfact> 0.64069664E+04</totfact>
</mgrwt>
</event>
<event>
 7    0  0.4766352E-002  0.4567499E+03  0.7546771E-02  0.1025728E+00
         21   -1    0    0  502  501  0.00000000000E+00  0.00000000000E+00  0.20541570731E+03  0.20541570731E+03  0.00000000000E+00 0.  1.
         21   -1    0    0  501  502 -0.00000000000E+00 -0.00000000000E+00 -0.25390034446E+03  0.25390034446E+03  0.00000000000E+00 0.  1.
      99926    2    1    2    0    0  0.00000000000E+00  0.14210854715E-13 -0.48484637155E+02  0.45931605177E+03  0.45674990463E+03 0.  0.
      99925    2    3    3    0    0  0.32619884574E+02  0.10863849911E+03 -0.48277890683E+02  0.29045536599E+03  0.26299654854E+03 0.  0.
         25    1    4    4    0    0  0.28714242704E+02  0.21955558159E+02 -0.46327812692E+02  0.13820393843E+03  0.12509000000E+03 0.  0.
         25    1    4    4    0    0  0.39056418700E+01  0.86682940955E+02 -0.19500779914E+01  0.15225142756E+03  0.12509000000E+03 0.  0.
         25    1    3    3    0    0 -0.32619884574E+02 -0.10863849911E+03 -0.20674647210E+00  0.16886068578E+03  0.12509000000E+03 0.  0.
<mgrwt>
<rscale>  2 0.45674990E+03</rscale>
<asrwt>0</asrwt>
<pdfrwt beam="1">  1       21 0.30208192E-01 0.45674990E+03</pdfrwt>
<pdfrwt beam="2">  1       21 0.37338286E-01 0.45674990E+03</pdfrwt>
<totfact> 0.67286371E+04</totfact>
</mgrwt>
</event>
<event>
 7    0  0.4766352E-002  0.4522266E+03  0.7546771E-02  0.1027060E+00
         21   -1    0    0  502  501  0.00000000000E+00  0.00000000000E+00  0.10046158779E+04  0.10046158779E+04  0.00000000000E+00 0.  1.
         21   -1    0    0  501  502 -0.00000000000E+00 -0.00000000000E+00 -0.50892319236E+02  0.50892319236E+02  0.00000000000E+00 0.  1.
      99926    2    1    2    0    0  0.00000000000E+00  0.00000000000E+00  0.95372355870E+03  0.10555081972E+04  0.45222663332E+03 0.  0.
      99925    2    3    3    0    0  0.52834429025E+02  0.84231927119E+02  0.71452228079E+03  0.76784302046E+03  0.26297208957E+03 0.  0.
         25    1    3    3    0    0 -0.52834429025E+02 -0.84231927119E+02  0.23920127791E+03  0.28766517671E+03  0.12509000000E+03 0.  0.
         25    1    4    4    0    0  0.11138758694E+02  0.94172412370E+01  0.38606951103E+03  0.40609103884E+03  0.12509000000E+03 0.  0.
         25    1    4    4    0    0  0.41695670331E+02  0.74814685882E+02  0.32845276975E+03  0.36175198162E+03  0.12509000000E+03 0.  0.
<mgrwt>
<rscale>  2 0.45222663E+03</rscale>
<asrwt>0</asrwt>
<pdfrwt beam="1">  1       21 0.14773762E+00 0.45222663E+03</pdfrwt>
<pdfrwt beam="2">  1       21 0.74841652E-02 0.45222663E+03</pdfrwt>
<totfact> 0.37889438E+04</totfact>
</mgrwt>
</event>
<event>
 7    0  0.4766352E-002  0.4538158E+03  0.7546771E-02  0.1026590E+00
         21   -1    0    0  502  501  0.00000000000E+00  0.00000000000E+00  0.36721500450E+03  0.36721500450E+03  0.00000000000E+00 0. -1.
         21   -1    0    0  501  502 -0.00000000000E+00 -0.00000000000E+00 -0.14020996901E+03  0.14020996901E+03  0.00000000000E+00 0. -1.
      99926    2    1    2    0    0  0.88817841970E-15  0.14210854715E-13  0.22700503549E+03  0.50742497351E+03  0.45381584107E+03 0.  0.
      99925    2    3    3    0    0  0.36482861486E+01  0.11082676743E+03  0.16109622969E+03  0.32773813161E+03  0.26299126472E+03 0.  0.
         25    1    4    4    0    0 -0.35855456664E+02  0.61085370405E+02  0.65499501431E+02  0.15797065879E+03  0.12509000000E+03 0.  0.
         25    1    4    4    0    0  0.39503742813E+02  0.49741397027E+02  0.95596728264E+02  0.16976747282E+03  0.12509000000E+03 0.  0.
         25    1    3    3    0    0 -0.36482861486E+01 -0.11082676743E+03  0.65908805795E+02  0.17968684190E+03  0.12509000000E+03 0.  0.
<mgrwt>
<rscale>  2 0.45381584E+03</rscale>
<asrwt>0</asrwt>
<pdfrwt beam="1">  1       21 0.54002206E-01 0.45381584E+03</pdfrwt>
<pdfrwt beam="2">  1       21 0.20619113E-01 0.45381584E+03</pdfrwt>
<totfact> 0.65364276E+04</totfact>
</mgrwt>
</event>
<event>
 7    0  0.4766352E-002  0.4438468E+03  0.7546771E-02  0.1029573E+00
         21   -1    0    0  502  501  0.00000000000E+00  0.00000000000E+00  0.13167471387E+03  0.13167471387E+03  0.00000000000E+00 0. -1.
         21   -1    0    0  501  502 -0.00000000000E+00 -0.00000000000E+00 -0.37402776085E+03  0.37402776085E+03  0.00000000000E+00 0. -1.
      99926    2    1    2    0    0  0.17763568394E-14  0.14210854715E-13 -0.24235304698E+03  0.50570247472E+03  0.44384681317E+03 0.  0.
      99925    2    3    3    0    0 -0.13246944099E+02 -0.98289209767E+02 -0.12527113498E+03  0.30773295055E+03  0.26300277814E+03 0.  0.
         25    1    4    4    0    0  0.33589484784E+02 -0.43456433889E+02 -0.64495277929E+02  0.15107569000E+03  0.12509000000E+03 0.  0.
         25    1    4    4    0    0 -0.46836428883E+02 -0.54832775879E+02 -0.60775857049E+02  0.15665726054E+03  0.12509000000E+03 0.  0.
         25    1    3    3    0    0  0.13246944099E+02  0.98289209767E+02 -0.11708191200E+03  0.19796952418E+03  0.12509000000E+03 0.  0.
<mgrwt>
<rscale>  2 0.44384681E+03</rscale>
<asrwt>0</asrwt>
<pdfrwt beam="1">  1       21 0.19363929E-01 0.44384681E+03</pdfrwt>
<pdfrwt beam="2">  1       21 0.55004082E-01 0.44384681E+03</pdfrwt>
<totfact> 0.70946361E+04</totfact>
</mgrwt>
</event>
<event>
 7    0  0.4766352E-002  0.4548400E+03  0.7546771E-02  0.1026288E+00
         21   -1    0    0  502  501  0.00000000000E+00  0.00000000000E+00  0.70795546074E+03  0.70795546074E+03  0.00000000000E+00 0. -1.
         21   -1    0    0  501  502 -0.00000000000E+00 -0.00000000000E+00 -0.73055243662E+02  0.73055243662E+02  0.00000000000E+00 0. -1.
      99926    2    1    2    0    0  0.00000000000E+00  0.00000000000E+00  0.63490021708E+03  0.78101070440E+03  0.45484001005E+03 0.  0.
      99925    2    3    3    0    0 -0.89448287726E+02  0.68489065441E+02  0.39639943772E+03  0.48908283983E+03  0.26339658640E+03 0.  0.
         25    1    4    4    0    0 -0.23144742261E+02  0.29499613720E+02  0.24816473614E+03  0.28042672959E+03  0.12509000000E+03 0.  0.
         25    1    4    4    0    0 -0.66303545465E+02  0.38989451721E+02  0.14823470158E+03  0.20865611024E+03  0.12509000000E+03 0.  0.
         25    1    3    3    0    0  0.89448287726E+02 -0.68489065441E+02  0.23850077935E+03  0.29192786457E+03  0.12509000000E+03 0.  0.
<mgrwt>
<rscale>  2 0.45484001E+03</rscale>
<asrwt>0</asrwt>
<pdfrwt beam="1">  1       21 0.10411109E+00 0.45484001E+03</pdfrwt>
<pdfrwt beam="2">  1       21 0.10743419E-01 0.45484001E+03</pdfrwt>
<totfact> 0.48758255E+04</totfact>
</mgrwt>
</event>
<event>
 7    0  0.4766352E-002  0.4532007E+03  0.7546771E-02  0.1026772E+00
         21   -1    0    0  502  501  0.00000000000E+00  0.00000000000E+00  0.25379462509E+03  0.25379462509E+03  0.00000000000E+00 0.  1.
         21   -1    0    0  501  502 -0.00000000000E+00 -0.00000000000E+00 -0.20232000535E+03  0.20232000535E+03  0.00000000000E+00 0.  1.
      99926    2    1    2    0    0  0.00000000000E+00  0.00000000000E+00  0.51474619737E+02  0.45611463044E+03  0.45320074981E+03 0.  0.
      99925    2    3    3    0    0 -0.58334747069E+02 -0.43404063609E+02  0.11753544678E+03  0.29705993412E+03  0.26295088468E+03 0.  0.
         25    1    3    3    0    0  0.58334747069E+02  0.43404063609E+02 -0.66060827040E+02  0.15905469632E+03  0.12509000000E+03 0.  0.
         25    1    4    4    0    0 -0.23892796372E+02 -0.11127830071E+02  0.15293986610E+02  0.12874823668E+03  0.12509000000E+03 0.  0.
         25    1    4    4    0    0 -0.34441950697E+02 -0.32276233537E+02  0.10224146017E+03  0.16831169744E+03  0.12509000000E+03 0.  0.
<mgrwt>
<rscale>  2 0.45320075E+03</rscale>
<asrwt>0</asrwt>
<pdfrwt beam="1">  1       21 0.37322739E-01 0.45320075E+03</pdfrwt>
<pdfrwt beam="2">  1       21 0.29752942E-01 0.45320075E+03</pdfrwt>
<totfact> 0.69455850E+04</totfact>
</mgrwt>
</event>
<event>
 7    0  0.4766352E-002  0.4493423E+03  0.7546771E-02  0.1027918E+00
         21   -1    0    0  502  501  0.00000000000E+00  0.00000000000E+00  0.27164728609E+03  0.27164728609E+03  0.00000000000E+00 0. -1.
         21   -1    0    0  501  502 -0.00000000000E+00 -0.00000000000E+00 -0.18581865274E+03  0.18581865274E+03  0.00000000000E+00 0. -1.
      99926    2    1    2    0    0  0.00000000000E+00  0.00000000000E+00  0.85828633342E+02  0.45746593883E+03  0.44934233151E+03 0.  0.
      99925    2    3    3    0    0 -0.85413213561E+01 -0.10287670959E+02 -0.54819664599E+02  0.26876447578E+03  0.26277434705E+03 0.  0.
         25    1    4    4    0    0 -0.82223591542E+01 -0.40726491424E+01  0.13409743834E+02  0.12614088548E+03  0.12509000000E+03 0.  0.
         25    1    3    3    0    0  0.85413213561E+01  0.10287670959E+02  0.14064829794E+03  0.18870146305E+03  0.12509000000E+03 0.  0.
         25    1    4    4    0    0 -0.31896220190E+00 -0.62150218164E+01 -0.68229408433E+02  0.14262359029E+03  0.12509000000E+03 0.  0.
<mgrwt>
<rscale>  2 0.44934233E+03</rscale>
<asrwt>0</asrwt>
<pdfrwt beam="1">  1       21 0.39948130E-01 0.44934233E+03</pdfrwt>
<pdfrwt beam="2">  1       21 0.27326272E-01 0.44934233E+03</pdfrwt>
<totfact> 0.71536732E+04</totfact>
</mgrwt>
</event>
<event>
 7    0  0.5426973E-002  0.4135817E+03  0.7546771E-02  0.1039176E+00
         21   -1    0    0  502  501  0.00000000000E+00  0.00000000000E+00  0.32442708202E+03  0.32442708202E+03  0.00000000000E+00 0. -1.
         21   -1    0    0  501  502 -0.00000000000E+00 -0.00000000000E+00 -0.13180916554E+03  0.13180916554E+03  0.00000000000E+00 0. -1.
      99926    2    1    2    0    0  0.00000000000E+00  0.71054273576E-14  0.19261791648E+03  0.45623624756E+03  0.41358173538E+03 0.  0.
      99925    2    3    3    0    0 -0.29729608694E+02 -0.59467933675E+02  0.13937583580E+03  0.30490048833E+03  0.26290378355E+03 0.  0.
         25    1    4    4    0    0 -0.45533266394E+02 -0.48145212761E+02  0.50799345956E+02  0.15039721244E+03  0.12509000000E+03 0.  0.
         25    1    3    3    0    0  0.29729608694E+02  0.59467933675E+02  0.53242080676E+02  0.15133575924E+03  0.12509000000E+03 0.  0.
         25    1    4    4    0    0  0.15803657700E+02 -0.11322720914E+02  0.88576489848E+02  0.15450327589E+03  0.12509000000E+03 0.  0.
<mgrwt>
<rscale>  2 0.41358174E+03</rscale>
<asrwt>0</asrwt>
<pdfrwt beam="1">  1       21 0.47709865E-01 0.41358174E+03</pdfrwt>
<pdfrwt beam="2">  1       21 0.19383701E-01 0.41358174E+03</pdfrwt>
<totfact> 0.96504369E+04</totfact>
</mgrwt>
</event>
<event>
 7    0  0.4766352E-002  0.4539113E+03  0.7546771E-02  0.1026562E+00
         21   -1    0    0  502  501  0.00000000000E+00  0.00000000000E+00  0.88867591804E+02  0.88867591804E+02  0.00000000000E+00 0.  1.
         21   -1    0    0  501  502 -0.00000000000E+00 -0.00000000000E+00 -0.57961350944E+03  0.57961350944E+03  0.00000000000E+00 0.  1.
      99926    2    1    2    0    0  0.00000000000E+00  0.00000000000E+00 -0.49074591764E+03  0.66848110125E+03  0.45391125459E+03 0.  0.
      99925    2    3    3    0    0 -0.94149451020E+02 -0.60984540459E+02 -0.30717414293E+03  0.41962504271E+03  0.26295624937E+03 0.  0.
         25    1    4    4    0    0 -0.71695630316E+02  0.10082576360E+01 -0.16464203233E+03  0.21885106100E+03  0.12509000000E+03 0.  0.
         25    1    4    4    0    0 -0.22453820704E+02 -0.61992798095E+02 -0.14253211060E+03  0.20077398171E+03  0.12509000000E+03 0.  0.
         25    1    3    3    0    0  0.94149451020E+02  0.60984540459E+02 -0.18357177471E+03  0.24885605854E+03  0.12509000000E+03 0.  0.
<mgrwt>
<rscale>  2 0.45391125E+03</rscale>
<asrwt>0</asrwt>
<pdfrwt beam="1">  1       21 0.13068764E-01 0.45391125E+03</pdfrwt>
<pdfrwt beam="2">  1       21 0.85237279E-01 0.45391125E+03</pdfrwt>
<totfact> 0.55119417E+04</totfact>
</mgrwt>
</event>
<event>
 7    0  0.4766352E-002  0.4467619E+03  0.7546771E-02  0.1028692E+00
         21   -1    0    0  502  501  0.00000000000E+00  0.00000000000E+00  0.49283539616E+03  0.49283539616E+03  0.00000000000E+00 0. -1.
         21   -1    0    0  501  502 -0.00000000000E+00 -0.00000000000E+00 -0.10124890893E+03  0.10124890893E+03  0.00000000000E+00 0. -1.
      99926    2    1    2    0    0  0.00000000000E+00  0.00000000000E+00  0.39158648722E+03  0.59408430509E+03  0.44676188801E+03 0.  0.
      99925    2    3    3    0    0  0.91660043521E+02 -0.16101199798E+02  0.31370322441E+03  0.41980257070E+03  0.26298987272E+03 0.  0.
         25    1    4    4    0    0  0.25723425139E+02  0.11118608358E+02  0.10225887147E+03  0.16398080055E+03  0.12509000000E+03 0.  0.
         25    1    3    3    0    0 -0.91660043521E+02  0.16101199798E+02  0.77883262816E+02  0.17428173438E+03  0.12509000000E+03 0.  0.
         25    1    4    4    0    0  0.65936618382E+02 -0.27219808156E+02  0.21144435293E+03  0.25582177016E+03  0.12509000000E+03 0.  0.
<mgrwt>
<rscale>  2 0.44676189E+03</rscale>
<asrwt>0</asrwt>
<pdfrwt beam="1">  1       21 0.72475793E-01 0.44676189E+03</pdfrwt>
<pdfrwt beam="2">  1       21 0.14889546E-01 0.44676189E+03</pdfrwt>
<totfact> 0.63049237E+04</totfact>
</mgrwt>
</event>
<event>
 7    0  0.4766352E-002  0.4698880E+03  0.7546771E-02  0.1021952E+00
         21   -1    0    0  502  501  0.00000000000E+00  0.00000000000E+00  0.17166135968E+03  0.17166135968E+03  0.00000000000E+00 0.  1.
         21   -1    0    0  501  502 -0.00000000000E+00 -0.00000000000E+00 -0.32155560734E+03  0.32155560734E+03  0.00000000000E+00 0.  1.
      99926    2    1    2    0    0  0.88817841970E-15  0.00000000000E+00 -0.14989424766E+03  0.49321696702E+03  0.46988795587E+03 0.  0.
      99925    2    3    3    0    0  0.44625528717E+01 -0.73725955069E+02 -0.20111904387E+03  0.33918152085E+03  0.26294448740E+03 0.  0.
         25    1    4    4    0    0  0.20192014020E+02 -0.65461702394E+02 -0.77041312186E+02  0.16209819183E+03  0.12509000000E+03 0.  0.
         25    1    4    4    0    0 -0.15729461149E+02 -0.82642526747E+01 -0.12407773168E+03  0.17708332903E+03  0.12509000000E+03 0.  0.
         25    1    3    3    0    0 -0.44625528717E+01  0.73725955069E+02  0.51224796201E+02  0.15403544616E+03  0.12509000000E+03 0.  0.
<mgrwt>
<rscale>  2 0.46988796E+03</rscale>
<asrwt>0</asrwt>
<pdfrwt beam="1">  1       21 0.25244318E-01 0.46988796E+03</pdfrwt>
<pdfrwt beam="2">  1       21 0.47287589E-01 0.46988796E+03</pdfrwt>
<totfact> 0.58521735E+04</totfact>
</mgrwt>
</event>
<event>
 7    0  0.4766352E-002  0.4501163E+03  0.7546771E-02  0.1027687E+00
         21   -1    0    0  502  501  0.00000000000E+00  0.00000000000E+00  0.26932425672E+03  0.26932425672E+03  0.00000000000E+00 0. -1.
         21   -1    0    0  501  502 -0.00000000000E+00 -0.00000000000E+00 -0.18806762942E+03  0.18806762942E+03  0.00000000000E+00 0. -1.
      99926    2    1    2    0    0  0.00000000000E+00  0.71054273576E-14  0.81256627308E+02  0.45739188614E+03  0.45011631610E+03 0.  0.
      99925    2    3    3    0    0  0.89845439343E+02  0.56773844853E+02  0.29160703644E+02  0.28517990690E+03  0.26302425788E+03 0.  0.
         25    1    4    4    0    0  0.46682819902E+02  0.70186528604E+01  0.49051522067E+02  0.14241526280E+03  0.12509000000E+03 0.  0.
         25    1    4    4    0    0  0.43162619441E+02  0.49755191993E+02 -0.19890818423E+02  0.14276464410E+03  0.12509000000E+03 0.  0.
         25    1    3    3    0    0 -0.89845439343E+02 -0.56773844853E+02  0.52095923664E+02  0.17221197924E+03  0.12509000000E+03 0.  0.
<mgrwt>
<rscale>  2 0.45011632E+03</rscale>
<asrwt>0</asrwt>
<pdfrwt beam="1">  1       21 0.39606509E-01 0.45011632E+03</pdfrwt>
<pdfrwt beam="2">  1       21 0.27657004E-01 0.45011632E+03</pdfrwt>
<totfact> 0.71099027E+04</totfact>
</mgrwt>
</event>
<event>
 7    0  0.4766352E-002  0.4407374E+03  0.7546771E-02  0.1030521E+00
         21   -1    0    0  502  501  0.00000000000E+00  0.00000000000E+00  0.42540728841E+03  0.42540728841E+03  0.00000000000E+00 0. -1.
         21   -1    0    0  501  502 -0.00000000000E+00 -0.00000000000E+00 -0.11415498505E+03  0.11415498505E+03  0.00000000000E+00 0. -1.
      99926    2    1    2    0    0  0.00000000000E+00 -0.35527136788E-14  0.31125230336E+03  0.53956227345E+03  0.44073739413E+03 0.  0.
      99925    2    3    3    0    0 -0.93289980816E+02  0.28335395680E+02  0.17504450994E+03  0.33050250626E+03  0.26284103754E+03 0.  0.
         25    1    3    3    0    0  0.93289980816E+02 -0.28335395680E+02  0.13620779342E+03  0.20905976719E+03  0.12509000000E+03 0.  0.
         25    1    4    4    0    0 -0.48951872789E+02 -0.19461520560E+02  0.59662363300E+02  0.14826375932E+03  0.12509000000E+03 0.  0.
         25    1    4    4    0    0 -0.44338108027E+02  0.47796916240E+02  0.11538214664E+03  0.18223874695E+03  0.12509000000E+03 0.  0.
<mgrwt>
<rscale>  2 0.44073739E+03</rscale>
<asrwt>0</asrwt>
<pdfrwt beam="1">  1       21 0.62559895E-01 0.44073739E+03</pdfrwt>
<pdfrwt beam="2">  1       21 0.16787498E-01 0.44073739E+03</pdfrwt>
<totfact> 0.70150627E+04</totfact>
</mgrwt>
</event>
<event>
 7    0  0.4766352E-002  0.4551247E+03  0.7546771E-02  0.1026205E+00
         21   -1    0    0  502  501  0.00000000000E+00  0.00000000000E+00  0.30773341629E+03  0.30773341629E+03  0.00000000000E+00 0.  1.
         21   -1    0    0  501  502 -0.00000000000E+00 -0.00000000000E+00 -0.16827750820E+03  0.16827750820E+03  0.00000000000E+00 0.  1.
      99926    2    1    2    0    0 -0.71054273576E-14 -0.71054273576E-14  0.13945590809E+03  0.47601092449E+03  0.45512465318E+03 0.  0.
      99925    2    3    3    0    0  0.51935626985E+02 -0.43085392788E+02  0.18293155399E+03  0.32737950013E+03  0.26298236297E+03 0.  0.
         25    1    4    4    0    0 -0.11142941413E+02 -0.10617575834E+02  0.67472816155E+02  0.14295799061E+03  0.12509000000E+03 0.  0.
         25    1    4    4    0    0  0.63078568398E+02 -0.32467816954E+02  0.11545873784E+03  0.18442150951E+03  0.12509000000E+03 0.  0.
         25    1    3    3    0    0 -0.51935626985E+02  0.43085392788E+02 -0.43475645897E+02  0.14863142436E+03  0.12509000000E+03 0.  0.
<mgrwt>
<rscale>  2 0.45512465E+03</rscale>
<asrwt>0</asrwt>
<pdfrwt beam="1">  1       21 0.45254914E-01 0.45512465E+03</pdfrwt>
<pdfrwt beam="2">  1       21 0.24746692E-01 0.45512465E+03</pdfrwt>
<totfact> 0.66925408E+04</totfact>
</mgrwt>
</event>
<event>
 7    0  0.4766352E-002  0.4674176E+03  0.7546771E-02  0.1022652E+00
         21   -1    0    0  502  501  0.00000000000E+00  0.00000000000E+00  0.46797451192E+02  0.46797451192E+02  0.00000000000E+00 0.  1.
         21   -1    0    0  501  502 -0.00000000000E+00 -0.00000000000E+00 -0.11671536070E+04  0.11671536070E+04  0.00000000000E+00 0.  1.
      99926    2    1    2    0    0  0.00000000000E+00 -0.71054273576E-14 -0.11203561558E+04  0.12139510582E+04  0.46741764605E+03 0.  0.
      99925    2    3    3    0    0  0.11553862639E+03  0.43769143035E+02 -0.65946961751E+03  0.72066734536E+03  0.26305196097E+03 0.  0.
         25    1    3    3    0    0 -0.11553862639E+03 -0.43769143035E+02 -0.46088653833E+03  0.49328371287E+03  0.12509000000E+03 0.  0.
         25    1    4    4    0    0  0.55039342793E+02 -0.14806460398E+02 -0.36056447400E+03  0.38587926679E+03  0.12509000000E+03 0.  0.
         25    1    4    4    0    0  0.60499283598E+02  0.58575603433E+02 -0.29890514351E+03  0.33478807857E+03  0.12509000000E+03 0.  0.
<mgrwt>
<rscale>  2 0.46741765E+03</rscale>
<asrwt>0</asrwt>
<pdfrwt beam="1">  1       21 0.68819778E-02 0.46741765E+03</pdfrwt>
<pdfrwt beam="2">  1       21 0.17164024E+00 0.46741765E+03</pdfrwt>
<totfact> 0.28826209E+04</totfact>
</mgrwt>
</event>
<event>
 7    0  0.4766352E-002  0.4580701E+03  0.7546771E-02  0.1025342E+00
         21   -1    0    0  502  501  0.00000000000E+00  0.00000000000E+00  0.14770580990E+03  0.14770580990E+03  0.00000000000E+00 0.  1.
         21   -1    0    0  501  502 -0.00000000000E+00 -0.00000000000E+00 -0.35514543140E+03  0.35514543140E+03  0.00000000000E+00 0.  1.
      99926    2    1    2    0    0  0.71054273576E-14  0.00000000000E+00 -0.20743962150E+03  0.50285124130E+03  0.45807005393E+03 0.  0.
      99925    2    3    3    0    0  0.37512049607E+02  0.10755746271E+03 -0.10490010837E+03  0.30501893478E+03  0.26278652208E+03 0.  0.
         25    1    4    4    0    0 -0.79338959482E+01  0.82559932354E+02 -0.43011801042E+02  0.15613011325E+03  0.12509000000E+03 0.  0.
         25    1    4    4    0    0  0.45445945555E+02  0.24997530355E+02 -0.61888307326E+02  0.14888882152E+03  0.12509000000E+03 0.  0.
         25    1    3    3    0    0 -0.37512049607E+02 -0.10755746271E+03 -0.10253951313E+03  0.19783230652E+03  0.12509000000E+03 0.  0.
<mgrwt>
<rscale>  2 0.45807005E+03</rscale>
<asrwt>0</asrwt>
<pdfrwt beam="1">  1       21 0.21721443E-01 0.45807005E+03</pdfrwt>
<pdfrwt beam="2">  1       21 0.52227269E-01 0.45807005E+03</pdfrwt>
<totfact> 0.63508947E+04</totfact>
</mgrwt>
</event>
<event>
 7    0  0.4766352E-002  0.4532591E+03  0.7546771E-02  0.1026755E+00
         21   -1    0    0  502  501  0.00000000000E+00  0.00000000000E+00  0.11490758681E+03  0.11490758681E+03  0.00000000000E+00 0.  1.
         21   -1    0    0  501  502 -0.00000000000E+00 -0.00000000000E+00 -0.44697610373E+03  0.44697610373E+03  0.00000000000E+00 0.  1.
      99926    2    1    2    0    0 -0.71054273576E-14  0.14210854715E-13 -0.33206851692E+03  0.56188369053E+03  0.45325906693E+03 0.  0.
      99925    2    3    3    0    0 -0.46396349300E+02  0.10162506654E+03 -0.21344890533E+03  0.35646120946E+03  0.26272396785E+03 0.  0.
         25    1    4    4    0    0 -0.59439094059E+02  0.64567194145E+02 -0.96176431555E+02  0.18055288020E+03  0.12509000000E+03 0.  0.
         25    1    4    4    0    0  0.13042744759E+02  0.37057872390E+02 -0.11727247377E+03  0.17590832926E+03  0.12509000000E+03 0.  0.
         25    1    3    3    0    0  0.46396349300E+02 -0.10162506654E+03 -0.11861961160E+03  0.20542248108E+03  0.12509000000E+03 0.  0.
<mgrwt>
<rscale>  2 0.45325907E+03</rscale>
<asrwt>0</asrwt>
<pdfrwt beam="1">  1       21 0.16898175E-01 0.45325907E+03</pdfrwt>
<pdfrwt beam="2">  1       21 0.65731779E-01 0.45325907E+03</pdfrwt>
<totfact> 0.61936453E+04</totfact>
</mgrwt>
</event>
<event>
 7    0  0.4766352E-002  0.4574141E+03  0.7546771E-02  0.1025534E+00
         21   -1    0    0  502  501  0.00000000000E+00  0.00000000000E+00  0.52504003684E+02  0.52504003684E+02  0.00000000000E+00 0. -1.
         21   -1    0    0  501  502 -0.00000000000E+00 -0.00000000000E+00 -0.99624603238E+03  0.99624603238E+03  0.00000000000E+00 0. -1.
      99926    2    1    2    0    0 -0.14210854715E-13  0.00000000000E+00 -0.94374202869E+03  0.10487500361E+04  0.45741405905E+03 0.  0.
      99925    2    3    3    0    0 -0.85890432292E+02 -0.38715743503E+02 -0.74537098754E+03  0.79601568299E+03  0.26303418665E+03 0.  0.
         25    1    3    3    0    0  0.85890432292E+02  0.38715743503E+02 -0.19837104115E+03  0.25273435307E+03  0.12509000000E+03 0.  0.
         25    1    4    4    0    0 -0.13762810531E+02  0.31538914899E+00 -0.27482161008E+03  0.30226468515E+03  0.12509000000E+03 0.  0.
         25    1    4    4    0    0 -0.72127621761E+02 -0.39031132652E+02 -0.47054937746E+03  0.49375099784E+03  0.12509000000E+03 0.  0.
<mgrwt>
<rscale>  2 0.45741406E+03</rscale>
<asrwt>0</asrwt>
<pdfrwt beam="1">  1       21 0.77211778E-02 0.45741406E+03</pdfrwt>
<pdfrwt beam="2">  1       21 0.14650675E+00 0.45741406E+03</pdfrwt>
<totfact> 0.36628233E+04</totfact>
</mgrwt>
</event>
<event>
 7    0  0.4766352E-002  0.4160101E+03  0.7546771E-02  0.1038373E+00
         21   -1    0    0  502  501  0.00000000000E+00  0.00000000000E+00  0.71129902689E+02  0.71129902689E+02  0.00000000000E+00 0.  1.
         21   -1    0    0  501  502 -0.00000000000E+00 -0.00000000000E+00 -0.60826868345E+03  0.60826868345E+03  0.00000000000E+00 0.  1.
      99926    2    1    2    0    0  0.00000000000E+00  0.00000000000E+00 -0.53713878076E+03  0.67939858614E+03  0.41601005883E+03 0.  0.
      99925    2    3    3    0    0 -0.17812135718E+02 -0.60357931223E+02 -0.40468078847E+03  0.48664750349E+03  0.26286669637E+03 0.  0.
         25    1    4    4    0    0  0.10043182801E+02 -0.23101082610E+01 -0.14903337471E+03  0.19484521292E+03  0.12509000000E+03 0.  0.
         25    1    4    4    0    0 -0.27855318520E+02 -0.58047822962E+02 -0.25564741375E+03  0.29180229057E+03  0.12509000000E+03 0.  0.
         25    1    3    3    0    0  0.17812135718E+02  0.60357931223E+02 -0.13245799230E+03  0.19275108265E+03  0.12509000000E+03 0.  0.
<mgrwt>
<rscale>  2 0.41601006E+03</rscale>
<asrwt>0</asrwt>
<pdfrwt beam="1">  1       21 0.10460280E-01 0.41601006E+03</pdfrwt>
<pdfrwt beam="2">  1       21 0.89451275E-01 0.41601006E+03</pdfrwt>
<totfact> 0.74372043E+04</totfact>
</mgrwt>
</event>
<event>
 7    0  0.4766352E-002  0.4555393E+03  0.7546771E-02  0.1026083E+00
         21   -1    0    0  502  501  0.00000000000E+00  0.00000000000E+00  0.22321482632E+03  0.22321482632E+03  0.00000000000E+00 0.  1.
         21   -1    0    0  501  502 -0.00000000000E+00 -0.00000000000E+00 -0.23241742073E+03  0.23241742073E+03  0.00000000000E+00 0.  1.
      99926    2    1    2    0    0  0.00000000000E+00  0.00000000000E+00 -0.92025944104E+01  0.45563224704E+03  0.45553930324E+03 0.  0.
      99925    2    3    3    0    0 -0.55120805846E+02 -0.67982251614E+02 -0.78257646348E+02  0.28807330795E+03  0.26306288558E+03 0.  0.
         25    1    3    3    0    0  0.55120805846E+02  0.67982251614E+02  0.69055051937E+02  0.16755893909E+03  0.12509000000E+03 0.  0.
         25    1    4    4    0    0 -0.39693833063E+01 -0.23142582015E+02 -0.70447204428E+02  0.14547044998E+03  0.12509000000E+03 0.  0.
         25    1    4    4    0    0 -0.51151422540E+02 -0.44839669599E+02 -0.78104419198E+01  0.14260285797E+03  0.12509000000E+03 0.  0.
<mgrwt>
<rscale>  2 0.45553930E+03</rscale>
<asrwt>0</asrwt>
<pdfrwt beam="1">  1       21 0.32825710E-01 0.45553930E+03</pdfrwt>
<pdfrwt beam="2">  1       21 0.34179032E-01 0.45553930E+03</pdfrwt>
<totfact> 0.68205537E+04</totfact>
</mgrwt>
</event>
<event>
 7    0  0.4766352E-002  0.4541621E+03  0.7546771E-02  0.1026488E+00
         21   -1    0    0  502  501  0.00000000000E+00  0.00000000000E+00  0.70158313026E+03  0.70158313026E+03  0.00000000000E+00 0.  1.
         21   -1    0    0  501  502 -0.00000000000E+00 -0.00000000000E+00 -0.73499214789E+02  0.73499214789E+02  0.00000000000E+00 0.  1.
      99926    2    1    2    0    0  0.00000000000E+00  0.00000000000E+00  0.62808391547E+03  0.77508234505E+03  0.45416212605E+03 0.  0.
      99925    2    3    3    0    0 -0.73284478083E+02  0.40767275066E+02  0.26849969109E+03  0.38523505704E+03  0.26321356275E+03 0.  0.
         25    1    4    4    0    0 -0.39093680396E+02 -0.13579978656E+02  0.97835852212E+02  0.16411000501E+03  0.12509000000E+03 0.  0.
         25    1    4    4    0    0 -0.34190797687E+02  0.54347253723E+02  0.17066383888E+03  0.22112505203E+03  0.12509000000E+03 0.  0.
         25    1    3    3    0    0  0.73284478083E+02 -0.40767275066E+02  0.35958422438E+03  0.38984728801E+03  0.12509000000E+03 0.  0.
<mgrwt>
<rscale>  2 0.45416213E+03</rscale>
<asrwt>0</asrwt>
<pdfrwt beam="1">  1       21 0.10317399E+00 0.45416213E+03</pdfrwt>
<pdfrwt beam="2">  1       21 0.10808708E-01 0.45416213E+03</pdfrwt>
<totfact> 0.49317241E+04</totfact>
</mgrwt>
</event>
<event>
 7    0  0.4766352E-002  0.4493090E+03  0.7546771E-02  0.1027928E+00
         21   -1    0    0  502  501  0.00000000000E+00  0.00000000000E+00  0.16867779885E+03  0.16867779885E+03  0.00000000000E+00 0. -1.
         21   -1    0    0  501  502 -0.00000000000E+00 -0.00000000000E+00 -0.29920736081E+03  0.29920736081E+03  0.00000000000E+00 0. -1.
      99926    2    1    2    0    0  0.00000000000E+00  0.00000000000E+00 -0.13052956196E+03  0.46788515966E+03  0.44930897619E+03 0.  0.
      99925    2    3    3    0    0  0.67650312966E+02  0.83435106341E+02 -0.90190863915E+02  0.29814211717E+03  0.26309000034E+03 0.  0.
         25    1    4    4    0    0  0.30834358166E+02  0.61402350939E+02 -0.90827218427E+01  0.14300702878E+03  0.12509000000E+03 0.  0.
         25    1    4    4    0    0  0.36815954801E+02  0.22032755402E+02 -0.81108142073E+02  0.15513508839E+03  0.12509000000E+03 0.  0.
         25    1    3    3    0    0 -0.67650312966E+02 -0.83435106341E+02 -0.40338698049E+02  0.16974304249E+03  0.12509000000E+03 0.  0.
<mgrwt>
<rscale>  2 0.44930898E+03</rscale>
<asrwt>0</asrwt>
<pdfrwt beam="1">  1       21 0.24805559E-01 0.44930898E+03</pdfrwt>
<pdfrwt beam="2">  1       21 0.44001082E-01 0.44930898E+03</pdfrwt>
<totfact> 0.70733497E+04</totfact>
</mgrwt>
</event>
<event>
 7    0  0.4766352E-002  0.4494744E+03  0.7546771E-02  0.1027879E+00
         21   -1    0    0  502  501  0.00000000000E+00  0.00000000000E+00  0.18046390719E+03  0.18046390719E+03  0.00000000000E+00 0.  1.
         21   -1    0    0  501  502 -0.00000000000E+00 -0.00000000000E+00 -0.27987207697E+03  0.27987207697E+03  0.00000000000E+00 0.  1.
      99926    2    1    2    0    0  0.00000000000E+00  0.00000000000E+00 -0.99408169783E+02  0.46033598415E+03  0.44947439759E+03 0.  0.
      99925    2    3    3    0    0  0.93934528604E+01 -0.56404911686E+02 -0.15677767803E+03  0.31131075275E+03  0.26280295552E+03 0.  0.
         25    1    4    4    0    0  0.14735471369E+02 -0.14574677673E+02 -0.11927692620E+03  0.17408058068E+03  0.12509000000E+03 0.  0.
         25    1    4    4    0    0 -0.53420185082E+01 -0.41830234013E+02 -0.37500751829E+02  0.13723017207E+03  0.12509000000E+03 0.  0.
         25    1    3    3    0    0 -0.93934528604E+01  0.56404911686E+02  0.57369508243E+02  0.14902523140E+03  0.12509000000E+03 0.  0.
<mgrwt>
<rscale>  2 0.44947440E+03</rscale>
<asrwt>0</asrwt>
<pdfrwt beam="1">  1       21 0.26538810E-01 0.44947440E+03</pdfrwt>
<pdfrwt beam="2">  1       21 0.41157658E-01 0.44947440E+03</pdfrwt>
<totfact> 0.71232953E+04</totfact>
</mgrwt>
</event>
<event>
 7    0  0.4766352E-002  0.4588672E+03  0.7546771E-02  0.1025110E+00
         21   -1    0    0  502  501  0.00000000000E+00  0.00000000000E+00  0.25426947937E+03  0.25426947937E+03  0.00000000000E+00 0.  1.
         21   -1    0    0  501  502 -0.00000000000E+00 -0.00000000000E+00 -0.20702354691E+03  0.20702354691E+03  0.00000000000E+00 0.  1.
      99926    2    1    2    0    0  0.00000000000E+00  0.00000000000E+00  0.47245932456E+02  0.46129302627E+03  0.45886716810E+03 0.  0.
      99925    2    3    3    0    0 -0.39499236185E+02 -0.10794427061E+03  0.89837129678E+01  0.28715612393E+03  0.26299387292E+03 0.  0.
         25    1    4    4    0    0  0.20364225166E+02 -0.58795880675E+02  0.94066334905E+01  0.14002731914E+03  0.12509000000E+03 0.  0.
         25    1    3    3    0    0  0.39499236185E+02  0.10794427061E+03  0.38262219488E+02  0.17413690234E+03  0.12509000000E+03 0.  0.
         25    1    4    4    0    0 -0.59863461351E+02 -0.49148389939E+02 -0.42292052274E+00  0.14712880479E+03  0.12509000000E+03 0.  0.
<mgrwt>
<rscale>  2 0.45886717E+03</rscale>
<asrwt>0</asrwt>
<pdfrwt beam="1">  1       21 0.37392571E-01 0.45886717E+03</pdfrwt>
<pdfrwt beam="2">  1       21 0.30444639E-01 0.45886717E+03</pdfrwt>
<totfact> 0.66026348E+04</totfact>
</mgrwt>
</event>
<event>
 6    0  0.4766352E-002  0.4664241E+03  0.7546771E-02  0.1022934E+00
         21   -1    0    0  502  501  0.00000000000E+00  0.00000000000E+00  0.12314893242E+03  0.12314893242E+03  0.00000000000E+00 0.  1.
         21   -1    0    0  501  502 -0.00000000000E+00 -0.00000000000E+00 -0.44164300678E+03  0.44164300678E+03  0.00000000000E+00 0.  1.
      99926    2    1    2    0    0  0.00000000000E+00  0.00000000000E+00 -0.31849407437E+03  0.56479193920E+03  0.46642411942E+03 0.  0.
         25    1    3    3    0    0 -0.24591630900E+02 -0.81968351195E+01 -0.86191468455E+02  0.15410520352E+03  0.12509000000E+03 0.  0.
         25    1    3    3    0    0 -0.64903500100E+02 -0.79184697098E+02 -0.11655348119E+03  0.19928598209E+03  0.12509000000E+03 0.  0.
         25    1    3    3    0    0  0.89495131000E+02  0.87381532218E+02 -0.11574912472E+03  0.21140075359E+03  0.12509000000E+03 0.  0.
<mgrwt>
<rscale>  2 0.46642412E+03</rscale>
<asrwt>0</asrwt>
<pdfrwt beam="1">  1       21 0.18110137E-01 0.46642412E+03</pdfrwt>
<pdfrwt beam="2">  1       21 0.64947501E-01 0.46642412E+03</pdfrwt>
<totfact> 0.55694055E+04</totfact>
</mgrwt>
</event>
<event>
 7    0  0.4766352E-002  0.4611822E+03  0.7546771E-02  0.1024439E+00
         21   -1    0    0  502  501  0.00000000000E+00  0.00000000000E+00  0.21629881835E+03  0.21629881835E+03  0.00000000000E+00 0. -1.
         21   -1    0    0  501  502 -0.00000000000E+00 -0.00000000000E+00 -0.24582773420E+03  0.24582773420E+03  0.00000000000E+00 0. -1.
      99926    2    1    2    0    0  0.88817841970E-15  0.00000000000E+00 -0.29528915846E+02  0.46212655255E+03  0.46118216976E+03 0.  0.
      99925    2    3    3    0    0 -0.47383222675E+01 -0.11157037273E+03  0.22534839016E+02  0.28654596581E+03  0.26292655207E+03 0.  0.
         25    1    3    3    0    0  0.47383222675E+01  0.11157037273E+03 -0.52063754861E+02  0.17558058674E+03  0.12509000000E+03 0.  0.
         25    1    4    4    0    0 -0.10569684943E+02 -0.22564962496E+02 -0.14904993942E+02  0.12841558596E+03  0.12509000000E+03 0.  0.
         25    1    4    4    0    0  0.58313626754E+01 -0.89005410234E+02  0.37439832958E+02  0.15813037986E+03  0.12509000000E+03 0.  0.
<mgrwt>
<rscale>  2 0.46118217E+03</rscale>
<asrwt>0</asrwt>
<pdfrwt beam="1">  1       21 0.31808650E-01 0.46118217E+03</pdfrwt>
<pdfrwt beam="2">  1       21 0.36151137E-01 0.46118217E+03</pdfrwt>
<totfact> 0.64772433E+04</totfact>
</mgrwt>
</event>
<event>
 7    0  0.4766352E-002  0.4541699E+03  0.7546771E-02  0.1026486E+00
         21   -1    0    0  502  501  0.00000000000E+00  0.00000000000E+00  0.18612766761E+03  0.18612766761E+03  0.00000000000E+00 0.  1.
         21   -1    0    0  501  502 -0.00000000000E+00 -0.00000000000E+00 -0.27705482760E+03  0.27705482760E+03  0.00000000000E+00 0.  1.
      99926    2    1    2    0    0  0.00000000000E+00  0.00000000000E+00 -0.90927159989E+02  0.46318249521E+03  0.45416987510E+03 0.  0.
      99925    2    3    3    0    0  0.59280772763E+02  0.92568592847E+02 -0.81304383691E+02  0.29637943671E+03  0.26295857715E+03 0.  0.
         25    1    4    4    0    0  0.70233790225E+01  0.25780870439E+02 -0.73342727285E+01  0.12812213232E+03  0.12509000000E+03 0.  0.
         25    1    4    4    0    0  0.52257393741E+02  0.66787722408E+02 -0.73970110962E+02  0.16825730439E+03  0.12509000000E+03 0.  0.
         25    1    3    3    0    0 -0.59280772763E+02 -0.92568592847E+02 -0.96227762982E+01  0.16680305850E+03  0.12509000000E+03 0.  0.
<mgrwt>
<rscale>  2 0.45416988E+03</rscale>
<asrwt>0</asrwt>
<pdfrwt beam="1">  1       21 0.27371716E-01 0.45416988E+03</pdfrwt>
<pdfrwt beam="2">  1       21 0.40743357E-01 0.45416988E+03</pdfrwt>
<totfact> 0.68395584E+04</totfact>
</mgrwt>
</event>
<event>
 7    0  0.4766352E-002  0.4588758E+03  0.7546771E-02  0.1025108E+00
         21   -1    0    0  502  501  0.00000000000E+00  0.00000000000E+00  0.11346935740E+03  0.11346935740E+03  0.00000000000E+00 0. -1.
         21   -1    0    0  501  502 -0.00000000000E+00 -0.00000000000E+00 -0.46392922063E+03  0.46392922063E+03  0.00000000000E+00 0. -1.
      99926    2    1    2    0    0  0.00000000000E+00  0.71054273576E-14 -0.35045986323E+03  0.57739857803E+03  0.45887580256E+03 0.  0.
      99925    2    3    3    0    0  0.10794363492E+03 -0.43737447683E+02 -0.23053225884E+03  0.36860458615E+03  0.26298179769E+03 0.  0.
         25    1    4    4    0    0  0.74491740924E+02 -0.24299926337E+02 -0.16759529250E+03  0.22332755328E+03  0.12509000000E+03 0.  0.
         25    1    4    4    0    0  0.33451893991E+02 -0.19437521346E+02 -0.62936966344E+02  0.14527703287E+03  0.12509000000E+03 0.  0.
         25    1    3    3    0    0 -0.10794363492E+03  0.43737447683E+02 -0.11992760439E+03  0.20879399187E+03  0.12509000000E+03 0.  0.
<mgrwt>
<rscale>  2 0.45887580E+03</rscale>
<asrwt>0</asrwt>
<pdfrwt beam="1">  1       21 0.16686670E-01 0.45887580E+03</pdfrwt>
<pdfrwt beam="2">  1       21 0.68224884E-01 0.45887580E+03</pdfrwt>
<totfact> 0.58284778E+04</totfact>
</mgrwt>
</event>
<event>
 7    0  0.4766352E-002  0.4639847E+03  0.7546771E-02  0.1023632E+00
         21   -1    0    0  502  501  0.00000000000E+00  0.00000000000E+00  0.60703180949E+02  0.60703180949E+02  0.00000000000E+00 0. -1.
         21   -1    0    0  501  502 -0.00000000000E+00 -0.00000000000E+00 -0.88661651749E+03  0.88661651749E+03  0.00000000000E+00 0. -1.
      99926    2    1    2    0    0  0.00000000000E+00  0.00000000000E+00 -0.82591333655E+03  0.94731969844E+03  0.46398466739E+03 0.  0.
      99925    2    3    3    0    0 -0.98086493531E+02  0.46543483945E+02 -0.40091205523E+03  0.49118281841E+03  0.26218853704E+03 0.  0.
         25    1    4    4    0    0 -0.78788187015E+02  0.44145504225E+02 -0.25467410650E+03  0.29776301412E+03  0.12509000000E+03 0.  0.
         25    1    3    3    0    0  0.98086493531E+02 -0.46543483945E+02 -0.42500128131E+03  0.45613688004E+03  0.12509000000E+03 0.  0.
         25    1    4    4    0    0 -0.19298306517E+02  0.23979797197E+01 -0.14623794873E+03  0.19341980428E+03  0.12509000000E+03 0.  0.
<mgrwt>
<rscale>  2 0.46398467E+03</rscale>
<asrwt>0</asrwt>
<pdfrwt beam="1">  1       21 0.89269388E-02 0.46398467E+03</pdfrwt>
<pdfrwt beam="2">  1       21 0.13038478E+00 0.46398467E+03</pdfrwt>
<totfact> 0.38474157E+04</totfact>
</mgrwt>
</event>
<event>
 7    0  0.4766352E-002  0.4527665E+03  0.7546771E-02  0.1026900E+00
         21   -1    0    0  502  501  0.00000000000E+00  0.00000000000E+00  0.67225674948E+02  0.67225674948E+02  0.00000000000E+00 0.  1.
         21   -1    0    0  501  502 -0.00000000000E+00 -0.00000000000E+00 -0.76234830412E+03  0.76234830412E+03  0.00000000000E+00 0.  1.
      99926    2    1    2    0    0 -0.88817841970E-15  0.00000000000E+00 -0.69512262917E+03  0.82957397907E+03  0.45276651506E+03 0.  0.
      99925    2    3    3    0    0 -0.60049838666E+01 -0.10570558514E+03 -0.37638681061E+03  0.47117509417E+03  0.26292433818E+03 0.  0.
         25    1    4    4    0    0  0.27384144430E+02 -0.77648429509E+02 -0.22133314090E+03  0.26723592074E+03  0.12509000000E+03 0.  0.
         25    1    3    3    0    0  0.60049838666E+01  0.10570558514E+03 -0.31873581856E+03  0.35839888490E+03  0.12509000000E+03 0.  0.
         25    1    4    4    0    0 -0.33389128297E+02 -0.28057155630E+02 -0.15505366971E+03  0.20393917343E+03  0.12509000000E+03 0.  0.
<mgrwt>
<rscale>  2 0.45276652E+03</rscale>
<asrwt>0</asrwt>
<pdfrwt beam="1">  1       21 0.98861284E-02 0.45276652E+03</pdfrwt>
<pdfrwt beam="2">  1       21 0.11211005E+00 0.45276652E+03</pdfrwt>
<totfact> 0.47188907E+04</totfact>
</mgrwt>
</event>
<event>
 7    0  0.4766352E-002  0.4559462E+03  0.7546771E-02  0.1025964E+00
         21   -1    0    0  502  501  0.00000000000E+00  0.00000000000E+00  0.12329392791E+04  0.12329392791E+04  0.00000000000E+00 0.  1.
         21   -1    0    0  501  502 -0.00000000000E+00 -0.00000000000E+00 -0.42152720516E+02  0.42152720516E+02  0.00000000000E+00 0.  1.
      99926    2    1    2    0    0  0.71054273576E-14  0.00000000000E+00  0.11907865586E+04  0.12750919997E+04  0.45594624616E+03 0.  0.
      99925    2    3    3    0    0  0.36863472825E+02  0.68451216771E+02  0.51542641022E+03  0.58385880973E+03  0.26302517111E+03 0.  0.
         25    1    4    4    0    0  0.39234038319E+02 -0.68739869832E+00  0.25852418244E+03  0.28986556071E+03  0.12509000000E+03 0.  0.
         25    1    4    4    0    0 -0.23705654945E+01  0.69138615469E+02  0.25690222778E+03  0.29399324902E+03  0.12509000000E+03 0.  0.
         25    1    3    3    0    0 -0.36863472825E+02 -0.68451216771E+02  0.67536014841E+03  0.69123318994E+03  0.12509000000E+03 0.  0.
<mgrwt>
<rscale>  2 0.45594625E+03</rscale>
<asrwt>0</asrwt>
<pdfrwt beam="1">  1       21 0.18131458E+00 0.45594625E+03</pdfrwt>
<pdfrwt beam="2">  1       21 0.61989303E-02 0.45594625E+03</pdfrwt>
<totfact> 0.29628004E+04</totfact>
</mgrwt>
</event>
<event>
 7    0  0.4766352E-002  0.4537875E+03  0.7546771E-02  0.1026599E+00
         21   -1    0    0  502  501  0.00000000000E+00  0.00000000000E+00  0.80334388789E+02  0.80334388789E+02  0.00000000000E+00 0. -1.
         21   -1    0    0  501  502 -0.00000000000E+00 -0.00000000000E+00 -0.64083099285E+03  0.64083099285E+03  0.00000000000E+00 0. -1.
      99926    2    1    2    0    0  0.00000000000E+00  0.35527136788E-14 -0.56049660406E+03  0.72116538164E+03  0.45378746623E+03 0.  0.
      99925    2    3    3    0    0 -0.90031051139E+02 -0.25828937621E+02 -0.25944085250E+03  0.38196809711E+03  0.26422972405E+03 0.  0.
         25    1    4    4    0    0 -0.75604917198E+02  0.91365190666E+01 -0.16569311951E+03  0.22113637747E+03  0.12509000000E+03 0.  0.
         25    1    3    3    0    0  0.90031051139E+02  0.25828937621E+02 -0.30105575156E+03  0.33919728453E+03  0.12509000000E+03 0.  0.
         25    1    4    4    0    0 -0.14426133941E+02 -0.34965456688E+02 -0.93747732992E+02  0.16083171964E+03  0.12509000000E+03 0.  0.
<mgrwt>
<rscale>  2 0.45378747E+03</rscale>
<asrwt>0</asrwt>
<pdfrwt beam="1">  1       21 0.11813881E-01 0.45378747E+03</pdfrwt>
<pdfrwt beam="2">  1       21 0.94239853E-01 0.45378747E+03</pdfrwt>
<totfact> 0.52265549E+04</totfact>
</mgrwt>
</event>
<event>
 7    0  0.4766352E-002  0.4560747E+03  0.7546771E-02  0.1025926E+00
         21   -1    0    0  502  501  0.00000000000E+00  0.00000000000E+00  0.53361778623E+03  0.53361778623E+03  0.00000000000E+00 0. -1.
         21   -1    0    0  501  502 -0.00000000000E+00 -0.00000000000E+00 -0.97449942066E+02  0.97449942066E+02  0.00000000000E+00 0. -1.
      99926    2    1    2    0    0 -0.22204460493E-15  0.00000000000E+00  0.43616784416E+03  0.63106772829E+03  0.45607465333E+03 0.  0.
      99925    2    3    3    0    0 -0.16373237234E+01  0.86670526896E+02  0.37691917630E+03  0.46775093857E+03  0.26307492091E+03 0.  0.
         25    1    4    4    0    0  0.39783296035E+02  0.42961163463E+02  0.18381526910E+03  0.22992158112E+03  0.12509000000E+03 0.  0.
         25    1    3    3    0    0  0.16373237234E+01 -0.86670526896E+02  0.59248667867E+02  0.16331678972E+03  0.12509000000E+03 0.  0.
         25    1    4    4    0    0 -0.41420619758E+02  0.43709363433E+02  0.19310390720E+03  0.23782935746E+03  0.12509000000E+03 0.  0.
<mgrwt>
<rscale>  2 0.45607465E+03</rscale>
<asrwt>0</asrwt>
<pdfrwt beam="1">  1       21 0.78473203E-01 0.45607465E+03</pdfrwt>
<pdfrwt beam="2">  1       21 0.14330874E-01 0.45607465E+03</pdfrwt>
<totfact> 0.56326233E+04</totfact>
</mgrwt>
</event>
<event>
 7    0  0.4766352E-002  0.4590116E+03  0.7546771E-02  0.1025068E+00
         21   -1    0    0  502  501  0.00000000000E+00  0.00000000000E+00  0.47195824685E+03  0.47195824685E+03  0.00000000000E+00 0.  1.
         21   -1    0    0  501  502 -0.00000000000E+00 -0.00000000000E+00 -0.11160504883E+03  0.11160504883E+03  0.00000000000E+00 0.  1.
      99926    2    1    2    0    0  0.00000000000E+00  0.00000000000E+00  0.36035319803E+03  0.58356329568E+03  0.45901164772E+03 0.  0.
      99925    2    3    3    0    0  0.86558917570E+02  0.77063929730E+02  0.21109814317E+03  0.35694494917E+03  0.26346911624E+03 0.  0.
         25    1    3    3    0    0 -0.86558917570E+02 -0.77063929730E+02  0.14925505485E+03  0.22661834651E+03  0.12509000000E+03 0.  0.
         25    1    4    4    0    0  0.82736122001E+02  0.36646848267E+02  0.13445284172E+03  0.20472745814E+03  0.12509000000E+03 0.  0.
         25    1    4    4    0    0  0.38227955694E+01  0.40417081463E+02  0.76645301458E+02  0.15221749103E+03  0.12509000000E+03 0.  0.
<mgrwt>
<rscale>  2 0.45901165E+03</rscale>
<asrwt>0</asrwt>
<pdfrwt beam="1">  1       21 0.69405624E-01 0.45901165E+03</pdfrwt>
<pdfrwt beam="2">  1       21 0.16412507E-01 0.45901165E+03</pdfrwt>
<totfact> 0.57845223E+04</totfact>
</mgrwt>
</event>
<event>
 7    0  0.4766352E-002  0.4552921E+03  0.7546771E-02  0.1026156E+00
         21   -1    0    0  502  501  0.00000000000E+00  0.00000000000E+00  0.18530452616E+03  0.18530452616E+03  0.00000000000E+00 0.  1.
         21   -1    0    0  501  502 -0.00000000000E+00 -0.00000000000E+00 -0.27966245264E+03  0.27966245264E+03  0.00000000000E+00 0.  1.
      99926    2    1    2    0    0 -0.17763568394E-14 -0.71054273576E-14 -0.94357926487E+02  0.46496697880E+03  0.45529207448E+03 0.  0.
      99925    2    3    3    0    0  0.54958446331E+01  0.33146029038E+02 -0.17086605115E+03  0.31453471900E+03  0.26193132396E+03 0.  0.
         25    1    4    4    0    0  0.24867610115E+02  0.23647369518E+02 -0.12334342656E+03  0.17899358953E+03  0.12509000000E+03 0.  0.
         25    1    4    4    0    0 -0.19371765482E+02  0.94986595198E+01 -0.47522624593E+02  0.13554112947E+03  0.12509000000E+03 0.  0.
         25    1    3    3    0    0 -0.54958446331E+01 -0.33146029038E+02  0.76508124661E+02  0.15043225980E+03  0.12509000000E+03 0.  0.
<mgrwt>
<rscale>  2 0.45529207E+03</rscale>
<asrwt>0</asrwt>
<pdfrwt beam="1">  1       21 0.27250666E-01 0.45529207E+03</pdfrwt>
<pdfrwt beam="2">  1       21 0.41126831E-01 0.45529207E+03</pdfrwt>
<totfact> 0.67655523E+04</totfact>
</mgrwt>
</event>
<event>
 7    0  0.4766352E-002  0.4503084E+03  0.7546771E-02  0.1027630E+00
         21   -1    0    0  502  501  0.00000000000E+00  0.00000000000E+00  0.94937578811E+03  0.94937578811E+03  0.00000000000E+00 0.  1.
         21   -1    0    0  501  502 -0.00000000000E+00 -0.00000000000E+00 -0.53397619135E+02  0.53397619135E+02  0.00000000000E+00 0.  1.
      99926    2    1    2    0    0  0.00000000000E+00  0.00000000000E+00  0.89597816897E+03  0.10027734072E+04  0.45030836878E+03 0.  0.
      99925    2    3    3    0    0 -0.12244995622E+02 -0.19451949528E+02  0.32979665922E+03  0.42248267981E+03  0.26305410099E+03 0.  0.
         25    1    4    4    0    0 -0.73133186627E+01 -0.44970941142E+02  0.13560586207E+03  0.19003243961E+03  0.12509000000E+03 0.  0.
         25    1    3    3    0    0  0.12244995622E+02  0.19451949528E+02  0.56618150975E+03  0.58029072743E+03  0.12509000000E+03 0.  0.
         25    1    4    4    0    0 -0.49316769590E+01  0.25518991614E+02  0.19419079715E+03  0.23245024020E+03  0.12509000000E+03 0.  0.
<mgrwt>
<rscale>  2 0.45030837E+03</rscale>
<asrwt>0</asrwt>
<pdfrwt beam="1">  1       21 0.13961408E+00 0.45030837E+03</pdfrwt>
<pdfrwt beam="2">  1       21 0.78525917E-02 0.45030837E+03</pdfrwt>
<totfact> 0.40523608E+04</totfact>
</mgrwt>
</event>
<event>
 7    0  0.4766352E-002  0.4477314E+03  0.7546771E-02  0.1028401E+00
         21   -1    0    0  502  501  0.00000000000E+00  0.00000000000E+00  0.12982888355E+03  0.12982888355E+03  0.00000000000E+00 0. -1.
         21   -1    0    0  501  502 -0.00000000000E+00 -0.00000000000E+00 -0.38601462681E+03  0.38601462681E+03  0.00000000000E+00 0. -1.
      99926    2    1    2    0    0  0.00000000000E+00  0.00000000000E+00 -0.25618574326E+03  0.51584351037E+03  0.44773138391E+03 0.  0.
      99925    2    3    3    0    0  0.17683860612E+02 -0.58065094135E+02 -0.61875998253E+02  0.27691243413E+03  0.26299730595E+03 0.  0.
         25    1    4    4    0    0  0.49352196807E+02 -0.32916777742E+02 -0.31091651814E+02  0.14189204523E+03  0.12509000000E+03 0.  0.
         25    1    4    4    0    0 -0.31668336194E+02 -0.25148316393E+02 -0.30784346439E+02  0.13502038891E+03  0.12509000000E+03 0.  0.
         25    1    3    3    0    0 -0.17683860612E+02  0.58065094135E+02 -0.19430974501E+03  0.23893107623E+03  0.12509000000E+03 0.  0.
<mgrwt>
<rscale>  2 0.44773138E+03</rscale>
<asrwt>0</asrwt>
<pdfrwt beam="1">  1       21 0.19092483E-01 0.44773138E+03</pdfrwt>
<pdfrwt beam="2">  1       21 0.56766856E-01 0.44773138E+03</pdfrwt>
<totfact> 0.68009425E+04</totfact>
</mgrwt>
</event>
<event>
 7    0  0.4766352E-002  0.4574901E+03  0.7546771E-02  0.1025512E+00
         21   -1    0    0  502  501  0.00000000000E+00  0.00000000000E+00  0.44105052233E+03  0.44105052233E+03  0.00000000000E+00 0.  1.
         21   -1    0    0  501  502 -0.00000000000E+00 -0.00000000000E+00 -0.11863563134E+03  0.11863563134E+03  0.00000000000E+00 0.  1.
      99926    2    1    2    0    0  0.00000000000E+00 -0.99920072216E-15  0.32241489099E+03  0.55968615367E+03  0.45749014053E+03 0.  0.
      99925    2    3    3    0    0  0.58119198908E+02 -0.82223560689E+00  0.80149104283E+02  0.28090534934E+03  0.26287909582E+03 0.  0.
         25    1    4    4    0    0  0.39645845918E+02 -0.30216639725E+02  0.67054567192E+02  0.15042826030E+03  0.12509000000E+03 0.  0.
         25    1    3    3    0    0 -0.58119198908E+02  0.82223560689E+00  0.24226578670E+03  0.27878080433E+03  0.12509000000E+03 0.  0.
         25    1    4    4    0    0  0.18473352990E+02  0.29394404118E+02  0.13094537090E+02  0.13047708905E+03  0.12509000000E+03 0.  0.
<mgrwt>
<rscale>  2 0.45749014E+03</rscale>
<asrwt>0</asrwt>
<pdfrwt beam="1">  1       21 0.64860370E-01 0.45749014E+03</pdfrwt>
<pdfrwt beam="2">  1       21 0.17446417E-01 0.45749014E+03</pdfrwt>
<totfact> 0.60039578E+04</totfact>
</mgrwt>
</event>
<event>
 7    0  0.4766352E-002  0.4475101E+03  0.7546771E-02  0.1028467E+00
         21   -1    0    0  502  501  0.00000000000E+00  0.00000000000E+00  0.27532314289E+03  0.27532314289E+03  0.00000000000E+00 0.  1.
         21   -1    0    0  501  502 -0.00000000000E+00 -0.00000000000E+00 -0.18184566572E+03  0.18184566572E+03  0.00000000000E+00 0.  1.
      99926    2    1    2    0    0  0.00000000000E+00  0.35527136788E-14  0.93477477166E+02  0.45716880861E+03  0.44751009020E+03 0.  0.
      99925    2    3    3    0    0  0.97280418445E+02  0.19595389948E+02  0.21310119412E+02  0.28194582283E+03  0.26304346923E+03 0.  0.
         25    1    4    4    0    0  0.46871085754E+02  0.42383133982E+02  0.35104676619E+02  0.14447517138E+03  0.12509000000E+03 0.  0.
         25    1    4    4    0    0  0.50409332691E+02 -0.22787744035E+02 -0.13794557207E+02  0.13747065145E+03  0.12509000000E+03 0.  0.
         25    1    3    3    0    0 -0.97280418445E+02 -0.19595389948E+02  0.72167357754E+02  0.17522298578E+03  0.12509000000E+03 0.  0.
<mgrwt>
<rscale>  2 0.44751009E+03</rscale>
<asrwt>0</asrwt>
<pdfrwt beam="1">  1       21 0.40488698E-01 0.44751009E+03</pdfrwt>
<pdfrwt beam="2">  1       21 0.26742010E-01 0.44751009E+03</pdfrwt>
<totfact> 0.72622131E+04</totfact>
</mgrwt>
</event>
<event>
 7    0  0.4766352E-002  0.4484218E+03  0.7546771E-02  0.1028194E+00
         21   -1    0    0  502  501  0.00000000000E+00  0.00000000000E+00  0.37068299919E+03  0.37068299919E+03  0.00000000000E+00 0. -1.
         21   -1    0    0  501  502 -0.00000000000E+00 -0.00000000000E+00 -0.13561594165E+03  0.13561594165E+03  0.00000000000E+00 0. -1.
      99926    2    1    2    0    0  0.35527136788E-14  0.35527136788E-14  0.23506705754E+03  0.50629894084E+03  0.44842178354E+03 0.  0.
      99925    2    3    3    0    0 -0.26090074339E+02 -0.20815117625E+02  0.26345547703E+03  0.37375697932E+03  0.26300481006E+03 0.  0.
         25    1    4    4    0    0 -0.20137115530E+02 -0.25892880580E+02  0.18560005792E+03  0.22620971307E+03  0.12509000000E+03 0.  0.
         25    1    4    4    0    0 -0.59529588084E+01  0.50777629554E+01  0.77855419109E+02  0.14754726626E+03  0.12509000000E+03 0.  0.
         25    1    3    3    0    0  0.26090074339E+02  0.20815117625E+02 -0.28388419488E+02  0.13254196151E+03  0.12509000000E+03 0.  0.
<mgrwt>
<rscale>  2 0.44842178E+03</rscale>
<asrwt>0</asrwt>
<pdfrwt beam="1">  1       21 0.54512206E-01 0.44842178E+03</pdfrwt>
<pdfrwt beam="2">  1       21 0.19943521E-01 0.44842178E+03</pdfrwt>
<totfact> 0.68328477E+04</totfact>
</mgrwt>
</event>
<event>
 7    0  0.4766352E-002  0.4578069E+03  0.7546771E-02  0.1025419E+00
         21   -1    0    0  502  501  0.00000000000E+00  0.00000000000E+00  0.60594578198E+02  0.60594578198E+02  0.00000000000E+00 0. -1.
         21   -1    0    0  501  502 -0.00000000000E+00 -0.00000000000E+00 -0.86471078431E+03  0.86471078431E+03  0.00000000000E+00 0. -1.
      99926    2    1    2    0    0  0.00000000000E+00  0.17763568394E-14 -0.80411620611E+03  0.92530536251E+03  0.45780688172E+03 0.  0.
      99925    2    3    3    0    0 -0.91205371748E+02 -0.12943626452E+02 -0.64654309748E+03  0.70403008154E+03  0.26297228280E+03 0.  0.
         25    1    4    4    0    0 -0.60607980488E+02 -0.42643829512E+02 -0.30752126740E+03  0.34015975878E+03  0.12509000000E+03 0.  0.
         25    1    3    3    0    0  0.91205371748E+02  0.12943626452E+02 -0.15757310863E+03  0.22127528097E+03  0.12509000000E+03 0.  0.
         25    1    4    4    0    0 -0.30597391260E+02  0.29700203060E+02 -0.33902183008E+03  0.36387032276E+03  0.12509000000E+03 0.  0.
<mgrwt>
<rscale>  2 0.45780688E+03</rscale>
<asrwt>0</asrwt>
<pdfrwt beam="1">  1       21 0.89109681E-02 0.45780688E+03</pdfrwt>
<pdfrwt beam="2">  1       21 0.12716334E+00 0.45780688E+03</pdfrwt>
<totfact> 0.41244283E+04</totfact>
</mgrwt>
</event>
<event>
 7    0  0.4766352E-002  0.4558928E+03  0.7546771E-02  0.1025979E+00
         21   -1    0    0  502  501  0.00000000000E+00  0.00000000000E+00  0.10743367236E+03  0.10743367236E+03  0.00000000000E+00 0.  1.
         21   -1    0    0  501  502 -0.00000000000E+00 -0.00000000000E+00 -0.48364323195E+03  0.48364323195E+03  0.00000000000E+00 0.  1.
      99926    2    1    2    0    0  0.00000000000E+00  0.00000000000E+00 -0.37620955958E+03  0.59107690431E+03  0.45589283180E+03 0.  0.
      99925    2    3    3    0    0 -0.66474683003E+02 -0.92092730498E+02 -0.22485625780E+03  0.36423933125E+03  0.26307793383E+03 0.  0.
         25    1    3    3    0    0  0.66474683003E+02  0.92092730498E+02 -0.15135330179E+03  0.22683757306E+03  0.12509000000E+03 0.  0.
         25    1    4    4    0    0 -0.49677509213E+02 -0.19548287527E+02 -0.14248122757E+03  0.19697309150E+03  0.12509000000E+03 0.  0.
         25    1    4    4    0    0 -0.16797173789E+02 -0.72544442971E+02 -0.82375030227E+02  0.16726623974E+03  0.12509000000E+03 0.  0.
<mgrwt>
<rscale>  2 0.45589283E+03</rscale>
<asrwt>0</asrwt>
<pdfrwt beam="1">  1       21 0.15799069E-01 0.45589283E+03</pdfrwt>
<pdfrwt beam="2">  1       21 0.71124007E-01 0.45589283E+03</pdfrwt>
<totfact> 0.58814777E+04</totfact>
</mgrwt>
</event>
<event>
 7    0  0.4766352E-002  0.4568735E+03  0.7546771E-02  0.1025692E+00
         21   -1    0    0  502  501  0.00000000000E+00  0.00000000000E+00  0.65764005952E+02  0.65764005952E+02  0.00000000000E+00 0. -1.
         21   -1    0    0  501  502 -0.00000000000E+00 -0.00000000000E+00 -0.79349401912E+03  0.79349401912E+03  0.00000000000E+00 0. -1.
      99926    2    1    2    0    0 -0.14210854715E-13  0.00000000000E+00 -0.72773001317E+03  0.85925802507E+03  0.45687348532E+03 0.  0.
      99925    2    3    3    0    0 -0.94180459083E+02  0.63484941859E+02 -0.42469205776E+03  0.51230009212E+03  0.26303563210E+03 0.  0.
         25    1    4    4    0    0 -0.22511806943E+02  0.62800364836E+02 -0.22677942861E+03  0.26744547971E+03  0.12509000000E+03 0.  0.
         25    1    3    3    0    0  0.94180459083E+02 -0.63484941859E+02 -0.30303795541E+03  0.34695793295E+03  0.12509000000E+03 0.  0.
         25    1    4    4    0    0 -0.71668652140E+02  0.68457702301E+00 -0.19791262914E+03  0.24485461241E+03  0.12509000000E+03 0.  0.
<mgrwt>
<rscale>  2 0.45687349E+03</rscale>
<asrwt>0</asrwt>
<pdfrwt beam="1">  1       21 0.96711780E-02 0.45687349E+03</pdfrwt>
<pdfrwt beam="2">  1       21 0.11669029E+00 0.45687349E+03</pdfrwt>
<totfact> 0.44372354E+04</totfact>
</mgrwt>
</event>
<event>
 7    0  0.4766352E-002  0.4426693E+03  0.7546771E-02  0.1029931E+00
         21   -1    0    0  502  501  0.00000000000E+00  0.00000000000E+00  0.17489163718E+03  0.17489163718E+03  0.00000000000E+00 0. -1.
         21   -1    0    0  501  502 -0.00000000000E+00 -0.00000000000E+00 -0.28011072992E+03  0.28011072992E+03  0.00000000000E+00 0. -1.
      99926    2    1    2    0    0  0.35527136788E-14  0.71054273576E-14 -0.10521909274E+03  0.45500236709E+03  0.44266928579E+03 0.  0.
      99925    2    3    3    0    0 -0.25229393485E+02 -0.62763829436E+02  0.10387282287E+02  0.27173163122E+03  0.26297217189E+03 0.  0.
         25    1    4    4    0    0 -0.18660906597E+01 -0.71821188847E+01 -0.26440367942E+02  0.12806899033E+03  0.12509000000E+03 0.  0.
         25    1    4    4    0    0 -0.23363302826E+02 -0.55581710551E+02  0.36827650228E+02  0.14366264089E+03  0.12509000000E+03 0.  0.
         25    1    3    3    0    0  0.25229393485E+02  0.62763829436E+02 -0.11560637503E+03  0.18327073588E+03  0.12509000000E+03 0.  0.
<mgrwt>
<rscale>  2 0.44266929E+03</rscale>
<asrwt>0</asrwt>
<pdfrwt beam="1">  1       21 0.25719358E-01 0.44266929E+03</pdfrwt>
<pdfrwt beam="2">  1       21 0.41192755E-01 0.44266929E+03</pdfrwt>
<totfact> 0.75705677E+04</totfact>
</mgrwt>
</event>
<event>
 7    0  0.4766352E-002  0.4541967E+03  0.7546771E-02  0.1026478E+00
         21   -1    0    0  502  501  0.00000000000E+00  0.00000000000E+00  0.10647370295E+03  0.10647370295E+03  0.00000000000E+00 0.  1.
         21   -1    0    0  501  502 -0.00000000000E+00 -0.00000000000E+00 -0.48437936540E+03  0.48437936540E+03  0.00000000000E+00 0.  1.
      99926    2    1    2    0    0  0.00000000000E+00  0.35527136788E-14 -0.37790566246E+03  0.59085306835E+03  0.45419671802E+03 0.  0.
      99925    2    3    3    0    0 -0.52596393783E+02 -0.26025190855E+02 -0.11309865486E+03  0.29216602382E+03  0.26291821646E+03 0.  0.
         25    1    3    3    0    0  0.52596393783E+02  0.26025190855E+02 -0.26480700760E+03  0.29868704453E+03  0.12509000000E+03 0.  0.
         25    1    4    4    0    0  0.38561960663E+01  0.60814916832E+01 -0.75527330949E+02  0.14630017296E+03  0.12509000000E+03 0.  0.
         25    1    4    4    0    0 -0.56452589849E+02 -0.32106682538E+02 -0.37571323907E+02  0.14586585085E+03  0.12509000000E+03 0.  0.
<mgrwt>
<rscale>  2 0.45419672E+03</rscale>
<asrwt>0</asrwt>
<pdfrwt beam="1">  1       21 0.15657897E-01 0.45419672E+03</pdfrwt>
<pdfrwt beam="2">  1       21 0.71232261E-01 0.45419672E+03</pdfrwt>
<totfact> 0.59622462E+04</totfact>
</mgrwt>
</event>
<event>
 7    0  0.4766352E-002  0.4563046E+03  0.7546771E-02  0.1025858E+00
         21   -1    0    0  502  501  0.00000000000E+00  0.00000000000E+00  0.55680910188E+03  0.55680910188E+03  0.00000000000E+00 0.  1.
         21   -1    0    0  501  502 -0.00000000000E+00 -0.00000000000E+00 -0.93485320920E+02  0.93485320920E+02  0.00000000000E+00 0.  1.
      99926    2    1    2    0    0  0.14210854715E-13 -0.71054273576E-14  0.46332378096E+03  0.65029442280E+03  0.45630462448E+03 0.  0.
      99925    2    3    3    0    0 -0.10346558544E+03  0.16650175611E+02  0.22596526479E+03  0.36225114651E+03  0.26302706427E+03 0.  0.
         25    1    4    4    0    0 -0.54628131698E+02  0.46827370807E+02  0.13224342411E+03  0.19573672816E+03  0.12509000000E+03 0.  0.
         25    1    3    3    0    0  0.10346558544E+03 -0.16650175611E+02  0.23735851617E+03  0.28804327629E+03  0.12509000000E+03 0.  0.
         25    1    4    4    0    0 -0.48837453741E+02 -0.30177195196E+02  0.93721840676E+02  0.16651441835E+03  0.12509000000E+03 0.  0.
<mgrwt>
<rscale>  2 0.45630462E+03</rscale>
<asrwt>0</asrwt>
<pdfrwt beam="1">  1       21 0.81883690E-01 0.45630462E+03</pdfrwt>
<pdfrwt beam="2">  1       21 0.13747842E-01 0.45630462E+03</pdfrwt>
<totfact> 0.55115086E+04</totfact>
</mgrwt>
</event>
<event>
 7    0  0.4766352E-002  0.5087251E+03  0.7546771E-02  0.1011526E+00
         21   -1    0    0  502  501  0.00000000000E+00  0.00000000000E+00  0.65903853411E+02  0.65903853411E+02  0.00000000000E+00 0. -1.
         21   -1    0    0  501  502 -0.00000000000E+00 -0.00000000000E+00 -0.98173796739E+03  0.98173796739E+03  0.00000000000E+00 0. -1.
      99926    2    1    2    0    0  0.00000000000E+00  0.00000000000E+00 -0.91583411398E+03  0.10476418208E+04  0.50872513243E+03 0.  0.
      99925    2    3    3    0    0 -0.14386922046E+03 -0.65967711719E+02 -0.54393941514E+03  0.62455404420E+03  0.26295926528E+03 0.  0.
         25    1    3    3    0    0  0.14386922046E+03  0.65967711719E+02 -0.37189469884E+03  0.42308777661E+03  0.12509000000E+03 0.  0.
         25    1    4    4    0    0 -0.98664623108E+02 -0.24162296402E+01 -0.29291440781E+03  0.33344700391E+03  0.12509000000E+03 0.  0.
         25    1    4    4    0    0 -0.45204597356E+02 -0.63551482079E+02 -0.25102500733E+03  0.29110704028E+03  0.12509000000E+03 0.  0.
<mgrwt>
<rscale>  2 0.50872513E+03</rscale>
<asrwt>0</asrwt>
<pdfrwt beam="1">  1       21 0.96917433E-02 0.50872513E+03</pdfrwt>
<pdfrwt beam="2">  1       21 0.14437323E+00 0.50872513E+03</pdfrwt>
<totfact> 0.25076383E+04</totfact>
</mgrwt>
</event>
<event>
 7    0  0.4766352E-002  0.4516838E+03  0.7546771E-02  0.1027221E+00
         21   -1    0    0  502  501  0.00000000000E+00  0.00000000000E+00  0.40674907150E+03  0.40674907150E+03  0.00000000000E+00 0.  1.
         21   -1    0    0  501  502 -0.00000000000E+00 -0.00000000000E+00 -0.12539565961E+03  0.12539565961E+03  0.00000000000E+00 0.  1.
      99926    2    1    2    0    0  0.00000000000E+00  0.15543122345E-14  0.28135341189E+03  0.53214473111E+03  0.45168381913E+03 0.  0.
      99925    2    3    3    0    0 -0.47729240027E+02  0.13257758846E+01  0.29424850629E+03  0.39763216815E+03  0.26315265466E+03 0.  0.
         25    1    3    3    0    0  0.47729240027E+02 -0.13257758846E+01 -0.12895094400E+02  0.13451256296E+03  0.12509000000E+03 0.  0.
         25    1    4    4    0    0 -0.98551424975E+01  0.22020856838E+02  0.97050502936E+02  0.16015102307E+03  0.12509000000E+03 0.  0.
         25    1    4    4    0    0 -0.37874097529E+02 -0.20695080953E+02  0.19719800336E+03  0.23748114508E+03  0.12509000000E+03 0.  0.
<mgrwt>
<rscale>  2 0.45168382E+03</rscale>
<asrwt>0</asrwt>
<pdfrwt beam="1">  1       21 0.59816040E-01 0.45168382E+03</pdfrwt>
<pdfrwt beam="2">  1       21 0.18440538E-01 0.45168382E+03</pdfrwt>
<totfact> 0.64744876E+04</totfact>
</mgrwt>
</event>
<event>
 7    0  0.4766352E-002  0.4424848E+03  0.7546771E-02  0.1029987E+00
         21   -1    0    0  502  501  0.00000000000E+00  0.00000000000E+00  0.62630123175E+03  0.62630123175E+03  0.00000000000E+00 0. -1.
         21   -1    0    0  501  502 -0.00000000000E+00 -0.00000000000E+00 -0.78154387344E+02  0.78154387344E+02  0.00000000000E+00 0. -1.
      99926    2    1    2    0    0  0.00000000000E+00 -0.14210854715E-13  0.54814684441E+03  0.70445561909E+03  0.44248475255E+03 0.  0.
      99925    2    3    3    0    0  0.32056283956E+02  0.82451127509E+02  0.27113483061E+03  0.38789763443E+03  0.26291573680E+03 0.  0.
         25    1    4    4    0    0  0.17244473326E+02  0.78374715240E+02  0.11934037176E+03  0.19060325360E+03  0.12509000000E+03 0.  0.
         25    1    3    3    0    0 -0.32056283956E+02 -0.82451127509E+02  0.27701201379E+03  0.31655798466E+03  0.12509000000E+03 0.  0.
         25    1    4    4    0    0  0.14811810630E+02  0.40764122688E+01  0.15179445885E+03  0.19729438083E+03  0.12509000000E+03 0.  0.
<mgrwt>
<rscale>  2 0.44248475E+03</rscale>
<asrwt>0</asrwt>
<pdfrwt beam="1">  1       21 0.92103120E-01 0.44248475E+03</pdfrwt>
<pdfrwt beam="2">  1       21 0.11493293E-01 0.44248475E+03</pdfrwt>
<totfact> 0.58183280E+04</totfact>
</mgrwt>
</event>
<event>
 7    0  0.4766352E-002  0.4530821E+03  0.7546771E-02  0.1026807E+00
         21   -1    0    0  502  501  0.00000000000E+00  0.00000000000E+00  0.15076197922E+04  0.15076197922E+04  0.00000000000E+00 0. -1.
         21   -1    0    0  501  502 -0.00000000000E+00 -0.00000000000E+00 -0.34040973324E+02  0.34040973324E+02  0.00000000000E+00 0. -1.
      99926    2    1    2    0    0  0.71054273576E-14  0.00000000000E+00  0.14735788189E+04  0.15416607656E+04  0.45308209027E+03 0.  0.
      99925    2    3    3    0    0  0.34221558179E+02  0.47450980119E+02  0.12512792068E+04  0.12799599130E+04  0.26301143530E+03 0.  0.
         25    1    4    4    0    0  0.44202235714E+02  0.27207535375E+02  0.50064432456E+03  0.51863892588E+03  0.12509000000E+03 0.  0.
         25    1    4    4    0    0 -0.99806775354E+01  0.20243444744E+02  0.75063488221E+03  0.76132098715E+03  0.12509000000E+03 0.  0.
         25    1    3    3    0    0 -0.34221558179E+02 -0.47450980119E+02  0.22229961214E+03  0.26170085253E+03  0.12509000000E+03 0.  0.
<mgrwt>
<rscale>  2 0.45308209E+03</rscale>
<asrwt>0</asrwt>
<pdfrwt beam="1">  1       21 0.22170875E+00 0.45308209E+03</pdfrwt>
<pdfrwt beam="2">  1       21 0.50060265E-02 0.45308209E+03</pdfrwt>
<totfact> 0.23118782E+04</totfact>
</mgrwt>
</event>
<event>
 7    0  0.4766352E-002  0.4560480E+03  0.7546771E-02  0.1025934E+00
         21   -1    0    0  502  501  0.00000000000E+00  0.00000000000E+00  0.16848369117E+04  0.16848369117E+04  0.00000000000E+00 0.  1.
         21   -1    0    0  501  502 -0.00000000000E+00 -0.00000000000E+00 -0.30860520018E+02  0.30860520018E+02  0.00000000000E+00 0.  1.
      99926    2    1    2    0    0  0.00000000000E+00 -0.14210854715E-13  0.16539763916E+04  0.17156974317E+04  0.45604799414E+03 0.  0.
      99925    2    3    3    0    0 -0.43238003580E+02  0.10559221908E+03  0.10367203958E+04  0.10756414074E+04  0.26305135736E+03 0.  0.
         25    1    3    3    0    0  0.43238003580E+02 -0.10559221908E+03  0.61725599584E+03  0.64005602425E+03  0.12509000000E+03 0.  0.
         25    1    4    4    0    0  0.13143479378E+02  0.42496306699E+02  0.56244601111E+03  0.57790285572E+03  0.12509000000E+03 0.  0.
         25    1    4    4    0    0 -0.56381482959E+02  0.63095912378E+02  0.47427438470E+03  0.49773855171E+03  0.12509000000E+03 0.  0.
<mgrwt>
<rscale>  2 0.45604799E+03</rscale>
<asrwt>0</asrwt>
<pdfrwt beam="1">  1       21 0.24777007E+00 0.45604799E+03</pdfrwt>
<pdfrwt beam="2">  1       21 0.45383129E-02 0.45604799E+03</pdfrwt>
<totfact> 0.18783667E+04</totfact>
</mgrwt>
</event>
<event>
 7    0  0.4766352E-002  0.4405261E+03  0.7546771E-02  0.1030586E+00
         21   -1    0    0  502  501  0.00000000000E+00  0.00000000000E+00  0.76935761648E+02  0.76935761648E+02  0.00000000000E+00 0.  1.
         21   -1    0    0  501  502 -0.00000000000E+00 -0.00000000000E+00 -0.63060165704E+03  0.63060165704E+03  0.00000000000E+00 0.  1.
      99926    2    1    2    0    0  0.00000000000E+00  0.00000000000E+00 -0.55366589539E+03  0.70753741869E+03  0.44052613444E+03 0.  0.
      99925    2    3    3    0    0  0.14022745045E+02 -0.84072477740E+02 -0.27292901674E+03  0.38859303164E+03  0.26315295395E+03 0.  0.
         25    1    4    4    0    0 -0.26114983356E+02 -0.17057847199E+02 -0.11968140938E+03  0.17590938109E+03  0.12509000000E+03 0.  0.
         25    1    4    4    0    0  0.40137728401E+02 -0.67014630541E+02 -0.15324760736E+03  0.21268365055E+03  0.12509000000E+03 0.  0.
         25    1    3    3    0    0 -0.14022745045E+02  0.84072477740E+02 -0.28073687866E+03  0.31894438705E+03  0.12509000000E+03 0.  0.
<mgrwt>
<rscale>  2 0.44052613E+03</rscale>
<asrwt>0</asrwt>
<pdfrwt beam="1">  1       21 0.11314082E-01 0.44052613E+03</pdfrwt>
<pdfrwt beam="2">  1       21 0.92735541E-01 0.44052613E+03</pdfrwt>
<totfact> 0.58924756E+04</totfact>
</mgrwt>
</event>
<event>
 7    0  0.4766352E-002  0.4653442E+03  0.7546771E-02  0.1023243E+00
         21   -1    0    0  502  501  0.00000000000E+00  0.00000000000E+00  0.58844848023E+02  0.58844848023E+02  0.00000000000E+00 0. -1.
         21   -1    0    0  501  502 -0.00000000000E+00 -0.00000000000E+00 -0.91998363125E+03  0.91998363125E+03  0.00000000000E+00 0. -1.
      99926    2    1    2    0    0  0.00000000000E+00  0.00000000000E+00 -0.86113878323E+03  0.97882847927E+03  0.46534416066E+03 0.  0.
      99925    2    3    3    0    0 -0.90105118019E+02  0.32648035049E+02 -0.37552139511E+03  0.46828310203E+03  0.26284580836E+03 0.  0.
         25    1    4    4    0    0 -0.62135086765E+02 -0.17076472089E+02 -0.16510760965E+03  0.21693410467E+03  0.12509000000E+03 0.  0.
         25    1    4    4    0    0 -0.27970031255E+02  0.49724507138E+02 -0.21041378547E+03  0.25134899736E+03  0.12509000000E+03 0.  0.
         25    1    3    3    0    0  0.90105118019E+02 -0.32648035049E+02 -0.48561738812E+03  0.51054537724E+03  0.12509000000E+03 0.  0.
<mgrwt>
<rscale>  2 0.46534416E+03</rscale>
<asrwt>0</asrwt>
<pdfrwt beam="1">  1       21 0.86536542E-02 0.46534416E+03</pdfrwt>
<pdfrwt beam="2">  1       21 0.13529171E+00 0.46534416E+03</pdfrwt>
<totfact> 0.36917936E+04</totfact>
</mgrwt>
</event>
<event>
 7    0  0.4766352E-002  0.4619582E+03  0.7546771E-02  0.1024215E+00
         21   -1    0    0  502  501  0.00000000000E+00  0.00000000000E+00  0.30566423655E+04  0.30566423655E+04  0.00000000000E+00 0.  1.
         21   -1    0    0  501  502 -0.00000000000E+00 -0.00000000000E+00 -0.17454231468E+02  0.17454231468E+02  0.00000000000E+00 0.  1.
      99926    2    1    2    0    0 -0.26645352591E-14  0.00000000000E+00  0.30391881340E+04  0.30740965969E+04  0.46195819449E+03 0.  0.
      99925    2    3    3    0    0  0.75605616569E+01  0.90786401549E+02  0.24158074446E+04  0.24317957914E+04  0.26307000743E+03 0.  0.
         25    1    4    4    0    0 -0.11885731241E+02  0.15112376003E+02  0.13320738555E+04  0.13380724641E+04  0.12509000000E+03 0.  0.
         25    1    3    3    0    0 -0.75605616569E+01 -0.90786401549E+02  0.62338068943E+03  0.64230080559E+03  0.12509000000E+03 0.  0.
         25    1    4    4    0    0  0.19446292898E+02  0.75674025545E+02  0.10837335890E+04  0.10937233273E+04  0.12509000000E+03 0.  0.
<mgrwt>
<rscale>  2 0.46195819E+03</rscale>
<asrwt>0</asrwt>
<pdfrwt beam="1">  1       21 0.44950586E+00 0.46195819E+03</pdfrwt>
<pdfrwt beam="2">  1       21 0.25668009E-02 0.46195819E+03</pdfrwt>
<totfact> 0.27063339E+03</totfact>
</mgrwt>
</event>
<event>
 7    0  0.4766352E-002  0.4501436E+03  0.7546771E-02  0.1027679E+00
         21   -1    0    0  502  501  0.00000000000E+00  0.00000000000E+00  0.47948058203E+02  0.47948058203E+02  0.00000000000E+00 0.  1.
         21   -1    0    0  501  502 -0.00000000000E+00 -0.00000000000E+00 -0.10565037926E+04  0.10565037926E+04  0.00000000000E+00 0.  1.
      99926    2    1    2    0    0  0.00000000000E+00  0.00000000000E+00 -0.10085557344E+04  0.11044518508E+04  0.45014355638E+03 0.  0.
      99925    2    3    3    0    0 -0.47900674043E+02 -0.87712796370E+02 -0.53393587719E+03  0.60355313232E+03  0.26306055075E+03 0.  0.
         25    1    4    4    0    0 -0.95813106232E+01 -0.81244620707E+02 -0.30918689470E+03  0.34341888979E+03  0.12509000000E+03 0.  0.
         25    1    4    4    0    0 -0.38319363420E+02 -0.64681756637E+01 -0.22474898249E+03  0.26013424253E+03  0.12509000000E+03 0.  0.
         25    1    3    3    0    0  0.47900674043E+02  0.87712796370E+02 -0.47461985719E+03  0.50089871846E+03  0.12509000000E+03 0.  0.
<mgrwt>
<rscale>  2 0.45014356E+03</rscale>
<asrwt>0</asrwt>
<pdfrwt beam="1">  1       21 0.70511850E-02 0.45014356E+03</pdfrwt>
<pdfrwt beam="2">  1       21 0.15536821E+00 0.45014356E+03</pdfrwt>
<totfact> 0.36710453E+04</totfact>
</mgrwt>
</event>
<event>
 7    0  0.4766352E-002  0.4547324E+03  0.7546771E-02  0.1026320E+00
         21   -1    0    0  502  501  0.00000000000E+00  0.00000000000E+00  0.11879086744E+03  0.11879086744E+03  0.00000000000E+00 0. -1.
         21   -1    0    0  501  502 -0.00000000000E+00 -0.00000000000E+00 -0.43517989791E+03  0.43517989791E+03  0.00000000000E+00 0. -1.
      99926    2    1    2    0    0 -0.14210854715E-13  0.17763568394E-14 -0.31638903047E+03  0.55397076534E+03  0.45473243809E+03 0.  0.
      99925    2    3    3    0    0  0.10482020882E+03  0.77928009519E+01 -0.24861418240E+03  0.37708395958E+03  0.26331596412E+03 0.  0.
         25    1    4    4    0    0  0.33843780343E+02  0.38072779564E+02 -0.99898420903E+02  0.16799446601E+03  0.12509000000E+03 0.  0.
         25    1    4    4    0    0  0.70976428472E+02 -0.30279978612E+02 -0.14871576149E+03  0.20908949357E+03  0.12509000000E+03 0.  0.
         25    1    3    3    0    0 -0.10482020882E+03 -0.77928009519E+01 -0.67774848076E+02  0.17688680577E+03  0.12509000000E+03 0.  0.
<mgrwt>
<rscale>  2 0.45473244E+03</rscale>
<asrwt>0</asrwt>
<pdfrwt beam="1">  1       21 0.17469245E-01 0.45473244E+03</pdfrwt>
<pdfrwt beam="2">  1       21 0.63997043E-01 0.45473244E+03</pdfrwt>
<totfact> 0.61735453E+04</totfact>
</mgrwt>
</event>
<event>
 7    0  0.4766352E-002  0.4697835E+03  0.7546771E-02  0.1021981E+00
         21   -1    0    0  502  501  0.00000000000E+00  0.00000000000E+00  0.13948824857E+03  0.13948824857E+03  0.00000000000E+00 0.  1.
         21   -1    0    0  501  502 -0.00000000000E+00 -0.00000000000E+00 -0.39554679206E+03  0.39554679206E+03  0.00000000000E+00 0.  1.
      99926    2    1    2    0    0  0.14210854715E-13  0.00000000000E+00 -0.25605854349E+03  0.53503504063E+03  0.46978347886E+03 0.  0.
      99925    2    3    3    0    0  0.11873117464E+03 -0.42054760984E+02 -0.17285646068E+03  0.33898456387E+03  0.26299331511E+03 0.  0.
         25    1    4    4    0    0  0.39823861962E+02  0.10054890694E+02 -0.54377162727E+02  0.14244797203E+03  0.12509000000E+03 0.  0.
         25    1    4    4    0    0  0.78907312676E+02 -0.52109651678E+02 -0.11847929795E+03  0.19653659185E+03  0.12509000000E+03 0.  0.
         25    1    3    3    0    0 -0.11873117464E+03  0.42054760984E+02 -0.83202082815E+02  0.19605047676E+03  0.12509000000E+03 0.  0.
<mgrwt>
<rscale>  2 0.46978348E+03</rscale>
<asrwt>0</asrwt>
<pdfrwt beam="1">  1       21 0.20512978E-01 0.46978348E+03</pdfrwt>
<pdfrwt beam="2">  1       21 0.58168644E-01 0.46978348E+03</pdfrwt>
<totfact> 0.56009866E+04</totfact>
</mgrwt>
</event>
<event>
 7    0  0.4766352E-002  0.4373611E+03  0.7546771E-02  0.1031560E+00
         21   -1    0    0  502  501  0.00000000000E+00  0.00000000000E+00  0.81337903873E+02  0.81337903873E+02  0.00000000000E+00 0.  1.
         21   -1    0    0  501  502 -0.00000000000E+00 -0.00000000000E+00 -0.58793242347E+03  0.58793242347E+03  0.00000000000E+00 0.  1.
      99926    2    1    2    0    0  0.00000000000E+00  0.27755575616E-15 -0.50659451959E+03  0.66927032734E+03  0.43736113656E+03 0.  0.
      99925    2    3    3    0    0  0.58230312520E+02 -0.34318966000E+00 -0.20775210651E+03  0.34011203254E+03  0.26291513811E+03 0.  0.
         25    1    4    4    0    0  0.12545263754E+02  0.36681246553E+02 -0.10581277413E+03  0.16836492735E+03  0.12509000000E+03 0.  0.
         25    1    4    4    0    0  0.45685048766E+02 -0.37024436213E+02 -0.10193933238E+03  0.17174710520E+03  0.12509000000E+03 0.  0.
         25    1    3    3    0    0 -0.58230312520E+02  0.34318966000E+00 -0.29884241309E+03  0.32915829480E+03  0.12509000000E+03 0.  0.
<mgrwt>
<rscale>  2 0.43736114E+03</rscale>
<asrwt>0</asrwt>
<pdfrwt beam="1">  1       21 0.11961457E-01 0.43736114E+03</pdfrwt>
<pdfrwt beam="2">  1       21 0.86460650E-01 0.43736114E+03</pdfrwt>
<totfact> 0.62897715E+04</totfact>
</mgrwt>
</event>
<event>
 7    0  0.4766352E-002  0.4596228E+03  0.7546771E-02  0.1024891E+00
         21   -1    0    0  502  501  0.00000000000E+00  0.00000000000E+00  0.65968590694E+02  0.65968590694E+02  0.00000000000E+00 0. -1.
         21   -1    0    0  501  502 -0.00000000000E+00 -0.00000000000E+00 -0.80058237147E+03  0.80058237147E+03  0.00000000000E+00 0. -1.
      99926    2    1    2    0    0  0.14210854715E-13  0.00000000000E+00 -0.73461378078E+03  0.86655096217E+03  0.45962284878E+03 0.  0.
      99925    2    3    3    0    0  0.77362403255E+02  0.22990316506E+02 -0.62103202418E+03  0.67930294583E+03  0.26316956713E+03 0.  0.
         25    1    3    3    0    0 -0.77362403255E+02 -0.22990316506E+02 -0.11358175660E+03  0.18724801634E+03  0.12509000000E+03 0.  0.
         25    1    4    4    0    0  0.42782928841E+01  0.30237651110E+02 -0.25752012425E+03  0.28791794287E+03  0.12509000000E+03 0.  0.
         25    1    4    4    0    0  0.73084110371E+02 -0.72473346040E+01 -0.36351189993E+03  0.39138500295E+03  0.12509000000E+03 0.  0.
<mgrwt>
<rscale>  2 0.45962285E+03</rscale>
<asrwt>0</asrwt>
<pdfrwt beam="1">  1       21 0.97012636E-02 0.45962285E+03</pdfrwt>
<pdfrwt beam="2">  1       21 0.11773270E+00 0.45962285E+03</pdfrwt>
<totfact> 0.43122844E+04</totfact>
</mgrwt>
</event>
<event>
 7    0  0.4766352E-002  0.4573615E+03  0.7546771E-02  0.1025549E+00
         21   -1    0    0  502  501  0.00000000000E+00  0.00000000000E+00  0.92538270147E+03  0.92538270147E+03  0.00000000000E+00 0.  1.
         21   -1    0    0  501  502 -0.00000000000E+00 -0.00000000000E+00 -0.56511630253E+02  0.56511630253E+02  0.00000000000E+00 0.  1.
      99926    2    1    2    0    0  0.00000000000E+00  0.00000000000E+00  0.86887107121E+03  0.98189433172E+03  0.45736149846E+03 0.  0.
      99925    2    3    3    0    0 -0.73319739990E+02  0.74565474593E+02  0.44117059976E+03  0.52417062068E+03  0.26303525849E+03 0.  0.
         25    1    4    4    0    0 -0.19635887824E+02  0.15740943054E+02  0.26334528415E+03  0.29262876168E+03  0.12509000000E+03 0.  0.
         25    1    3    3    0    0  0.73319739990E+02 -0.74565474593E+02  0.42770047145E+03  0.45772371105E+03  0.12509000000E+03 0.  0.
         25    1    4    4    0    0 -0.53683852165E+02  0.58824531539E+02  0.17782531562E+03  0.23154185900E+03  0.12509000000E+03 0.  0.
<mgrwt>
<rscale>  2 0.45736150E+03</rscale>
<asrwt>0</asrwt>
<pdfrwt beam="1">  1       21 0.13608568E+00 0.45736150E+03</pdfrwt>
<pdfrwt beam="2">  1       21 0.83105344E-02 0.45736150E+03</pdfrwt>
<totfact> 0.39147754E+04</totfact>
</mgrwt>
</event>
<event>
 7    0  0.4766352E-002  0.4523515E+03  0.7546771E-02  0.1027023E+00
         21   -1    0    0  502  501  0.00000000000E+00  0.00000000000E+00  0.44437192435E+03  0.44437192435E+03  0.00000000000E+00 0. -1.
         21   -1    0    0  501  502 -0.00000000000E+00 -0.00000000000E+00 -0.11511857872E+03  0.11511857872E+03  0.00000000000E+00 0. -1.
      99926    2    1    2    0    0  0.00000000000E+00  0.71054273576E-14  0.32925334563E+03  0.55949050308E+03  0.45235147554E+03 0.  0.
      99925    2    3    3    0    0 -0.82988996217E+02  0.43111233764E+02  0.13427729111E+03  0.30967272568E+03  0.26290883239E+03 0.  0.
         25    1    4    4    0    0 -0.86228813475E+01  0.45797979310E+02  0.63189500995E+02  0.14768964123E+03  0.12509000000E+03 0.  0.
         25    1    3    3    0    0  0.82988996217E+02 -0.43111233764E+02  0.19497605452E+03  0.24981777740E+03  0.12509000000E+03 0.  0.
         25    1    4    4    0    0 -0.74366114869E+02 -0.26867455458E+01  0.71087790113E+02  0.16198308444E+03  0.12509000000E+03 0.  0.
<mgrwt>
<rscale>  2 0.45235148E+03</rscale>
<asrwt>0</asrwt>
<pdfrwt beam="1">  1       21 0.65348812E-01 0.45235148E+03</pdfrwt>
<pdfrwt beam="2">  1       21 0.16929203E-01 0.45235148E+03</pdfrwt>
<totfact> 0.62543703E+04</totfact>
</mgrwt>
</event>
<event>
 7    0  0.4766352E-002  0.4515538E+03  0.7546771E-02  0.1027260E+00
         21   -1    0    0  502  501  0.00000000000E+00  0.00000000000E+00  0.57897288728E+02  0.57897288728E+02  0.00000000000E+00 0. -1.
         21   -1    0    0  501  502 -0.00000000000E+00 -0.00000000000E+00 -0.88044207763E+03  0.88044207763E+03  0.00000000000E+00 0. -1.
      99926    2    1    2    0    0  0.00000000000E+00  0.71054273576E-14 -0.82254478890E+03  0.93833936635E+03  0.45155380267E+03 0.  0.
      99925    2    3    3    0    0 -0.51144581994E+02  0.56863573799E+02 -0.68327740842E+03  0.73612130173E+03  0.26297779321E+03 0.  0.
         25    1    4    4    0    0 -0.51710796981E+02  0.24506975665E+01 -0.38564216871E+03  0.40871432913E+03  0.12509000000E+03 0.  0.
         25    1    3    3    0    0  0.51144581994E+02 -0.56863573799E+02 -0.13926738048E+03  0.20221806462E+03  0.12509000000E+03 0.  0.
         25    1    4    4    0    0  0.56621498679E+00  0.54412876232E+02 -0.29763523970E+03  0.32740697261E+03  0.12509000000E+03 0.  0.
<mgrwt>
<rscale>  2 0.45155380E+03</rscale>
<asrwt>0</asrwt>
<pdfrwt beam="1">  1       21 0.85143078E-02 0.45155380E+03</pdfrwt>
<pdfrwt beam="2">  1       21 0.12947677E+00 0.45155380E+03</pdfrwt>
<totfact> 0.42757430E+04</totfact>
</mgrwt>
</event>
<event>
 7    0  0.4766352E-002  0.4584947E+03  0.7546771E-02  0.1025219E+00
         21   -1    0    0  502  501  0.00000000000E+00  0.00000000000E+00  0.35797287652E+02  0.35797287652E+02  0.00000000000E+00 0. -1.
         21   -1    0    0  501  502 -0.00000000000E+00 -0.00000000000E+00 -0.14681099745E+04  0.14681099745E+04  0.00000000000E+00 0. -1.
      99926    2    1    2    0    0  0.00000000000E+00  0.88817841970E-15 -0.14323126868E+04  0.15039072621E+04  0.45849473306E+03 0.  0.
      99925    2    3    3    0    0 -0.84734698502E+02  0.72615287944E+01 -0.11591750831E+04  0.11916824111E+04  0.26303497239E+03 0.  0.
         25    1    3    3    0    0  0.84734698502E+02 -0.72615287944E+01 -0.27313760366E+03  0.31222485097E+03  0.12509000000E+03 0.  0.
         25    1    4    4    0    0 -0.90458729298E+01  0.11110137801E+01 -0.42756775316E+03  0.44558361035E+03  0.12509000000E+03 0.  0.
         25    1    4    4    0    0 -0.75688825572E+02  0.61505150143E+01 -0.73160732999E+03  0.74609880080E+03  0.12509000000E+03 0.  0.
<mgrwt>
<rscale>  2 0.45849473E+03</rscale>
<asrwt>0</asrwt>
<pdfrwt beam="1">  1       21 0.52643075E-02 0.45849473E+03</pdfrwt>
<pdfrwt beam="2">  1       21 0.21589851E+00 0.45849473E+03</pdfrwt>
<totfact> 0.23051431E+04</totfact>
</mgrwt>
</event>
<event>
 7    0  0.4766352E-002  0.4635545E+03  0.7546771E-02  0.1023755E+00
         21   -1    0    0  502  501  0.00000000000E+00  0.00000000000E+00  0.14144639321E+03  0.14144639321E+03  0.00000000000E+00 0.  1.
         21   -1    0    0  501  502 -0.00000000000E+00 -0.00000000000E+00 -0.37979541870E+03  0.37979541870E+03  0.00000000000E+00 0.  1.
      99926    2    1    2    0    0  0.00000000000E+00 -0.35527136788E-14 -0.23834902549E+03  0.52124181191E+03  0.46355449359E+03 0.  0.
      99925    2    3    3    0    0 -0.37237274692E+02 -0.16987499939E+02 -0.20864820219E+02  0.26703308384E+03  0.26305158689E+03 0.  0.
         25    1    4    4    0    0 -0.16361779069E+02 -0.18744913359E+02  0.28922908836E+02  0.13077890635E+03  0.12509000000E+03 0.  0.
         25    1    3    3    0    0  0.37237274692E+02  0.16987499939E+02 -0.21748420527E+03  0.25420872807E+03  0.12509000000E+03 0.  0.
         25    1    4    4    0    0 -0.20875495623E+02  0.17574134200E+01 -0.49787729055E+02  0.13625417749E+03  0.12509000000E+03 0.  0.
<mgrwt>
<rscale>  2 0.46355449E+03</rscale>
<asrwt>0</asrwt>
<pdfrwt beam="1">  1       21 0.20800941E-01 0.46355449E+03</pdfrwt>
<pdfrwt beam="2">  1       21 0.55852267E-01 0.46355449E+03</pdfrwt>
<totfact> 0.59649833E+04</totfact>
</mgrwt>
</event>
<event>
 7    0  0.4766352E-002  0.4588783E+03  0.7546771E-02  0.1025107E+00
         21   -1    0    0  502  501  0.00000000000E+00  0.00000000000E+00  0.25861783926E+03  0.25861783926E+03  0.00000000000E+00 0. -1.
         21   -1    0    0  501  502 -0.00000000000E+00 -0.00000000000E+00 -0.20355252105E+03  0.20355252105E+03  0.00000000000E+00 0. -1.
      99926    2    1    2    0    0 -0.17763568394E-14  0.00000000000E+00  0.55065318212E+02  0.46217036031E+03  0.45887825475E+03 0.  0.
      99925    2    3    3    0    0  0.84123451683E+01  0.86403516209E+02  0.11326725322E+03  0.29916327917E+03  0.26293128720E+03 0.  0.
         25    1    4    4    0    0  0.14558726964E+02  0.67024744860E+01  0.32806379303E+02  0.13030980899E+03  0.12509000000E+03 0.  0.
         25    1    4    4    0    0 -0.61463817955E+01  0.79701041723E+02  0.80460873919E+02  0.16885347018E+03  0.12509000000E+03 0.  0.
         25    1    3    3    0    0 -0.84123451683E+01 -0.86403516209E+02 -0.58201935010E+02  0.16300708115E+03  0.12509000000E+03 0.  0.
<mgrwt>
<rscale>  2 0.45887825E+03</rscale>
<asrwt>0</asrwt>
<pdfrwt beam="1">  1       21 0.38032035E-01 0.45887825E+03</pdfrwt>
<pdfrwt beam="2">  1       21 0.29934194E-01 0.45887825E+03</pdfrwt>
<totfact> 0.65958872E+04</totfact>
</mgrwt>
</event>
<event>
 7    0  0.4766352E-002  0.4567573E+03  0.7546771E-02  0.1025726E+00
         21   -1    0    0  502  501  0.00000000000E+00  0.00000000000E+00  0.98144891000E+03  0.98144891000E+03  0.00000000000E+00 0.  1.
         21   -1    0    0  501  502 -0.00000000000E+00 -0.00000000000E+00 -0.53142666460E+02  0.53142666460E+02  0.00000000000E+00 0.  1.
      99926    2    1    2    0    0  0.17763568394E-14  0.00000000000E+00  0.92830624354E+03  0.10345915765E+04  0.45675731881E+03 0.  0.
      99925    2    3    3    0    0 -0.23424158297E+01  0.94354022527E+02  0.43513234703E+03  0.51712064126E+03  0.26299321228E+03 0.  0.
         25    1    3    3    0    0  0.23424158297E+01 -0.94354022527E+02  0.49317389651E+03  0.51747093520E+03  0.12509000000E+03 0.  0.
         25    1    4    4    0    0 -0.25508724909E+02  0.51886224601E+02  0.27983075782E+03  0.31192248472E+03  0.12509000000E+03 0.  0.
         25    1    4    4    0    0  0.23166309079E+02  0.42467797926E+02  0.15530158921E+03  0.20519815654E+03  0.12509000000E+03 0.  0.
<mgrwt>
<rscale>  2 0.45675732E+03</rscale>
<asrwt>0</asrwt>
<pdfrwt beam="1">  1       21 0.14433071E+00 0.45675732E+03</pdfrwt>
<pdfrwt beam="2">  1       21 0.78150987E-02 0.45675732E+03</pdfrwt>
<totfact> 0.37333116E+04</totfact>
</mgrwt>
</event>
<event>
 7    0  0.4766352E-002  0.4471161E+03  0.7546771E-02  0.1028586E+00
         21   -1    0    0  502  501  0.00000000000E+00  0.00000000000E+00  0.30876168823E+02  0.30876168823E+02  0.00000000000E+00 0.  1.
         21   -1    0    0  501  502 -0.00000000000E+00 -0.00000000000E+00 -0.16186658468E+04  0.16186658468E+04  0.00000000000E+00 0.  1.
      99926    2    1    2    0    0 -0.17763568394E-14  0.00000000000E+00 -0.15877896780E+04  0.16495420157E+04  0.44711609211E+03 0.  0.
      99925    2    3    3    0    0 -0.13053459379E+02  0.51430271839E+02 -0.66987085841E+03  0.72162071881E+03  0.26304757974E+03 0.  0.
         25    1    3    3    0    0  0.13053459379E+02 -0.51430271839E+02 -0.91791881959E+03  0.92792129684E+03  0.12509000000E+03 0.  0.
         25    1    4    4    0    0  0.36605780950E+01 -0.73269323283E+01 -0.37814515030E+03  0.39838216145E+03  0.12509000000E+03 0.  0.
         25    1    4    4    0    0 -0.16714037474E+02  0.58757204167E+02 -0.29172570811E+03  0.32323855736E+03  0.12509000000E+03 0.  0.
<mgrwt>
<rscale>  2 0.44711609E+03</rscale>
<asrwt>0</asrwt>
<pdfrwt beam="1">  1       21 0.45406112E-02 0.44711609E+03</pdfrwt>
<pdfrwt beam="2">  1       21 0.23803919E+00 0.44711609E+03</pdfrwt>
<totfact> 0.21626944E+04</totfact>
</mgrwt>
</event>
<event>
 7    0  0.4766352E-002  0.4504201E+03  0.7546771E-02  0.1027597E+00
         21   -1    0    0  502  501  0.00000000000E+00  0.00000000000E+00  0.73422872775E+02  0.73422872775E+02  0.00000000000E+00 0. -1.
         21   -1    0    0  501  502 -0.00000000000E+00 -0.00000000000E+00 -0.69078685793E+03  0.69078685793E+03  0.00000000000E+00 0. -1.
      99926    2    1    2    0    0  0.00000000000E+00  0.00000000000E+00 -0.61736398515E+03  0.76420973070E+03  0.45042005099E+03 0.  0.
      99925    2    3    3    0    0 -0.97168054047E+02  0.68633471572E+01 -0.47203561994E+03  0.54913630581E+03  0.26314315420E+03 0.  0.
         25    1    4    4    0    0 -0.63560004255E+02  0.11148018642E+02 -0.31851136823E+03  0.34822572026E+03  0.12509000000E+03 0.  0.
         25    1    3    3    0    0  0.97168054047E+02 -0.68633471572E+01 -0.14532836521E+03  0.21507342489E+03  0.12509000000E+03 0.  0.
         25    1    4    4    0    0 -0.33608049792E+02 -0.42846714843E+01 -0.15352425172E+03  0.20091058555E+03  0.12509000000E+03 0.  0.
<mgrwt>
<rscale>  2 0.45042005E+03</rscale>
<asrwt>0</asrwt>
<pdfrwt beam="1">  1       21 0.10797482E-01 0.45042005E+03</pdfrwt>
<pdfrwt beam="2">  1       21 0.10158630E+00 0.45042005E+03</pdfrwt>
<totfact> 0.51366640E+04</totfact>
</mgrwt>
</event>
<event>
 7    0  0.4766352E-002  0.4513253E+03  0.7546771E-02  0.1027328E+00
         21   -1    0    0  502  501  0.00000000000E+00  0.00000000000E+00  0.96796818872E+02  0.96796818872E+02  0.00000000000E+00 0.  1.
         21   -1    0    0  501  502 -0.00000000000E+00 -0.00000000000E+00 -0.52608776908E+03  0.52608776908E+03  0.00000000000E+00 0.  1.
      99926    2    1    2    0    0 -0.71054273576E-14  0.00000000000E+00 -0.42929095021E+03  0.62288458795E+03  0.45132525963E+03 0.  0.
      99925    2    3    3    0    0 -0.63147363497E+02 -0.83227562341E+02 -0.22487397039E+03  0.36144965076E+03  0.26298884163E+03 0.  0.
         25    1    4    4    0    0 -0.18541261164E+02 -0.17539005961E+01 -0.11349957052E+03  0.16993091284E+03  0.12509000000E+03 0.  0.
         25    1    4    4    0    0 -0.44606102332E+02 -0.81473661745E+02 -0.11137439988E+03  0.19151873791E+03  0.12509000000E+03 0.  0.
         25    1    3    3    0    0  0.63147363497E+02  0.83227562341E+02 -0.20441697982E+03  0.26143493720E+03  0.12509000000E+03 0.  0.
<mgrwt>
<rscale>  2 0.45132526E+03</rscale>
<asrwt>0</asrwt>
<pdfrwt beam="1">  1       21 0.14234826E-01 0.45132526E+03</pdfrwt>
<pdfrwt beam="2">  1       21 0.77365848E-01 0.45132526E+03</pdfrwt>
<totfact> 0.58984168E+04</totfact>
</mgrwt>
</event>
<event>
 6    0  0.4766352E-002  0.4559721E+03  0.7546771E-02  0.1025956E+00
         21   -1    0    0  502  501  0.00000000000E+00  0.00000000000E+00  0.57147674518E+03  0.57147674518E+03  0.00000000000E+00 0.  1.
         21   -1    0    0  501  502 -0.00000000000E+00 -0.00000000000E+00 -0.90953182582E+02  0.90953182582E+02  0.00000000000E+00 0.  1.
      99926    2    1    2    0    0  0.00000000000E+00  0.00000000000E+00  0.48052356260E+03  0.66242992777E+03  0.45597205505E+03 0.  0.
         25    1    3    3    0    0  0.27882733990E+02 -0.27394952203E+02  0.13649139335E+03  0.18922298703E+03  0.12509000000E+03 0.  0.
         25    1    3    3    0    0  0.23241983279E+02 -0.49454620074E+02  0.59358527878E+02  0.14885191354E+03  0.12509000000E+03 0.  0.
         25    1    3    3    0    0 -0.51124717269E+02  0.76849572276E+02  0.28467364137E+03  0.32435502719E+03  0.12509000000E+03 0.  0.
<mgrwt>
<rscale>  2 0.45597206E+03</rscale>
<asrwt>0</asrwt>
<pdfrwt beam="1">  1       21 0.84040696E-01 0.45597206E+03</pdfrwt>
<pdfrwt beam="2">  1       21 0.13375468E-01 0.45597206E+03</pdfrwt>
<totfact> 0.54570868E+04</totfact>
</mgrwt>
</event>
<event>
 7    0  0.4766352E-002  0.4586010E+03  0.7546771E-02  0.1025188E+00
         21   -1    0    0  502  501  0.00000000000E+00  0.00000000000E+00  0.21814339225E+04  0.21814339225E+04  0.00000000000E+00 0. -1.
         21   -1    0    0  501  502 -0.00000000000E+00 -0.00000000000E+00 -0.24102821612E+02  0.24102821612E+02  0.00000000000E+00 0. -1.
      99926    2    1    2    0    0  0.00000000000E+00  0.71054273576E-14  0.21573311009E+04  0.22055367441E+04  0.45860097118E+03 0.  0.
      99925    2    3    3    0    0  0.65101465724E+02 -0.61288499693E+02  0.17126470104E+04  0.17350200818E+04  0.26294566198E+03 0.  0.
         25    1    3    3    0    0 -0.65101465724E+02  0.61288499693E+02  0.44468409049E+03  0.47051666227E+03  0.12509000000E+03 0.  0.
         25    1    4    4    0    0  0.50490716705E+02 -0.68250131738E+02  0.98096457754E+03  0.99254541631E+03  0.12509000000E+03 0.  0.
         25    1    4    4    0    0  0.14610749020E+02  0.69616320453E+01  0.73168243286E+03  0.74247466554E+03  0.12509000000E+03 0.  0.
<mgrwt>
<rscale>  2 0.45860097E+03</rscale>
<asrwt>0</asrwt>
<pdfrwt beam="1">  1       21 0.32079897E+00 0.45860097E+03</pdfrwt>
<pdfrwt beam="2">  1       21 0.35445341E-02 0.45860097E+03</pdfrwt>
<totfact> 0.10342901E+04</totfact>
</mgrwt>
</event>
<event>
 7    0  0.4766352E-002  0.4348833E+03  0.7546771E-02  0.1032328E+00
         21   -1    0    0  502  501  0.00000000000E+00  0.00000000000E+00  0.95907165278E+03  0.95907165278E+03  0.00000000000E+00 0. -1.
         21   -1    0    0  501  502 -0.00000000000E+00 -0.00000000000E+00 -0.49298583362E+02  0.49298583362E+02  0.00000000000E+00 0. -1.
      99926    2    1    2    0    0  0.00000000000E+00  0.00000000000E+00  0.90977306942E+03  0.10083702361E+04  0.43488331228E+03 0.  0.
      99925    2    3    3    0    0  0.77708895418E+02 -0.24434282418E+02  0.47964004016E+03  0.55307073302E+03  0.26305315245E+03 0.  0.
         25    1    4    4    0    0  0.69774208810E+02  0.14685327536E+02  0.25785470645E+03  0.29533143550E+03  0.12509000000E+03 0.  0.
         25    1    3    3    0    0 -0.77708895418E+02  0.24434282418E+02  0.43013302926E+03  0.45529950312E+03  0.12509000000E+03 0.  0.
         25    1    4    4    0    0  0.79346866078E+01 -0.39119609954E+02  0.22178533371E+03  0.25773929752E+03  0.12509000000E+03 0.  0.
<mgrwt>
<rscale>  2 0.43488331E+03</rscale>
<asrwt>0</asrwt>
<pdfrwt beam="1">  1       21 0.14103994E+00 0.43488331E+03</pdfrwt>
<pdfrwt beam="2">  1       21 0.72497923E-02 0.43488331E+03</pdfrwt>
<totfact> 0.45595086E+04</totfact>
</mgrwt>
</event>
<event>
 7    0  0.4766352E-002  0.4232736E+03  0.7546771E-02  0.1036006E+00
         21   -1    0    0  502  501  0.00000000000E+00  0.00000000000E+00  0.78486906107E+02  0.78486906107E+02  0.00000000000E+00 0. -1.
         21   -1    0    0  501  502 -0.00000000000E+00 -0.00000000000E+00 -0.57067018519E+03  0.57067018519E+03  0.00000000000E+00 0. -1.
      99926    2    1    2    0    0  0.00000000000E+00  0.66613381478E-15 -0.49218327908E+03  0.64915709130E+03  0.42327361006E+03 0.  0.
      99925    2    3    3    0    0 -0.27298144219E+02  0.69464004215E+00 -0.20483430739E+03  0.33457385774E+03  0.26312905882E+03 0.  0.
         25    1    4    4    0    0 -0.24857092588E+02  0.10781323951E+02 -0.15113709777E+03  0.19805060571E+03  0.12509000000E+03 0.  0.
         25    1    4    4    0    0 -0.24410516308E+01 -0.10086683909E+02 -0.53697209622E+02  0.13652325204E+03  0.12509000000E+03 0.  0.
         25    1    3    3    0    0  0.27298144219E+02 -0.69464004215E+00 -0.28734897169E+03  0.31458323356E+03  0.12509000000E+03 0.  0.
<mgrwt>
<rscale>  2 0.42327361E+03</rscale>
<asrwt>0</asrwt>
<pdfrwt beam="1">  1       21 0.11542192E-01 0.42327361E+03</pdfrwt>
<pdfrwt beam="2">  1       21 0.83922089E-01 0.42327361E+03</pdfrwt>
<totfact> 0.72178440E+04</totfact>
</mgrwt>
</event>
<event>
 7    0  0.4766352E-002  0.4492626E+03  0.7546771E-02  0.1027942E+00
         21   -1    0    0  502  501  0.00000000000E+00  0.00000000000E+00  0.42075791553E+02  0.42075791553E+02  0.00000000000E+00 0.  1.
         21   -1    0    0  501  502 -0.00000000000E+00 -0.00000000000E+00 -0.11992460080E+04  0.11992460080E+04  0.00000000000E+00 0.  1.
      99926    2    1    2    0    0 -0.88817841970E-15  0.00000000000E+00 -0.11571702164E+04  0.12413217995E+04  0.44926261831E+03 0.  0.
      99925    2    3    3    0    0 -0.40050803303E+01  0.46178402603E+02 -0.46444059545E+03  0.53586427323E+03  0.26324317102E+03 0.  0.
         25    1    4    4    0    0 -0.18783287842E+02  0.59673031733E+02 -0.22359623623E+03  0.26373560164E+03  0.12509000000E+03 0.  0.
         25    1    4    4    0    0  0.14778207511E+02 -0.13494629130E+02 -0.24084435922E+03  0.27212867159E+03  0.12509000000E+03 0.  0.
         25    1    3    3    0    0  0.40050803303E+01 -0.46178402603E+02 -0.69272962098E+03  0.70545752631E+03  0.12509000000E+03 0.  0.
<mgrwt>
<rscale>  2 0.44926262E+03</rscale>
<asrwt>0</asrwt>
<pdfrwt beam="1">  1       21 0.61876163E-02 0.44926262E+03</pdfrwt>
<pdfrwt beam="2">  1       21 0.17635971E+00 0.44926262E+03</pdfrwt>
<totfact> 0.32285702E+04</totfact>
</mgrwt>
</event>
<event>
 7    0  0.4766352E-002  0.4690542E+03  0.7546771E-02  0.1022187E+00
         21   -1    0    0  502  501  0.00000000000E+00  0.00000000000E+00  0.52247498098E+02  0.52247498098E+02  0.00000000000E+00 0.  1.
         21   -1    0    0  501  502 -0.00000000000E+00 -0.00000000000E+00 -0.10527385919E+04  0.10527385919E+04  0.00000000000E+00 0.  1.
      99926    2    1    2    0    0  0.00000000000E+00  0.00000000000E+00 -0.10004910938E+04  0.11049860900E+04  0.46905418698E+03 0.  0.
      99925    2    3    3    0    0 -0.94574748609E+02  0.82757945961E+02 -0.61124047124E+03  0.67725157425E+03  0.26317583563E+03 0.  0.
         25    1    3    3    0    0  0.94574748609E+02 -0.82757945961E+02 -0.38925062260E+03  0.42773451578E+03  0.12509000000E+03 0.  0.
         25    1    4    4    0    0 -0.42692805258E+02  0.41951951159E+02 -0.39711512421E+03  0.42063115886E+03  0.12509000000E+03 0.  0.
         25    1    4    4    0    0 -0.51881943351E+02  0.40805994803E+02 -0.21412534702E+03  0.25662041539E+03  0.12509000000E+03 0.  0.
<mgrwt>
<rscale>  2 0.46905419E+03</rscale>
<asrwt>0</asrwt>
<pdfrwt beam="1">  1       21 0.76834547E-02 0.46905419E+03</pdfrwt>
<pdfrwt beam="2">  1       21 0.15481452E+00 0.46905419E+03</pdfrwt>
<totfact> 0.31701024E+04</totfact>
</mgrwt>
</event>
<event>
 7    0  0.4766352E-002  0.4535746E+03  0.7546771E-02  0.1026661E+00
         21   -1    0    0  502  501  0.00000000000E+00  0.00000000000E+00  0.28180811683E+03  0.28180811683E+03  0.00000000000E+00 0. -1.
         21   -1    0    0  501  502 -0.00000000000E+00 -0.00000000000E+00 -0.18250889800E+03  0.18250889800E+03  0.00000000000E+00 0. -1.
      99926    2    1    2    0    0  0.00000000000E+00  0.00000000000E+00  0.99299218823E+02  0.46431701483E+03  0.45357464149E+03 0.  0.
      99925    2    3    3    0    0  0.70809989968E+02 -0.43462132647E+02  0.13917850005E+03  0.30894366826E+03  0.26300669883E+03 0.  0.
         25    1    3    3    0    0 -0.70809989968E+02  0.43462132647E+02 -0.39879281231E+02  0.15537334657E+03  0.12509000000E+03 0.  0.
         25    1    4    4    0    0  0.36957795933E+02  0.92932616663E+01  0.37670247880E+02  0.13608379429E+03  0.12509000000E+03 0.  0.
         25    1    4    4    0    0  0.33852194036E+02 -0.52755394314E+02  0.10150825217E+03  0.17285987397E+03  0.12509000000E+03 0.  0.
<mgrwt>
<rscale>  2 0.45357464E+03</rscale>
<asrwt>0</asrwt>
<pdfrwt beam="1">  1       21 0.41442370E-01 0.45357464E+03</pdfrwt>
<pdfrwt beam="2">  1       21 0.26839544E-01 0.45357464E+03</pdfrwt>
<totfact> 0.68633938E+04</totfact>
</mgrwt>
</event>
<event>
 7    0  0.4766352E-002  0.4490281E+03  0.7546771E-02  0.1028012E+00
         21   -1    0    0  502  501  0.00000000000E+00  0.00000000000E+00  0.45112988785E+02  0.45112988785E+02  0.00000000000E+00 0. -1.
         21   -1    0    0  501  502 -0.00000000000E+00 -0.00000000000E+00 -0.11173402809E+04  0.11173402809E+04  0.00000000000E+00 0. -1.
      99926    2    1    2    0    0  0.17763568394E-14 -0.88817841970E-15 -0.10722272921E+04  0.11624532696E+04  0.44902810406E+03 0.  0.
      99925    2    3    3    0    0  0.11018969124E+02  0.55443437883E+01 -0.95478418116E+03  0.99042841728E+03  0.26302748855E+03 0.  0.
         25    1    4    4    0    0 -0.31861694968E+02  0.15436030593E+02 -0.43640320384E+03  0.45535557872E+03  0.12509000000E+03 0.  0.
         25    1    4    4    0    0  0.42880664092E+02 -0.98916868048E+01 -0.51838097732E+03  0.53507283857E+03  0.12509000000E+03 0.  0.
         25    1    3    3    0    0 -0.11018969124E+02 -0.55443437883E+01 -0.11744311091E+03  0.17202485235E+03  0.12509000000E+03 0.  0.
<mgrwt>
<rscale>  2 0.44902810E+03</rscale>
<asrwt>0</asrwt>
<pdfrwt beam="1">  1       21 0.66342640E-02 0.44902810E+03</pdfrwt>
<pdfrwt beam="2">  1       21 0.16431472E+00 0.44902810E+03</pdfrwt>
<totfact> 0.34968506E+04</totfact>
</mgrwt>
</event>
<event>
 7    0  0.4766352E-002  0.4568881E+03  0.7546771E-02  0.1025688E+00
         21   -1    0    0  502  501  0.00000000000E+00  0.00000000000E+00  0.40598134129E+03  0.40598134129E+03  0.00000000000E+00 0. -1.
         21   -1    0    0  501  502 -0.00000000000E+00 -0.00000000000E+00 -0.12854451658E+03  0.12854451658E+03  0.00000000000E+00 0. -1.
      99926    2    1    2    0    0  0.00000000000E+00  0.00000000000E+00  0.27743682471E+03  0.53452585787E+03  0.45688806182E+03 0.  0.
      99925    2    3    3    0    0 -0.39296674080E+02  0.35108081714E+02  0.29387196837E+03  0.39779828917E+03  0.26288008497E+03 0.  0.
         25    1    3    3    0    0  0.39296674080E+02 -0.35108081714E+02 -0.16435143670E+02  0.13672756870E+03  0.12509000000E+03 0.  0.
         25    1    4    4    0    0 -0.44713050186E+02 -0.40103868638E+00  0.10969219096E+03  0.17227681953E+03  0.12509000000E+03 0.  0.
         25    1    4    4    0    0  0.54163761069E+01  0.35509120400E+02  0.18417977741E+03  0.22552146964E+03  0.12509000000E+03 0.  0.
<mgrwt>
<rscale>  2 0.45688806E+03</rscale>
<asrwt>0</asrwt>
<pdfrwt beam="1">  1       21 0.59703138E-01 0.45688806E+03</pdfrwt>
<pdfrwt beam="2">  1       21 0.18903605E-01 0.45688806E+03</pdfrwt>
<totfact> 0.61968671E+04</totfact>
</mgrwt>
</event>
<event>
 7    0  0.4766352E-002  0.4555148E+03  0.7546771E-02  0.1026090E+00
         21   -1    0    0  502  501  0.00000000000E+00  0.00000000000E+00  0.23669391574E+02  0.23669391574E+02  0.00000000000E+00 0. -1.
         21   -1    0    0  501  502 -0.00000000000E+00 -0.00000000000E+00 -0.21915824741E+04  0.21915824741E+04  0.00000000000E+00 0. -1.
      99926    2    1    2    0    0  0.00000000000E+00  0.00000000000E+00 -0.21679130826E+04  0.22152518657E+04  0.45551475825E+03 0.  0.
      99925    2    3    3    0    0 -0.92944364683E+02 -0.64937829493E+02 -0.13219718342E+04  0.13526281468E+04  0.26294067107E+03 0.  0.
         25    1    4    4    0    0 -0.42267771915E+02 -0.36288920207E+02 -0.84792617649E+03  0.85891196239E+03  0.12509000000E+03 0.  0.
         25    1    4    4    0    0 -0.50676592768E+02 -0.28648909286E+02 -0.47404565767E+03  0.49371618437E+03  0.12509000000E+03 0.  0.
         25    1    3    3    0    0  0.92944364683E+02  0.64937829493E+02 -0.84594124841E+03  0.86262371895E+03  0.12509000000E+03 0.  0.
<mgrwt>
<rscale>  2 0.45551476E+03</rscale>
<asrwt>0</asrwt>
<pdfrwt beam="1">  1       21 0.34807917E-02 0.45551476E+03</pdfrwt>
<pdfrwt beam="2">  1       21 0.32229165E+00 0.45551476E+03</pdfrwt>
<totfact> 0.10461282E+04</totfact>
</mgrwt>
</event>
<event>
 7    0  0.4766352E-002  0.4404124E+03  0.7546771E-02  0.1030620E+00
         21   -1    0    0  502  501  0.00000000000E+00  0.00000000000E+00  0.28308953439E+03  0.28308953439E+03  0.00000000000E+00 0.  1.
         21   -1    0    0  501  502 -0.00000000000E+00 -0.00000000000E+00 -0.17129125520E+03  0.17129125520E+03  0.00000000000E+00 0.  1.
      99926    2    1    2    0    0  0.00000000000E+00  0.00000000000E+00  0.11179827919E+03  0.45438078960E+03  0.44041235987E+03 0.  0.
      99925    2    3    3    0    0 -0.28559897794E+02 -0.81177682118E+02  0.12156935923E+03  0.30223459036E+03  0.26298508450E+03 0.  0.
         25    1    3    3    0    0  0.28559897794E+02  0.81177682118E+02 -0.97710800431E+01  0.15214619923E+03  0.12509000000E+03 0.  0.
         25    1    4    4    0    0  0.21153862982E+02 -0.21908627362E+02  0.68823104066E+02  0.14598493630E+03  0.12509000000E+03 0.  0.
         25    1    4    4    0    0 -0.49713760775E+02 -0.59269054756E+02  0.52746255164E+02  0.15624965407E+03  0.12509000000E+03 0.  0.
<mgrwt>
<rscale>  2 0.44041236E+03</rscale>
<asrwt>0</asrwt>
<pdfrwt beam="1">  1       21 0.41630814E-01 0.44041236E+03</pdfrwt>
<pdfrwt beam="2">  1       21 0.25189890E-01 0.44041236E+03</pdfrwt>
<totfact> 0.77164935E+04</totfact>
</mgrwt>
</event>
<event>
 7    0  0.4766352E-002  0.4702634E+03  0.7546771E-02  0.1021846E+00
         21   -1    0    0  502  501  0.00000000000E+00  0.00000000000E+00  0.38505367946E+02  0.38505367946E+02  0.00000000000E+00 0. -1.
         21   -1    0    0  501  502 -0.00000000000E+00 -0.00000000000E+00 -0.14358233554E+04  0.14358233554E+04  0.00000000000E+00 0. -1.
      99926    2    1    2    0    0  0.00000000000E+00  0.35527136788E-14 -0.13973179875E+04  0.14743287234E+04  0.47026335858E+03 0.  0.
      99925    2    3    3    0    0 -0.46276070549E+02 -0.16854939770E+02 -0.12346364716E+04  0.12632876198E+04  0.26295024164E+03 0.  0.
         25    1    3    3    0    0  0.46276070549E+02  0.16854939770E+02 -0.16268151591E+03  0.21104110362E+03  0.12509000000E+03 0.  0.
         25    1    4    4    0    0 -0.35459478455E+02 -0.16539199651E+02 -0.80793152974E+03  0.81849360693E+03  0.12509000000E+03 0.  0.
         25    1    4    4    0    0 -0.10816592093E+02 -0.31574011883E+00 -0.42670494185E+03  0.44479401283E+03  0.12509000000E+03 0.  0.
<mgrwt>
<rscale>  2 0.47026336E+03</rscale>
<asrwt>0</asrwt>
<pdfrwt beam="1">  1       21 0.56625558E-02 0.47026336E+03</pdfrwt>
<pdfrwt beam="2">  1       21 0.21115043E+00 0.47026336E+03</pdfrwt>
<totfact> 0.21723348E+04</totfact>
</mgrwt>
</event>
<event>
 7    0  0.4766352E-002  0.4595569E+03  0.7546771E-02  0.1024910E+00
         21   -1    0    0  502  501  0.00000000000E+00  0.00000000000E+00  0.44831141811E+02  0.44831141811E+02  0.00000000000E+00 0.  1.
         21   -1    0    0  501  502 -0.00000000000E+00 -0.00000000000E+00 -0.11777109124E+04  0.11777109124E+04  0.00000000000E+00 0.  1.
      99926    2    1    2    0    0 -0.14210854715E-13  0.00000000000E+00 -0.11328797706E+04  0.12225420542E+04  0.45955685144E+03 0.  0.
      99925    2    3    3    0    0  0.72202378321E+02 -0.89959268128E+02 -0.77276282468E+03  0.82424872488E+03  0.26252185414E+03 0.  0.
         25    1    3    3    0    0 -0.72202378321E+02  0.89959268128E+02 -0.36011694590E+03  0.39829332932E+03  0.12509000000E+03 0.  0.
         25    1    4    4    0    0  0.54351890291E+00 -0.28280756460E+02 -0.30358990999E+03  0.32956704651E+03  0.12509000000E+03 0.  0.
         25    1    4    4    0    0  0.71658859418E+02 -0.61678511668E+02 -0.46917291469E+03  0.49468167837E+03  0.12509000000E+03 0.  0.
<mgrwt>
<rscale>  2 0.45955685E+03</rscale>
<asrwt>0</asrwt>
<pdfrwt beam="1">  1       21 0.65928153E-02 0.45955685E+03</pdfrwt>
<pdfrwt beam="2">  1       21 0.17319277E+00 0.45955685E+03</pdfrwt>
<totfact> 0.30357723E+04</totfact>
</mgrwt>
</event>
<event>
 7    0  0.4766352E-002  0.4574100E+03  0.7546771E-02  0.1025535E+00
         21   -1    0    0  502  501  0.00000000000E+00  0.00000000000E+00  0.43719688823E+02  0.43719688823E+02  0.00000000000E+00 0. -1.
         21   -1    0    0  501  502 -0.00000000000E+00 -0.00000000000E+00 -0.11963941242E+04  0.11963941242E+04  0.00000000000E+00 0. -1.
      99926    2    1    2    0    0  0.00000000000E+00  0.00000000000E+00 -0.11526744353E+04  0.12401138130E+04  0.45741000784E+03 0.  0.
      99925    2    3    3    0    0  0.23748523480E+02 -0.44773964547E+02 -0.44278955298E+03  0.51751243285E+03  0.26303579540E+03 0.  0.
         25    1    4    4    0    0 -0.82034682512E+01 -0.11839283645E+02 -0.28098555387E+03  0.30790884221E+03  0.12509000000E+03 0.  0.
         25    1    3    3    0    0 -0.23748523480E+02  0.44773964547E+02 -0.70988488236E+03  0.72260138014E+03  0.12509000000E+03 0.  0.
         25    1    4    4    0    0  0.31951991731E+02 -0.32934680901E+02 -0.16180399911E+03  0.20960359064E+03  0.12509000000E+03 0.  0.
<mgrwt>
<rscale>  2 0.45741001E+03</rscale>
<asrwt>0</asrwt>
<pdfrwt beam="1">  1       21 0.64293668E-02 0.45741001E+03</pdfrwt>
<pdfrwt beam="2">  1       21 0.17594029E+00 0.45741001E+03</pdfrwt>
<totfact> 0.30331622E+04</totfact>
</mgrwt>
</event>
<event>
 7    0  0.4766352E-002  0.4579449E+03  0.7546771E-02  0.1025379E+00
         21   -1    0    0  502  501  0.00000000000E+00  0.00000000000E+00  0.47488092649E+03  0.47488092649E+03  0.00000000000E+00 0.  1.
         21   -1    0    0  501  502 -0.00000000000E+00 -0.00000000000E+00 -0.11040321328E+03  0.11040321328E+03  0.00000000000E+00 0.  1.
      99926    2    1    2    0    0  0.00000000000E+00  0.00000000000E+00  0.36447771320E+03  0.58528413977E+03  0.45794488844E+03 0.  0.
      99925    2    3    3    0    0 -0.32263846287E+02 -0.10141936283E+03  0.16963288227E+03  0.33045309932E+03  0.26286325945E+03 0.  0.
         25    1    3    3    0    0  0.32263846287E+02  0.10141936283E+03  0.19484483093E+03  0.25483104045E+03  0.12509000000E+03 0.  0.
         25    1    4    4    0    0 -0.44861746328E+01 -0.10178325692E+02  0.86925463490E+02  0.15273266965E+03  0.12509000000E+03 0.  0.
         25    1    4    4    0    0 -0.27777671654E+02 -0.91241037138E+02  0.82707418778E+02  0.17772042967E+03  0.12509000000E+03 0.  0.
<mgrwt>
<rscale>  2 0.45794489E+03</rscale>
<asrwt>0</asrwt>
<pdfrwt beam="1">  1       21 0.69835430E-01 0.45794489E+03</pdfrwt>
<pdfrwt beam="2">  1       21 0.16235767E-01 0.45794489E+03</pdfrwt>
<totfact> 0.58226046E+04</totfact>
</mgrwt>
</event>
<event>
 7    0  0.4766352E-002  0.4549250E+03  0.7546771E-02  0.1026263E+00
         21   -1    0    0  502  501  0.00000000000E+00  0.00000000000E+00  0.22523396633E+04  0.22523396633E+04  0.00000000000E+00 0. -1.
         21   -1    0    0  501  502 -0.00000000000E+00 -0.00000000000E+00 -0.22971310819E+02  0.22971310819E+02  0.00000000000E+00 0. -1.
      99926    2    1    2    0    0  0.88817841970E-15  0.00000000000E+00  0.22293683525E+04  0.22753109741E+04  0.45492502449E+03 0.  0.
      99925    2    3    3    0    0 -0.38506106365E+01  0.12096669163E+02  0.84024186840E+03  0.88050595066E+03  0.26291286602E+03 0.  0.
         25    1    4    4    0    0  0.51966172113E+01 -0.87608278447E+01  0.54115395514E+03  0.55551675781E+03  0.12509000000E+03 0.  0.
         25    1    4    4    0    0 -0.90472278478E+01  0.20857497008E+02  0.29908791326E+03  0.32498919285E+03  0.12509000000E+03 0.  0.
         25    1    3    3    0    0  0.38506106365E+01 -0.12096669163E+02  0.13891264841E+04  0.13948050235E+04  0.12509000000E+03 0.  0.
<mgrwt>
<rscale>  2 0.45492502E+03</rscale>
<asrwt>0</asrwt>
<pdfrwt beam="1">  1       21 0.33122627E+00 0.45492502E+03</pdfrwt>
<pdfrwt beam="2">  1       21 0.33781355E-02 0.45492502E+03</pdfrwt>
<totfact> 0.97186922E+03</totfact>
</mgrwt>
</event>
<event>
 7    0  0.4766352E-002  0.4616515E+03  0.7546771E-02  0.1024303E+00
         21   -1    0    0  502  501  0.00000000000E+00  0.00000000000E+00  0.12442235435E+04  0.12442235435E+04  0.00000000000E+00 0.  1.
         21   -1    0    0  501  502 -0.00000000000E+00 -0.00000000000E+00 -0.42822301545E+02  0.42822301545E+02  0.00000000000E+00 0.  1.
      99926    2    1    2    0    0  0.00000000000E+00  0.00000000000E+00  0.12014012420E+04  0.12870458451E+04  0.46165145194E+03 0.  0.
      99925    2    3    3    0    0 -0.10100685545E+03  0.61561447239E+02  0.70876602839E+03  0.76519418185E+03  0.26302215935E+03 0.  0.
         25    1    4    4    0    0 -0.22634962417E+02  0.41005153295E+02  0.25960118384E+03  0.29194870589E+03  0.12509000000E+03 0.  0.
         25    1    3    3    0    0  0.10100685545E+03 -0.61561447239E+02  0.49263521358E+03  0.52185166321E+03  0.12509000000E+03 0.  0.
         25    1    4    4    0    0 -0.78371893030E+02  0.20556293944E+02  0.44916484454E+03  0.47324547595E+03  0.12509000000E+03 0.  0.
<mgrwt>
<rscale>  2 0.46165145E+03</rscale>
<asrwt>0</asrwt>
<pdfrwt beam="1">  1       21 0.18297403E+00 0.46165145E+03</pdfrwt>
<pdfrwt beam="2">  1       21 0.62973981E-02 0.46165145E+03</pdfrwt>
<totfact> 0.28014995E+04</totfact>
</mgrwt>
</event>
<event>
 7    0  0.4766352E-002  0.4564275E+03  0.7546771E-02  0.1025822E+00
         21   -1    0    0  502  501  0.00000000000E+00  0.00000000000E+00  0.67271035117E+03  0.67271035117E+03  0.00000000000E+00 0. -1.
         21   -1    0    0  501  502 -0.00000000000E+00 -0.00000000000E+00 -0.77420412392E+02  0.77420412392E+02  0.00000000000E+00 0. -1.
      99926    2    1    2    0    0 -0.35527136788E-14  0.00000000000E+00  0.59528993878E+03  0.75013076356E+03  0.45642748738E+03 0.  0.
      99925    2    3    3    0    0  0.20745264514E+02  0.28650084638E+02  0.55311814509E+03  0.61346635111E+03  0.26296404347E+03 0.  0.
         25    1    4    4    0    0  0.21197681614E+02  0.12402758041E-01  0.35905460063E+03  0.38081105051E+03  0.12509000000E+03 0.  0.
         25    1    3    3    0    0 -0.20745264514E+02 -0.28650084638E+02  0.42171793687E+02  0.13666441246E+03  0.12509000000E+03 0.  0.
         25    1    4    4    0    0 -0.45241709993E+00  0.28637681880E+02  0.19406354447E+03  0.23265530060E+03  0.12509000000E+03 0.  0.
<mgrwt>
<rscale>  2 0.45642749E+03</rscale>
<asrwt>0</asrwt>
<pdfrwt beam="1">  1       21 0.98927990E-01 0.45642749E+03</pdfrwt>
<pdfrwt beam="2">  1       21 0.11385355E-01 0.45642749E+03</pdfrwt>
<totfact> 0.49704258E+04</totfact>
</mgrwt>
</event>
<event>
 7    0  0.4766352E-002  0.4416728E+03  0.7546771E-02  0.1030235E+00
         21   -1    0    0  502  501  0.00000000000E+00  0.00000000000E+00  0.12992177171E+03  0.12992177171E+03  0.00000000000E+00 0.  1.
         21   -1    0    0  501  502 -0.00000000000E+00 -0.00000000000E+00 -0.37536990611E+03  0.37536990611E+03  0.00000000000E+00 0.  1.
      99926    2    1    2    0    0  0.00000000000E+00  0.00000000000E+00 -0.24544813440E+03  0.50529167782E+03  0.44167283479E+03 0.  0.
      99925    2    3    3    0    0  0.30782084706E+02 -0.16723601339E+02 -0.48890377116E+02  0.26968676355E+03  0.26289440062E+03 0.  0.
         25    1    3    3    0    0 -0.30782084706E+02  0.16723601339E+02 -0.19655775728E+03  0.23560491427E+03  0.12509000000E+03 0.  0.
         25    1    4    4    0    0 -0.20771533556E+02  0.34260705535E+00 -0.40275259456E+02  0.13304577637E+03  0.12509000000E+03 0.  0.
         25    1    4    4    0    0  0.51553618262E+02 -0.17066208395E+02 -0.86151176602E+01  0.13664098718E+03  0.12509000000E+03 0.  0.
<mgrwt>
<rscale>  2 0.44167283E+03</rscale>
<asrwt>0</asrwt>
<pdfrwt beam="1">  1       21 0.19106143E-01 0.44167283E+03</pdfrwt>
<pdfrwt beam="2">  1       21 0.55201457E-01 0.44167283E+03</pdfrwt>
<totfact> 0.72243812E+04</totfact>
</mgrwt>
</event>
<event>
 7    0  0.4766352E-002  0.4526003E+03  0.7546771E-02  0.1026949E+00
         21   -1    0    0  502  501  0.00000000000E+00  0.00000000000E+00  0.41482608335E+03  0.41482608335E+03  0.00000000000E+00 0. -1.
         21   -1    0    0  501  502 -0.00000000000E+00 -0.00000000000E+00 -0.12345355888E+03  0.12345355888E+03  0.00000000000E+00 0. -1.
      99926    2    1    2    0    0  0.00000000000E+00  0.14210854715E-13  0.29137252447E+03  0.53827964223E+03  0.45260029300E+03 0.  0.
      99925    2    3    3    0    0 -0.24024001515E+02  0.98197622408E+02  0.12947074913E+03  0.31007004854E+03  0.26298447563E+03 0.  0.
         25    1    4    4    0    0 -0.29050655969E+01  0.72179743642E+01  0.50530091825E+02  0.13513451387E+03  0.12509000000E+03 0.  0.
         25    1    3    3    0    0  0.24024001515E+02 -0.98197622408E+02  0.16190177533E+03  0.22820959369E+03  0.12509000000E+03 0.  0.
         25    1    4    4    0    0 -0.21118935918E+02  0.90979648044E+02  0.78940657309E+02  0.17493553467E+03  0.12509000000E+03 0.  0.
<mgrwt>
<rscale>  2 0.45260029E+03</rscale>
<asrwt>0</asrwt>
<pdfrwt beam="1">  1       21 0.61003835E-01 0.45260029E+03</pdfrwt>
<pdfrwt beam="2">  1       21 0.18154935E-01 0.45260029E+03</pdfrwt>
<totfact> 0.63851760E+04</totfact>
</mgrwt>
</event>
<event>
 7    0  0.4766352E-002  0.4612961E+03  0.7546771E-02  0.1024406E+00
         21   -1    0    0  502  501  0.00000000000E+00  0.00000000000E+00  0.78274812989E+02  0.78274812989E+02  0.00000000000E+00 0.  1.
         21   -1    0    0  501  502 -0.00000000000E+00 -0.00000000000E+00 -0.67963775066E+03  0.67963775066E+03  0.00000000000E+00 0.  1.
      99926    2    1    2    0    0  0.35527136788E-14  0.00000000000E+00 -0.60136293767E+03  0.75791256364E+03  0.46129607773E+03 0.  0.
      99925    2    3    3    0    0 -0.11841795489E+02 -0.87515494642E+02 -0.24542590532E+03  0.37043628177E+03  0.26303987136E+03 0.  0.
         25    1    4    4    0    0 -0.38538815894E+02 -0.40427692455E+02 -0.90999421416E+02  0.16446288775E+03  0.12509000000E+03 0.  0.
         25    1    3    3    0    0  0.11841795489E+02  0.87515494642E+02 -0.35593703234E+03  0.38747628187E+03  0.12509000000E+03 0.  0.
         25    1    4    4    0    0  0.26697020405E+02 -0.47087802188E+02 -0.15442648391E+03  0.20597339402E+03  0.12509000000E+03 0.  0.
<mgrwt>
<rscale>  2 0.46129608E+03</rscale>
<asrwt>0</asrwt>
<pdfrwt beam="1">  1       21 0.11511002E-01 0.46129608E+03</pdfrwt>
<pdfrwt beam="2">  1       21 0.99946727E-01 0.46129608E+03</pdfrwt>
<totfact> 0.47476178E+04</totfact>
</mgrwt>
</event>
<event>
 7    0  0.4766352E-002  0.4470973E+03  0.7546771E-02  0.1028591E+00
         21   -1    0    0  502  501  0.00000000000E+00  0.00000000000E+00  0.16868952771E+03  0.16868952771E+03  0.00000000000E+00 0. -1.
         21   -1    0    0  501  502 -0.00000000000E+00 -0.00000000000E+00 -0.29624835434E+03  0.29624835434E+03  0.00000000000E+00 0. -1.
      99926    2    1    2    0    0 -0.14210854715E-13  0.14210854715E-13 -0.12755882663E+03  0.46493788205E+03  0.44709728239E+03 0.  0.
      99925    2    3    3    0    0  0.73375252292E+02 -0.64503996397E+02 -0.43488261830E+02  0.28532702168E+03  0.26452899119E+03 0.  0.
         25    1    4    4    0    0  0.37219038513E+02 -0.34556401246E+02  0.21570173932E+02  0.13671935561E+03  0.12509000000E+03 0.  0.
         25    1    3    3    0    0 -0.73375252292E+02  0.64503996397E+02 -0.84070564798E+02  0.17961086038E+03  0.12509000000E+03 0.  0.
         25    1    4    4    0    0  0.36156213779E+02 -0.29947595152E+02 -0.65058435761E+02  0.14860766607E+03  0.12509000000E+03 0.  0.
<mgrwt>
<rscale>  2 0.44709728E+03</rscale>
<asrwt>0</asrwt>
<pdfrwt beam="1">  1       21 0.24807284E-01 0.44709728E+03</pdfrwt>
<pdfrwt beam="2">  1       21 0.43565934E-01 0.44709728E+03</pdfrwt>
<totfact> 0.72237878E+04</totfact>
</mgrwt>
</event>
<event>
 7    0  0.4766352E-002  0.4570148E+03  0.7546771E-02  0.1025651E+00
         21   -1    0    0  502  501  0.00000000000E+00  0.00000000000E+00  0.35307616271E+03  0.35307616271E+03  0.00000000000E+00 0.  1.
         21   -1    0    0  501  502 -0.00000000000E+00 -0.00000000000E+00 -0.14788774708E+03  0.14788774708E+03  0.00000000000E+00 0.  1.
      99926    2    1    2    0    0  0.00000000000E+00  0.00000000000E+00  0.20518841563E+03  0.50096390979E+03  0.45701482799E+03 0.  0.
      99925    2    3    3    0    0  0.78383821806E+02 -0.67677852782E+02  0.74004366867E+02  0.29220309443E+03  0.26302411829E+03 0.  0.
         25    1    3    3    0    0 -0.78383821806E+02  0.67677852782E+02  0.13118404876E+03  0.20876081535E+03  0.12509000000E+03 0.  0.
         25    1    4    4    0    0  0.12026406948E+02 -0.98509004939E+01  0.56888532220E+02  0.13829493086E+03  0.12509000000E+03 0.  0.
         25    1    4    4    0    0  0.66357414858E+02 -0.57826952288E+02  0.17115834647E+02  0.15390816357E+03  0.12509000000E+03 0.  0.
<mgrwt>
<rscale>  2 0.45701483E+03</rscale>
<asrwt>0</asrwt>
<pdfrwt beam="1">  1       21 0.51922965E-01 0.45701483E+03</pdfrwt>
<pdfrwt beam="2">  1       21 0.21748198E-01 0.45701483E+03</pdfrwt>
<totfact> 0.64170506E+04</totfact>
</mgrwt>
</event>
<event>
 7    0  0.4766352E-002  0.4559308E+03  0.7546771E-02  0.1025968E+00
         21   -1    0    0  502  501  0.00000000000E+00  0.00000000000E+00  0.87563623937E+02  0.87563623937E+02  0.00000000000E+00 0.  1.
         21   -1    0    0  501  502 -0.00000000000E+00 -0.00000000000E+00 -0.59349088212E+03  0.59349088212E+03  0.00000000000E+00 0.  1.
      99926    2    1    2    0    0  0.00000000000E+00 -0.49960036108E-15 -0.50592725818E+03  0.68105450605E+03  0.45593075093E+03 0.  0.
      99925    2    3    3    0    0  0.11379073369E+03  0.29875635833E+00 -0.32927675983E+03  0.43651140761E+03  0.26300304957E+03 0.  0.
         25    1    4    4    0    0  0.35775434079E+02  0.17421755012E+02 -0.20248349732E+03  0.24130991281E+03  0.12509000000E+03 0.  0.
         25    1    3    3    0    0 -0.11379073369E+03 -0.29875635833E+00 -0.17665049835E+03  0.24454309844E+03  0.12509000000E+03 0.  0.
         25    1    4    4    0    0  0.78015299610E+02 -0.17122998654E+02 -0.12679326251E+03  0.19520149480E+03  0.12509000000E+03 0.  0.
<mgrwt>
<rscale>  2 0.45593075E+03</rscale>
<asrwt>0</asrwt>
<pdfrwt beam="1">  1       21 0.12877004E-01 0.45593075E+03</pdfrwt>
<pdfrwt beam="2">  1       21 0.87278071E-01 0.45593075E+03</pdfrwt>
<totfact> 0.53550534E+04</totfact>
</mgrwt>
</event>
<event>
 7    0  0.4766352E-002  0.4544985E+03  0.7546771E-02  0.1026389E+00
         21   -1    0    0  502  501  0.00000000000E+00  0.00000000000E+00  0.10034726825E+04  0.10034726825E+04  0.00000000000E+00 0.  1.
         21   -1    0    0  501  502 -0.00000000000E+00 -0.00000000000E+00 -0.51463503560E+02  0.51463503560E+02  0.00000000000E+00 0.  1.
      99926    2    1    2    0    0 -0.14210854715E-13  0.00000000000E+00  0.95200917898E+03  0.10549361861E+04  0.45449849272E+03 0.  0.
      99925    2    3    3    0    0  0.97299805365E+02 -0.19588563998E+02  0.72351397062E+03  0.77617368448E+03  0.26291093328E+03 0.  0.
         25    1    3    3    0    0 -0.97299805365E+02  0.19588563998E+02  0.22849520836E+03  0.27876250162E+03  0.12509000000E+03 0.  0.
         25    1    4    4    0    0  0.60792064104E+02 -0.23990847406E+02  0.47513433035E+03  0.49565247482E+03  0.12509000000E+03 0.  0.
         25    1    4    4    0    0  0.36507741261E+02  0.44022834072E+01  0.24837964027E+03  0.28052120966E+03  0.12509000000E+03 0.  0.
<mgrwt>
<rscale>  2 0.45449849E+03</rscale>
<asrwt>0</asrwt>
<pdfrwt beam="1">  1       21 0.14756950E+00 0.45449849E+03</pdfrwt>
<pdfrwt beam="2">  1       21 0.75681629E-02 0.45449849E+03</pdfrwt>
<totfact> 0.37242345E+04</totfact>
</mgrwt>
</event>
<event>
 7    0  0.4766352E-002  0.4518805E+03  0.7546771E-02  0.1027163E+00
         21   -1    0    0  502  501  0.00000000000E+00  0.00000000000E+00  0.25640935617E+03  0.25640935617E+03  0.00000000000E+00 0.  1.
         21   -1    0    0  501  502 -0.00000000000E+00 -0.00000000000E+00 -0.19909174409E+03  0.19909174409E+03  0.00000000000E+00 0.  1.
      99926    2    1    2    0    0  0.14210854715E-13  0.00000000000E+00  0.57317612082E+02  0.45550110026E+03  0.45188045287E+03 0.  0.
      99925    2    3    3    0    0 -0.89225087557E+02  0.52031979749E+02  0.74758414413E+02  0.29234432641E+03  0.26307402284E+03 0.  0.
         25    1    4    4    0    0 -0.33749338404E+02 -0.12358297615E+02  0.20958167655E+02  0.13182753223E+03  0.12509000000E+03 0.  0.
         25    1    3    3    0    0  0.89225087557E+02 -0.52031979749E+02 -0.17440802331E+02  0.16315677385E+03  0.12509000000E+03 0.  0.
         25    1    4    4    0    0 -0.55475749153E+02  0.64390277364E+02  0.53800246758E+02  0.16051679418E+03  0.12509000000E+03 0.  0.
<mgrwt>
<rscale>  2 0.45188045E+03</rscale>
<asrwt>0</asrwt>
<pdfrwt beam="1">  1       21 0.37707258E-01 0.45188045E+03</pdfrwt>
<pdfrwt beam="2">  1       21 0.29278198E-01 0.45188045E+03</pdfrwt>
<totfact> 0.70240916E+04</totfact>
</mgrwt>
</event>
<event>
 7    0  0.4766352E-002  0.4603381E+03  0.7546771E-02  0.1024683E+00
         21   -1    0    0  502  501  0.00000000000E+00  0.00000000000E+00  0.33762584507E+02  0.33762584507E+02  0.00000000000E+00 0.  1.
         21   -1    0    0  501  502 -0.00000000000E+00 -0.00000000000E+00 -0.15691272021E+04  0.15691272021E+04  0.00000000000E+00 0.  1.
      99926    2    1    2    0    0  0.14210854715E-13 -0.14210854715E-13 -0.15353646176E+04  0.16028897867E+04  0.46033809212E+03 0.  0.
      99925    2    3    3    0    0  0.77266532557E+02 -0.68210919200E+02 -0.76198802792E+03  0.81271151298E+03  0.26315661134E+03 0.  0.
         25    1    3    3    0    0 -0.77266532557E+02  0.68210919200E+02 -0.77337658972E+03  0.79017827367E+03  0.12509000000E+03 0.  0.
         25    1    4    4    0    0  0.86913777697E+01 -0.43759069675E+02 -0.44182489527E+03  0.46135359802E+03  0.12509000000E+03 0.  0.
         25    1    4    4    0    0  0.68575154787E+02 -0.24451849525E+02 -0.32016313264E+03  0.35135791496E+03  0.12509000000E+03 0.  0.
<mgrwt>
<rscale>  2 0.46033809E+03</rscale>
<asrwt>0</asrwt>
<pdfrwt beam="1">  1       21 0.49650845E-02 0.46033809E+03</pdfrwt>
<pdfrwt beam="2">  1       21 0.23075407E+00 0.46033809E+03</pdfrwt>
<totfact> 0.20501526E+04</totfact>
</mgrwt>
</event>
<event>
 7    0  0.4766352E-002  0.4598985E+03  0.7546771E-02  0.1024811E+00
         21   -1    0    0  502  501  0.00000000000E+00  0.00000000000E+00  0.57255977301E+02  0.57255977301E+02  0.00000000000E+00 0.  1.
         21   -1    0    0  501  502 -0.00000000000E+00 -0.00000000000E+00 -0.92351324491E+03  0.92351324491E+03  0.00000000000E+00 0.  1.
      99926    2    1    2    0    0  0.00000000000E+00  0.00000000000E+00 -0.86625726761E+03  0.98076922221E+03  0.45989848179E+03 0.  0.
      99925    2    3    3    0    0  0.10819192579E+03 -0.45438520145E+02 -0.56134169968E+03  0.63092473736E+03  0.26304252221E+03 0.  0.
         25    1    4    4    0    0  0.67688143999E+02  0.67949196056E-01 -0.35108096180E+03  0.37879683115E+03  0.12509000000E+03 0.  0.
         25    1    3    3    0    0 -0.10819192579E+03  0.45438520145E+02 -0.30491556792E+03  0.34984448485E+03  0.12509000000E+03 0.  0.
         25    1    4    4    0    0  0.40503781787E+02 -0.45506469341E+02 -0.21026073788E+03  0.25212790620E+03  0.12509000000E+03 0.  0.
<mgrwt>
<rscale>  2 0.45989848E+03</rscale>
<asrwt>0</asrwt>
<pdfrwt beam="1">  1       21 0.84199969E-02 0.45989848E+03</pdfrwt>
<pdfrwt beam="2">  1       21 0.13581077E+00 0.45989848E+03</pdfrwt>
<totfact> 0.38426564E+04</totfact>
</mgrwt>
</event>
<event>
 7    0  0.4766352E-002  0.4553906E+03  0.7546771E-02  0.1026127E+00
         21   -1    0    0  502  501  0.00000000000E+00  0.00000000000E+00  0.10690116134E+03  0.10690116134E+03  0.00000000000E+00 0. -1.
         21   -1    0    0  501  502 -0.00000000000E+00 -0.00000000000E+00 -0.48498207913E+03  0.48498207913E+03  0.00000000000E+00 0. -1.
      99926    2    1    2    0    0  0.14210854715E-13  0.00000000000E+00 -0.37808091779E+03  0.59188324047E+03  0.45539059054E+03 0.  0.
      99925    2    3    3    0    0  0.10422706417E+03 -0.37554083682E+02 -0.20617200510E+03  0.35214635872E+03  0.26310943002E+03 0.  0.
         25    1    3    3    0    0 -0.10422706417E+03  0.37554083682E+02 -0.17190891269E+03  0.23973688175E+03  0.12509000000E+03 0.  0.
         25    1    4    4    0    0  0.55956774237E+02 -0.58077981159E+02 -0.12258390431E+03  0.19281735963E+03  0.12509000000E+03 0.  0.
         25    1    4    4    0    0  0.48270289937E+02  0.20523897477E+02 -0.83588100794E+02  0.15932899909E+03  0.12509000000E+03 0.  0.
<mgrwt>
<rscale>  2 0.45539059E+03</rscale>
<asrwt>0</asrwt>
<pdfrwt beam="1">  1       21 0.15720759E-01 0.45539059E+03</pdfrwt>
<pdfrwt beam="2">  1       21 0.71320894E-01 0.45539059E+03</pdfrwt>
<totfact> 0.58998343E+04</totfact>
</mgrwt>
</event>
<event>
 7    0  0.4766352E-002  0.4529411E+03  0.7546771E-02  0.1026849E+00
         21   -1    0    0  502  501  0.00000000000E+00  0.00000000000E+00  0.37209178162E+02  0.37209178162E+02  0.00000000000E+00 0.  1.
         21   -1    0    0  501  502 -0.00000000000E+00 -0.00000000000E+00 -0.13783938740E+04  0.13783938740E+04  0.00000000000E+00 0.  1.
      99926    2    1    2    0    0  0.00000000000E+00 -0.71054273576E-14 -0.13411846958E+04  0.14156030521E+04  0.45294107005E+03 0.  0.
      99925    2    3    3    0    0 -0.83389949721E+02 -0.62096786874E+02 -0.96936202620E+03  0.10097588697E+04  0.26294551243E+03 0.  0.
         25    1    4    4    0    0 -0.56014050671E+02 -0.70275652399E+02 -0.55602376955E+03  0.57696289447E+03  0.12509000000E+03 0.  0.
         25    1    4    4    0    0 -0.27375899051E+02  0.81788655246E+01 -0.41333825666E+03  0.43279597527E+03  0.12509000000E+03 0.  0.
         25    1    3    3    0    0  0.83389949721E+02  0.62096786874E+02 -0.37182266961E+03  0.40584418240E+03  0.12509000000E+03 0.  0.
<mgrwt>
<rscale>  2 0.45294107E+03</rscale>
<asrwt>0</asrwt>
<pdfrwt beam="1">  1       21 0.54719369E-02 0.45294107E+03</pdfrwt>
<pdfrwt beam="2">  1       21 0.20270502E+00 0.45294107E+03</pdfrwt>
<totfact> 0.26338037E+04</totfact>
</mgrwt>
</event>
<event>
 7    0  0.4766352E-002  0.4549720E+03  0.7546771E-02  0.1026250E+00
         21   -1    0    0  502  501  0.00000000000E+00  0.00000000000E+00  0.29612723465E+03  0.29612723465E+03  0.00000000000E+00 0. -1.
         21   -1    0    0  501  502 -0.00000000000E+00 -0.00000000000E+00 -0.17475554036E+03  0.17475554036E+03  0.00000000000E+00 0. -1.
      99926    2    1    2    0    0 -0.71054273576E-14  0.00000000000E+00  0.12137169429E+03  0.47088277501E+03  0.45497197675E+03 0.  0.
      99925    2    3    3    0    0  0.61745279310E+02 -0.82723484597E+02  0.12416968668E+03  0.30867614357E+03  0.26307260614E+03 0.  0.
         25    1    3    3    0    0 -0.61745279310E+02  0.82723484597E+02 -0.27979923855E+01  0.16220663144E+03  0.12509000000E+03 0.  0.
         25    1    4    4    0    0 -0.10356126668E+01 -0.28724615359E+02  0.83934731700E+02  0.15335815370E+03  0.12509000000E+03 0.  0.
         25    1    4    4    0    0  0.62780891976E+02 -0.53998869238E+02  0.40234954975E+02  0.15531798987E+03  0.12509000000E+03 0.  0.
<mgrwt>
<rscale>  2 0.45497198E+03</rscale>
<asrwt>0</asrwt>
<pdfrwt beam="1">  1       21 0.43548123E-01 0.45497198E+03</pdfrwt>
<pdfrwt beam="2">  1       21 0.25699344E-01 0.45497198E+03</pdfrwt>
<totfact> 0.67385091E+04</totfact>
</mgrwt>
</event>
<event>
 7    0  0.4766352E-002  0.4481412E+03  0.7546771E-02  0.1028278E+00
         21   -1    0    0  502  501  0.00000000000E+00  0.00000000000E+00  0.68110486725E+03  0.68110486725E+03  0.00000000000E+00 0.  1.
         21   -1    0    0  501  502 -0.00000000000E+00 -0.00000000000E+00 -0.73714985924E+02  0.73714985924E+02  0.00000000000E+00 0.  1.
      99926    2    1    2    0    0  0.00000000000E+00  0.00000000000E+00  0.60738988133E+03  0.75481985317E+03  0.44814120856E+03 0.  0.
      99925    2    3    3    0    0 -0.99445236536E+02  0.16346949205E+02  0.44292348843E+03  0.52492144015E+03  0.26306790741E+03 0.  0.
         25    1    3    3    0    0  0.99445236536E+02 -0.16346949205E+02  0.16446639289E+03  0.22989841302E+03  0.12509000000E+03 0.  0.
         25    1    4    4    0    0 -0.26143661395E+02  0.99870814501E+01  0.27205678673E+03  0.30074180975E+03  0.12509000000E+03 0.  0.
         25    1    4    4    0    0 -0.73301575141E+02  0.63598677550E+01  0.17086670170E+03  0.22417963040E+03  0.12509000000E+03 0.  0.
<mgrwt>
<rscale>  2 0.44814121E+03</rscale>
<asrwt>0</asrwt>
<pdfrwt beam="1">  1       21 0.10016248E+00 0.44814121E+03</pdfrwt>
<pdfrwt beam="2">  1       21 0.10840439E-01 0.44814121E+03</pdfrwt>
<totfact> 0.52814326E+04</totfact>
</mgrwt>
</event>
<event>
 7    0  0.4766352E-002  0.4532816E+03  0.7546771E-02  0.1026748E+00
         21   -1    0    0  502  501  0.00000000000E+00  0.00000000000E+00  0.42477305560E+03  0.42477305560E+03  0.00000000000E+00 0. -1.
         21   -1    0    0  501  502 -0.00000000000E+00 -0.00000000000E+00 -0.12092586499E+03  0.12092586499E+03  0.00000000000E+00 0. -1.
      99926    2    1    2    0    0  0.00000000000E+00  0.00000000000E+00  0.30384719061E+03  0.54569892059E+03  0.45328158654E+03 0.  0.
      99925    2    3    3    0    0  0.44687106635E+02 -0.10006560516E+03  0.16649877942E+03  0.33000896489E+03  0.26300952554E+03 0.  0.
         25    1    4    4    0    0  0.38316986863E+02 -0.11108055401E+02  0.76025225987E+02  0.15171988486E+03  0.12509000000E+03 0.  0.
         25    1    3    3    0    0 -0.44687106635E+02  0.10006560516E+03  0.13734841119E+03  0.21568995570E+03  0.12509000000E+03 0.  0.
         25    1    4    4    0    0  0.63701197719E+01 -0.88957549760E+02  0.90473553434E+02  0.17828908003E+03  0.12509000000E+03 0.  0.
<mgrwt>
<rscale>  2 0.45328159E+03</rscale>
<asrwt>0</asrwt>
<pdfrwt beam="1">  1       21 0.62466625E-01 0.45328159E+03</pdfrwt>
<pdfrwt beam="2">  1       21 0.17783216E-01 0.45328159E+03</pdfrwt>
<totfact> 0.63003956E+04</totfact>
</mgrwt>
</event>
<event>
 7    0  0.4766352E-002  0.4570711E+03  0.7546771E-02  0.1025634E+00
         21   -1    0    0  502  501  0.00000000000E+00  0.00000000000E+00  0.12639074893E+03  0.12639074893E+03  0.00000000000E+00 0. -1.
         21   -1    0    0  501  502 -0.00000000000E+00 -0.00000000000E+00 -0.41323039019E+03  0.41323039019E+03  0.00000000000E+00 0. -1.
      99926    2    1    2    0    0  0.00000000000E+00  0.00000000000E+00 -0.28683964126E+03  0.53962113911E+03  0.45707110385E+03 0.  0.
      99925    2    3    3    0    0  0.94771931688E+02 -0.51053983764E+02 -0.13193875415E+03  0.31328064070E+03  0.26296139773E+03 0.  0.
         25    1    3    3    0    0 -0.94771931688E+02  0.51053983764E+02 -0.15490088712E+03  0.22634049842E+03  0.12509000000E+03 0.  0.
         25    1    4    4    0    0  0.58839501719E+01 -0.14686249082E+02 -0.50914749272E+02  0.13597840481E+03  0.12509000000E+03 0.  0.
         25    1    4    4    0    0  0.88887981516E+02 -0.36367734682E+02 -0.81024004874E+02  0.17730223588E+03  0.12509000000E+03 0.  0.
<mgrwt>
<rscale>  2 0.45707110E+03</rscale>
<asrwt>0</asrwt>
<pdfrwt beam="1">  1       21 0.18586875E-01 0.45707110E+03</pdfrwt>
<pdfrwt beam="2">  1       21 0.60769175E-01 0.45707110E+03</pdfrwt>
<totfact> 0.61542656E+04</totfact>
</mgrwt>
</event>
<event>
 7    0  0.4766352E-002  0.4530337E+03  0.7546771E-02  0.1026821E+00
         21   -1    0    0  502  501  0.00000000000E+00  0.00000000000E+00  0.21652002214E+04  0.21652002214E+04  0.00000000000E+00 0. -1.
         21   -1    0    0  501  502 -0.00000000000E+00 -0.00000000000E+00 -0.23697519852E+02  0.23697519852E+02  0.00000000000E+00 0. -1.
      99926    2    1    2    0    0  0.00000000000E+00  0.00000000000E+00  0.21415027015E+04  0.21888977412E+04  0.45303366422E+03 0.  0.
      99925    2    3    3    0    0 -0.10681675359E+03 -0.15613222270E+02  0.12184856546E+04  0.12512082571E+04  0.26298521006E+03 0.  0.
         25    1    3    3    0    0  0.10681675359E+03  0.15613222270E+02  0.92301704694E+03  0.93768948410E+03  0.12509000000E+03 0.  0.
         25    1    4    4    0    0 -0.76510342106E+02 -0.35334703955E+02  0.74683224419E+03  0.76191094152E+03  0.12509000000E+03 0.  0.
         25    1    4    4    0    0 -0.30306411486E+02  0.19721481685E+02  0.47165341042E+03  0.48929731562E+03  0.12509000000E+03 0.  0.
<mgrwt>
<rscale>  2 0.45303366E+03</rscale>
<asrwt>0</asrwt>
<pdfrwt beam="1">  1       21 0.31841166E+00 0.45303366E+03</pdfrwt>
<pdfrwt beam="2">  1       21 0.34849309E-02 0.45303366E+03</pdfrwt>
<totfact> 0.11031301E+04</totfact>
</mgrwt>
</event>
<event>
 7    0  0.4766352E-002  0.4544504E+03  0.7546771E-02  0.1026403E+00
         21   -1    0    0  502  501  0.00000000000E+00  0.00000000000E+00  0.45843484002E+02  0.45843484002E+02  0.00000000000E+00 0.  1.
         21   -1    0    0  501  502 -0.00000000000E+00 -0.00000000000E+00 -0.11262513745E+04  0.11262513745E+04  0.00000000000E+00 0.  1.
      99926    2    1    2    0    0  0.00000000000E+00  0.00000000000E+00 -0.10804078905E+04  0.11720948585E+04  0.45445037955E+03 0.  0.
      99925    2    3    3    0    0  0.27425932083E+02  0.96574828691E+02 -0.81075545460E+03  0.85834523926E+03  0.26335007749E+03 0.  0.
         25    1    3    3    0    0 -0.27425932083E+02 -0.96574828691E+02 -0.26965243590E+03  0.31374961924E+03  0.12509000000E+03 0.  0.
         25    1    4    4    0    0 -0.18897106970E+02  0.41195396639E+02 -0.46438452313E+03  0.48306796083E+03  0.12509000000E+03 0.  0.
         25    1    4    4    0    0  0.46323039053E+02  0.55379432052E+02 -0.34637093147E+03  0.37527727843E+03  0.12509000000E+03 0.  0.
<mgrwt>
<rscale>  2 0.45445038E+03</rscale>
<asrwt>0</asrwt>
<pdfrwt beam="1">  1       21 0.67416901E-02 0.45445038E+03</pdfrwt>
<pdfrwt beam="2">  1       21 0.16562517E+00 0.45445038E+03</pdfrwt>
<totfact> 0.33195113E+04</totfact>
</mgrwt>
</event>
<event>
 7    0  0.4766352E-002  0.4522667E+03  0.7546771E-02  0.1027048E+00
         21   -1    0    0  502  501  0.00000000000E+00  0.00000000000E+00  0.34531336095E+02  0.34531336095E+02  0.00000000000E+00 0. -1.
         21   -1    0    0  501  502 -0.00000000000E+00 -0.00000000000E+00 -0.14808663938E+04  0.14808663938E+04  0.00000000000E+00 0. -1.
      99926    2    1    2    0    0  0.00000000000E+00  0.00000000000E+00 -0.14463350577E+04  0.15153977299E+04  0.45226671403E+03 0.  0.
      99925    2    3    3    0    0 -0.32275451970E+02 -0.10580520677E+03 -0.92221407882E+03  0.96531886719E+03  0.26291683401E+03 0.  0.
         25    1    3    3    0    0  0.32275451970E+02  0.10580520677E+03 -0.52412097887E+03  0.55007886268E+03  0.12509000000E+03 0.  0.
         25    1    4    4    0    0 -0.99565202809E+01 -0.67358778661E+02 -0.34917854817E+03  0.37710675407E+03  0.12509000000E+03 0.  0.
         25    1    4    4    0    0 -0.22318931689E+02 -0.38446428114E+02 -0.57303553064E+03  0.58821211312E+03  0.12509000000E+03 0.  0.
<mgrwt>
<rscale>  2 0.45226671E+03</rscale>
<asrwt>0</asrwt>
<pdfrwt beam="1">  1       21 0.50781376E-02 0.45226671E+03</pdfrwt>
<pdfrwt beam="2">  1       21 0.21777447E+00 0.45226671E+03</pdfrwt>
<totfact> 0.23907789E+04</totfact>
</mgrwt>
</event>
<event>
 7    0  0.4766352E-002  0.4544272E+03  0.7546771E-02  0.1026410E+00
         21   -1    0    0  502  501  0.00000000000E+00  0.00000000000E+00  0.80815033235E+03  0.80815033235E+03  0.00000000000E+00 0. -1.
         21   -1    0    0  501  502 -0.00000000000E+00 -0.00000000000E+00 -0.63881694365E+02  0.63881694365E+02  0.00000000000E+00 0. -1.
      99926    2    1    2    0    0  0.00000000000E+00 -0.35527136788E-14  0.74426863799E+03  0.87203202672E+03  0.45442716702E+03 0.  0.
      99925    2    3    3    0    0 -0.70512853734E+02  0.19830571957E+02  0.30545628732E+03  0.40989665551E+03  0.26333706653E+03 0.  0.
         25    1    3    3    0    0  0.70512853734E+02 -0.19830571957E+02  0.43881235066E+03  0.46213537121E+03  0.12509000000E+03 0.  0.
         25    1    4    4    0    0 -0.38153303058E+02  0.48254047708E+02  0.17908048179E+03  0.22693931945E+03  0.12509000000E+03 0.  0.
         25    1    4    4    0    0 -0.32359550676E+02 -0.28423475751E+02  0.12637580553E+03  0.18295733606E+03  0.12509000000E+03 0.  0.
<mgrwt>
<rscale>  2 0.45442717E+03</rscale>
<asrwt>0</asrwt>
<pdfrwt beam="1">  1       21 0.11884563E+00 0.45442717E+03</pdfrwt>
<pdfrwt beam="2">  1       21 0.93943673E-02 0.45442717E+03</pdfrwt>
<totfact> 0.44665117E+04</totfact>
</mgrwt>
</event>
<event>
 7    0  0.4766352E-002  0.4516016E+03  0.7546771E-02  0.1027246E+00
         21   -1    0    0  502  501  0.00000000000E+00  0.00000000000E+00  0.48642723551E+03  0.48642723551E+03  0.00000000000E+00 0.  1.
         21   -1    0    0  501  502 -0.00000000000E+00 -0.00000000000E+00 -0.10481730979E+03  0.10481730979E+03  0.00000000000E+00 0.  1.
      99926    2    1    2    0    0  0.35527136788E-14 -0.22204460493E-15  0.38160992573E+03  0.59124454530E+03  0.45160156879E+03 0.  0.
      99925    2    3    3    0    0 -0.24508927500E+02  0.17667161016E+01  0.38110643861E+03  0.46376289795E+03  0.26311613244E+03 0.  0.
         25    1    4    4    0    0 -0.32053430717E+02  0.60003032892E+01  0.25518137417E+03  0.28605675640E+03  0.12509000000E+03 0.  0.
         25    1    4    4    0    0  0.75445032168E+01 -0.42335871875E+01  0.12592506444E+03  0.17770614154E+03  0.12509000000E+03 0.  0.
         25    1    3    3    0    0  0.24508927500E+02 -0.17667161016E+01  0.50348711806E+00  0.12748164735E+03  0.12509000000E+03 0.  0.
<mgrwt>
<rscale>  2 0.45160157E+03</rscale>
<asrwt>0</asrwt>
<pdfrwt beam="1">  1       21 0.71533416E-01 0.45160157E+03</pdfrwt>
<pdfrwt beam="2">  1       21 0.15414311E-01 0.45160157E+03</pdfrwt>
<totfact> 0.60838061E+04</totfact>
</mgrwt>
</event>
<event>
 7    0  0.4766352E-002  0.4671696E+03  0.7546771E-02  0.1022722E+00
         21   -1    0    0  502  501  0.00000000000E+00  0.00000000000E+00  0.90359702704E+02  0.90359702704E+02  0.00000000000E+00 0. -1.
         21   -1    0    0  501  502 -0.00000000000E+00 -0.00000000000E+00 -0.60382942368E+03  0.60382942368E+03  0.00000000000E+00 0. -1.
      99926    2    1    2    0    0  0.00000000000E+00  0.88817841970E-15 -0.51346972098E+03  0.69418912638E+03  0.46716955041E+03 0.  0.
      99925    2    3    3    0    0  0.11053968321E+03  0.67623939852E+01 -0.40351542879E+03  0.49418361144E+03  0.26292202078E+03 0.  0.
         25    1    4    4    0    0  0.12928044091E+02  0.12947630121E+02 -0.18485061722E+03  0.22394649860E+03  0.12509000000E+03 0.  0.
         25    1    3    3    0    0 -0.11053968321E+03 -0.67623939852E+01 -0.10995429218E+03  0.20000551494E+03  0.12509000000E+03 0.  0.
         25    1    4    4    0    0  0.97611639118E+02 -0.61852361357E+01 -0.21866481157E+03  0.27023711284E+03  0.12509000000E+03 0.  0.
<mgrwt>
<rscale>  2 0.46716955E+03</rscale>
<asrwt>0</asrwt>
<pdfrwt beam="1">  1       21 0.13288191E-01 0.46716955E+03</pdfrwt>
<pdfrwt beam="2">  1       21 0.88798446E-01 0.46716955E+03</pdfrwt>
<totfact> 0.48410945E+04</totfact>
</mgrwt>
</event>
<event>
 7    0  0.4766352E-002  0.4881510E+03  0.7546771E-02  0.1016919E+00
         21   -1    0    0  502  501  0.00000000000E+00  0.00000000000E+00  0.68089060083E+03  0.68089060083E+03  0.00000000000E+00 0. -1.
         21   -1    0    0  501  502 -0.00000000000E+00 -0.00000000000E+00 -0.87492558369E+02  0.87492558369E+02  0.00000000000E+00 0. -1.
      99926    2    1    2    0    0  0.00000000000E+00  0.00000000000E+00  0.59339804246E+03  0.76838315920E+03  0.48815104480E+03 0.  0.
      99925    2    3    3    0    0  0.82796006282E+02 -0.11529279486E+03  0.35552727344E+03  0.46444629395E+03  0.26298880318E+03 0.  0.
         25    1    4    4    0    0  0.24933189380E+02 -0.23727300895E+02  0.12088667307E+03  0.17732948025E+03  0.12509000000E+03 0.  0.
         25    1    3    3    0    0 -0.82796006282E+02  0.11529279486E+03  0.23787076902E+03  0.30393686525E+03  0.12509000000E+03 0.  0.
         25    1    4    4    0    0  0.57862816902E+02 -0.91565493967E+02  0.23464060037E+03  0.28711681369E+03  0.12509000000E+03 0.  0.
<mgrwt>
<rscale>  2 0.48815104E+03</rscale>
<asrwt>0</asrwt>
<pdfrwt beam="1">  1       21 0.10013097E+00 0.48815104E+03</pdfrwt>
<pdfrwt beam="2">  1       21 0.12866553E-01 0.48815104E+03</pdfrwt>
<totfact> 0.38337784E+04</totfact>
</mgrwt>
</event>
<event>
 7    0  0.4766352E-002  0.4541707E+03  0.7546771E-02  0.1026486E+00
         21   -1    0    0  502  501  0.00000000000E+00  0.00000000000E+00  0.72048996166E+02  0.72048996166E+02  0.00000000000E+00 0.  1.
         21   -1    0    0  501  502 -0.00000000000E+00 -0.00000000000E+00 -0.71573188362E+03  0.71573188362E+03  0.00000000000E+00 0.  1.
      99926    2    1    2    0    0  0.00000000000E+00  0.13322676296E-14 -0.64368288745E+03  0.78778087979E+03  0.45417073327E+03 0.  0.
      99925    2    3    3    0    0 -0.17684125982E+02 -0.19049997469E+01 -0.59758625458E+03  0.65328640035E+03  0.26335799188E+03 0.  0.
         25    1    3    3    0    0  0.17684125982E+02  0.19049997469E+01 -0.46096632873E+02  0.13449447943E+03  0.12509000000E+03 0.  0.
         25    1    4    4    0    0 -0.21898057564E+02  0.34550414735E+02 -0.26018481581E+03  0.29157658096E+03  0.12509000000E+03 0.  0.
         25    1    4    4    0    0  0.42139315819E+01 -0.36455414482E+02 -0.33740143877E+03  0.36170981940E+03  0.12509000000E+03 0.  0.
<mgrwt>
<rscale>  2 0.45417073E+03</rscale>
<asrwt>0</asrwt>
<pdfrwt beam="1">  1       21 0.10595441E-01 0.45417073E+03</pdfrwt>
<pdfrwt beam="2">  1       21 0.10525469E+00 0.45417073E+03</pdfrwt>
<totfact> 0.48677590E+04</totfact>
</mgrwt>
</event>
<event>
 7    0  0.4766352E-002  0.4485282E+03  0.7546771E-02  0.1028162E+00
         21   -1    0    0  502  501  0.00000000000E+00  0.00000000000E+00  0.70459905837E+02  0.70459905837E+02  0.00000000000E+00 0. -1.
         21   -1    0    0  501  502 -0.00000000000E+00 -0.00000000000E+00 -0.71380148770E+03  0.71380148770E+03  0.00000000000E+00 0. -1.
      99926    2    1    2    0    0  0.71054273576E-14  0.14210854715E-13 -0.64334158186E+03  0.78426139354E+03  0.44852819581E+03 0.  0.
      99925    2    3    3    0    0 -0.39679713968E+02 -0.99092660149E+02 -0.42041134742E+03  0.50724292389E+03  0.26297499463E+03 0.  0.
         25    1    3    3    0    0  0.39679713968E+02  0.99092660149E+02 -0.22293023445E+03  0.27701846965E+03  0.12509000000E+03 0.  0.
         25    1    4    4    0    0 -0.39470559624E+02 -0.39599187338E+02 -0.14831627681E+03  0.20191891140E+03  0.12509000000E+03 0.  0.
         25    1    4    4    0    0 -0.20915434417E+00 -0.59493472810E+02 -0.27209507061E+03  0.30532401249E+03  0.12509000000E+03 0.  0.
<mgrwt>
<rscale>  2 0.44852820E+03</rscale>
<asrwt>0</asrwt>
<pdfrwt beam="1">  1       21 0.10361751E-01 0.44852820E+03</pdfrwt>
<pdfrwt beam="2">  1       21 0.10497081E+00 0.44852820E+03</pdfrwt>
<totfact> 0.51081280E+04</totfact>
</mgrwt>
</event>
<event>
 7    0  0.4766352E-002  0.4455885E+03  0.7546771E-02  0.1029046E+00
         21   -1    0    0  502  501  0.00000000000E+00  0.00000000000E+00  0.23237502195E+03  0.23237502195E+03  0.00000000000E+00 0. -1.
         21   -1    0    0  501  502 -0.00000000000E+00 -0.00000000000E+00 -0.21360852225E+03  0.21360852225E+03  0.00000000000E+00 0. -1.
      99926    2    1    2    0    0  0.00000000000E+00 -0.14210854715E-13  0.18766499709E+02  0.44598354420E+03  0.44558853238E+03 0.  0.
      99925    2    3    3    0    0 -0.68247886891E+02 -0.76245337459E+02 -0.78530309081E+01  0.28219333369E+03  0.26286932483E+03 0.  0.
         25    1    4    4    0    0 -0.16513556598E+02 -0.23747721909E+01 -0.18821507771E+02  0.12759347299E+03  0.12509000000E+03 0.  0.
         25    1    3    3    0    0  0.68247886891E+02  0.76245337459E+02  0.26619530617E+02  0.16379021051E+03  0.12509000000E+03 0.  0.
         25    1    4    4    0    0 -0.51734330293E+02 -0.73870565268E+02  0.10968476863E+02  0.15459986070E+03  0.12509000000E+03 0.  0.
<mgrwt>
<rscale>  2 0.44558853E+03</rscale>
<asrwt>0</asrwt>
<pdfrwt beam="1">  1       21 0.34172798E-01 0.44558853E+03</pdfrwt>
<pdfrwt beam="2">  1       21 0.31413018E-01 0.44558853E+03</pdfrwt>
<totfact> 0.74662548E+04</totfact>
</mgrwt>
</event>
<event>
 7    0  0.4766352E-002  0.4340949E+03  0.7546771E-02  0.1032574E+00
         21   -1    0    0  502  501  0.00000000000E+00  0.00000000000E+00  0.87666813582E+02  0.87666813582E+02  0.00000000000E+00 0.  1.
         21   -1    0    0  501  502 -0.00000000000E+00 -0.00000000000E+00 -0.53737096168E+03  0.53737096168E+03  0.00000000000E+00 0.  1.
      99926    2    1    2    0    0  0.00000000000E+00  0.00000000000E+00 -0.44970414810E+03  0.62503777526E+03  0.43409492014E+03 0.  0.
      99925    2    3    3    0    0  0.42491201928E+02  0.78317794953E+02 -0.32296144068E+03  0.42591369025E+03  0.26298136841E+03 0.  0.
         25    1    3    3    0    0 -0.42491201928E+02 -0.78317794953E+02 -0.12674270741E+03  0.19912408501E+03  0.12509000000E+03 0.  0.
         25    1    4    4    0    0  0.73344241235E+01  0.78136581969E+02 -0.16742598559E+03  0.22324445787E+03  0.12509000000E+03 0.  0.
         25    1    4    4    0    0  0.35156777804E+02  0.18121298402E+00 -0.15553545509E+03  0.20266923238E+03  0.12509000000E+03 0.  0.
<mgrwt>
<rscale>  2 0.43409492E+03</rscale>
<asrwt>0</asrwt>
<pdfrwt beam="1">  1       21 0.12892179E-01 0.43409492E+03</pdfrwt>
<pdfrwt beam="2">  1       21 0.79025140E-01 0.43409492E+03</pdfrwt>
<totfact> 0.67655532E+04</totfact>
</mgrwt>
</event>
<event>
 7    0  0.4766352E-002  0.3908591E+03  0.7546771E-02  0.1046992E+00
         21   -1    0    0  502  501  0.00000000000E+00  0.00000000000E+00  0.26342209427E+03  0.26342209427E+03  0.00000000000E+00 0. -1.
         21   -1    0    0  501  502 -0.00000000000E+00 -0.00000000000E+00 -0.14498673760E+03  0.14498673760E+03  0.00000000000E+00 0. -1.
      99926    2    1    2    0    0  0.00000000000E+00 -0.88817841970E-15  0.11843535667E+03  0.40840883186E+03  0.39085910535E+03 0.  0.
      99925    2    3    3    0    0  0.21511497779E+02 -0.38839405472E+01  0.81072385959E+02  0.27604067402E+03  0.26295986845E+03 0.  0.
         25    1    4    4    0    0  0.29615201598E+02  0.22551730142E+02  0.68282412644E+02  0.14729438779E+03  0.12509000000E+03 0.  0.
         25    1    4    4    0    0 -0.81037038188E+01 -0.26435670689E+02  0.12789973315E+02  0.12874628623E+03  0.12509000000E+03 0.  0.
         25    1    3    3    0    0 -0.21511497779E+02  0.38839405472E+01  0.37362970712E+02  0.13236815784E+03  0.12509000000E+03 0.  0.
<mgrwt>
<rscale>  2 0.39085911E+03</rscale>
<asrwt>0</asrwt>
<pdfrwt beam="1">  1       21 0.38738543E-01 0.39085911E+03</pdfrwt>
<pdfrwt beam="2">  1       21 0.21321579E-01 0.39085911E+03</pdfrwt>
<totfact> 0.12464095E+05</totfact>
</mgrwt>
</event>
<event>
 7    0  0.4766352E-002  0.4417865E+03  0.7546771E-02  0.1030200E+00
         21   -1    0    0  502  501  0.00000000000E+00  0.00000000000E+00  0.18329203337E+03  0.18329203337E+03  0.00000000000E+00 0.  1.
         21   -1    0    0  501  502 -0.00000000000E+00 -0.00000000000E+00 -0.26620814458E+03  0.26620814458E+03  0.00000000000E+00 0.  1.
      99926    2    1    2    0    0  0.00000000000E+00  0.00000000000E+00 -0.82916111206E+02  0.44950017795E+03  0.44178651912E+03 0.  0.
      99925    2    3    3    0    0  0.72564040771E+02  0.32684072299E+02  0.10128978888E+02  0.27446108093E+03  0.26247380848E+03 0.  0.
         25    1    4    4    0    0  0.21185527482E+02  0.44374860344E+02  0.28769400150E+02  0.13745232370E+03  0.12509000000E+03 0.  0.
         25    1    4    4    0    0  0.51378513289E+02 -0.11690788044E+02 -0.18640421262E+02  0.13700875723E+03  0.12509000000E+03 0.  0.
         25    1    3    3    0    0 -0.72564040771E+02 -0.32684072299E+02 -0.93045090094E+02  0.17503909702E+03  0.12509000000E+03 0.  0.
<mgrwt>
<rscale>  2 0.44178652E+03</rscale>
<asrwt>0</asrwt>
<pdfrwt beam="1">  1       21 0.26954711E-01 0.44178652E+03</pdfrwt>
<pdfrwt beam="2">  1       21 0.39148256E-01 0.44178652E+03</pdfrwt>
<totfact> 0.76722069E+04</totfact>
</mgrwt>
</event>
<event>
 7    0  0.4766352E-002  0.4387242E+03  0.7546771E-02  0.1031139E+00
         21   -1    0    0  502  501  0.00000000000E+00  0.00000000000E+00  0.11944111115E+04  0.11944111115E+04  0.00000000000E+00 0.  1.
         21   -1    0    0  501  502 -0.00000000000E+00 -0.00000000000E+00 -0.40287403215E+02  0.40287403215E+02  0.00000000000E+00 0.  1.
      99926    2    1    2    0    0 -0.71054273576E-14 -0.17763568394E-14  0.11541237083E+04  0.12346985147E+04  0.43872415960E+03 0.  0.
      99925    2    3    3    0    0  0.62262392714E+02  0.43023201543E+01  0.94682763950E+03  0.98466994887E+03  0.26305363291E+03 0.  0.
         25    1    4    4    0    0  0.38710840507E+02 -0.58928147659E+01  0.62164622911E+03  0.63531472257E+03  0.12509000000E+03 0.  0.
         25    1    4    4    0    0  0.23551552208E+02  0.10195134920E+02  0.32518141038E+03  0.34935522631E+03  0.12509000000E+03 0.  0.
         25    1    3    3    0    0 -0.62262392714E+02 -0.43023201543E+01  0.20729606882E+03  0.25002856587E+03  0.12509000000E+03 0.  0.
<mgrwt>
<rscale>  2 0.43872416E+03</rscale>
<asrwt>0</asrwt>
<pdfrwt beam="1">  1       21 0.17564867E+00 0.43872416E+03</pdfrwt>
<pdfrwt beam="2">  1       21 0.59246189E-02 0.43872416E+03</pdfrwt>
<totfact> 0.35341103E+04</totfact>
</mgrwt>
</event>
<event>
 7    0  0.4766352E-002  0.4550106E+03  0.7546771E-02  0.1026238E+00
         21   -1    0    0  502  501  0.00000000000E+00  0.00000000000E+00  0.84653759128E+03  0.84653759128E+03  0.00000000000E+00 0. -1.
         21   -1    0    0  501  502 -0.00000000000E+00 -0.00000000000E+00 -0.61141593841E+02  0.61141593841E+02  0.00000000000E+00 0. -1.
      99926    2    1    2    0    0  0.71054273576E-14  0.00000000000E+00  0.78539599744E+03  0.90767918512E+03  0.45501058263E+03 0.  0.
      99925    2    3    3    0    0  0.57378446771E+02  0.83174034738E+02  0.59655938503E+03  0.65965301615E+03  0.26277137523E+03 0.  0.
         25    1    3    3    0    0 -0.57378446771E+02 -0.83174034738E+02  0.18883661241E+03  0.24802616897E+03  0.12509000000E+03 0.  0.
         25    1    4    4    0    0  0.51069837801E+02  0.74516502661E+02  0.29274418543E+03  0.33091918002E+03  0.12509000000E+03 0.  0.
         25    1    4    4    0    0  0.63086089702E+01  0.86575320773E+01  0.30381519960E+03  0.32873383613E+03  0.12509000000E+03 0.  0.
<mgrwt>
<rscale>  2 0.45501058E+03</rscale>
<asrwt>0</asrwt>
<pdfrwt beam="1">  1       21 0.12449082E+00 0.45501058E+03</pdfrwt>
<pdfrwt beam="2">  1       21 0.89914114E-02 0.45501058E+03</pdfrwt>
<totfact> 0.42899814E+04</totfact>
</mgrwt>
</event>
<event>
 7    0  0.4766352E-002  0.4563951E+03  0.7546771E-02  0.1025832E+00
         21   -1    0    0  502  501  0.00000000000E+00  0.00000000000E+00  0.48159572230E+03  0.48159572230E+03  0.00000000000E+00 0.  1.
         21   -1    0    0  501  502 -0.00000000000E+00 -0.00000000000E+00 -0.10812826991E+03  0.10812826991E+03  0.00000000000E+00 0.  1.
      99926    2    1    2    0    0  0.00000000000E+00  0.00000000000E+00  0.37346745239E+03  0.58972399220E+03  0.45639505802E+03 0.  0.
      99925    2    3    3    0    0  0.26293813642E+02 -0.10553314796E+03  0.18888746991E+03  0.34163955499E+03  0.26307888416E+03 0.  0.
         25    1    4    4    0    0  0.88466185426E+01 -0.69742416001E+02  0.53722007154E+02  0.15321824109E+03  0.12509000000E+03 0.  0.
         25    1    3    3    0    0 -0.26293813642E+02  0.10553314796E+03  0.18457998247E+03  0.24808443721E+03  0.12509000000E+03 0.  0.
         25    1    4    4    0    0  0.17447195099E+02 -0.35790731961E+02  0.13516546276E+03  0.18842131391E+03  0.12509000000E+03 0.  0.
<mgrwt>
<rscale>  2 0.45639506E+03</rscale>
<asrwt>0</asrwt>
<pdfrwt beam="1">  1       21 0.70822900E-01 0.45639506E+03</pdfrwt>
<pdfrwt beam="2">  1       21 0.15901216E-01 0.45639506E+03</pdfrwt>
<totfact> 0.58665751E+04</totfact>
</mgrwt>
</event>
<event>
 7    0  0.4766352E-002  0.4457012E+03  0.7546771E-02  0.1029012E+00
         21   -1    0    0  502  501  0.00000000000E+00  0.00000000000E+00  0.22180717944E+03  0.22180717944E+03  0.00000000000E+00 0.  1.
         21   -1    0    0  501  502 -0.00000000000E+00 -0.00000000000E+00 -0.22389892504E+03  0.22389892504E+03  0.00000000000E+00 0.  1.
      99926    2    1    2    0    0  0.00000000000E+00 -0.71054273576E-14 -0.20917455976E+01  0.44570610448E+03  0.44570119606E+03 0.  0.
      99925    2    3    3    0    0  0.87334481747E+02 -0.43484025236E+02 -0.38315298500E+02  0.28298601955E+03  0.26285899835E+03 0.  0.
         25    1    3    3    0    0 -0.87334481747E+02  0.43484025236E+02  0.36223552903E+02  0.16272008492E+03  0.12509000000E+03 0.  0.
         25    1    4    4    0    0  0.72654186951E+02 -0.39856720199E+02 -0.45456080865E+02  0.15678313817E+03  0.12509000000E+03 0.  0.
         25    1    4    4    0    0  0.14680294795E+02 -0.36273050369E+01  0.71407823643E+01  0.12620288139E+03  0.12509000000E+03 0.  0.
<mgrwt>
<rscale>  2 0.44570120E+03</rscale>
<asrwt>0</asrwt>
<pdfrwt beam="1">  1       21 0.32618703E-01 0.44570120E+03</pdfrwt>
<pdfrwt beam="2">  1       21 0.32926312E-01 0.44570120E+03</pdfrwt>
<totfact> 0.74616458E+04</totfact>
</mgrwt>
</event>
<event>
 7    0  0.4766352E-002  0.4413408E+03  0.7546771E-02  0.1030336E+00
         21   -1    0    0  502  501  0.00000000000E+00  0.00000000000E+00  0.45281621548E+03  0.45281621548E+03  0.00000000000E+00 0.  1.
         21   -1    0    0  501  502 -0.00000000000E+00 -0.00000000000E+00 -0.10753905783E+03  0.10753905783E+03  0.00000000000E+00 0.  1.
      99926    2    1    2    0    0  0.00000000000E+00  0.00000000000E+00  0.34527715766E+03  0.56035527331E+03  0.44134081697E+03 0.  0.
      99925    2    3    3    0    0  0.29760325007E+02  0.62978732557E+01  0.34076883650E+03  0.43154078184E+03  0.26301845242E+03 0.  0.
         25    1    4    4    0    0  0.44913465031E+02 -0.22412231448E+02  0.15769235103E+03  0.20744616924E+03  0.12509000000E+03 0.  0.
         25    1    3    3    0    0 -0.29760325007E+02 -0.62978732557E+01  0.45083211560E+01  0.12881449147E+03  0.12509000000E+03 0.  0.
         25    1    4    4    0    0 -0.15153140024E+02  0.28710104703E+02  0.18307648547E+03  0.22409461260E+03  0.12509000000E+03 0.  0.
<mgrwt>
<rscale>  2 0.44134082E+03</rscale>
<asrwt>0</asrwt>
<pdfrwt beam="1">  1       21 0.66590619E-01 0.44134082E+03</pdfrwt>
<pdfrwt beam="2">  1       21 0.15814568E-01 0.44134082E+03</pdfrwt>
<totfact> 0.68269554E+04</totfact>
</mgrwt>
</event>
<event>
 7    0  0.4766352E-002  0.4634575E+03  0.7546771E-02  0.1023783E+00
         21   -1    0    0  502  501  0.00000000000E+00  0.00000000000E+00  0.54011557385E+02  0.54011557385E+02  0.00000000000E+00 0. -1.
         21   -1    0    0  501  502 -0.00000000000E+00 -0.00000000000E+00 -0.99419854204E+03  0.99419854204E+03  0.00000000000E+00 0. -1.
      99926    2    1    2    0    0  0.00000000000E+00  0.00000000000E+00 -0.94018698465E+03  0.10482100994E+04  0.46345749150E+03 0.  0.
      99925    2    3    3    0    0  0.82744862579E+02  0.35697430494E+02 -0.40504023648E+03  0.49129846460E+03  0.26305050716E+03 0.  0.
         25    1    4    4    0    0  0.57335749267E+02  0.21074349102E+02 -0.14363008182E+03  0.20002156093E+03  0.12509000000E+03 0.  0.
         25    1    3    3    0    0 -0.82744862579E+02 -0.35697430494E+02 -0.53514674817E+03  0.55691163483E+03  0.12509000000E+03 0.  0.
         25    1    4    4    0    0  0.25409113312E+02  0.14623081392E+02 -0.26141015466E+03  0.29127690366E+03  0.12509000000E+03 0.  0.
<mgrwt>
<rscale>  2 0.46345749E+03</rscale>
<asrwt>0</asrwt>
<pdfrwt beam="1">  1       21 0.79428763E-02 0.46345749E+03</pdfrwt>
<pdfrwt beam="2">  1       21 0.14620566E+00 0.46345749E+03</pdfrwt>
<totfact> 0.34976485E+04</totfact>
</mgrwt>
</event>
<event>
 7    0  0.4766352E-002  0.4493354E+03  0.7546771E-02  0.1027920E+00
         21   -1    0    0  502  501  0.00000000000E+00  0.00000000000E+00  0.36094556369E+03  0.36094556369E+03  0.00000000000E+00 0.  1.
         21   -1    0    0  501  502 -0.00000000000E+00 -0.00000000000E+00 -0.13984264675E+03  0.13984264675E+03  0.00000000000E+00 0.  1.
      99926    2    1    2    0    0  0.71054273576E-14  0.00000000000E+00  0.22110291694E+03  0.50078821044E+03  0.44933543354E+03 0.  0.
      99925    2    3    3    0    0 -0.50909726591E+02 -0.50132483780E+02  0.49364930027E+02  0.27663087631E+03  0.26264553913E+03 0.  0.
         25    1    3    3    0    0  0.50909726591E+02  0.50132483780E+02  0.17173798691E+03  0.22415733412E+03  0.12509000000E+03 0.  0.
         25    1    4    4    0    0 -0.58231632005E+02 -0.12660702357E+02  0.45314579944E+02  0.14578112225E+03  0.12509000000E+03 0.  0.
         25    1    4    4    0    0  0.73219054137E+01 -0.37471781424E+02  0.40503500828E+01  0.13084975406E+03  0.12509000000E+03 0.  0.
<mgrwt>
<rscale>  2 0.44933543E+03</rscale>
<asrwt>0</asrwt>
<pdfrwt beam="1">  1       21 0.53080230E-01 0.44933543E+03</pdfrwt>
<pdfrwt beam="2">  1       21 0.20565095E-01 0.44933543E+03</pdfrwt>
<totfact> 0.68231958E+04</totfact>
</mgrwt>
</event>
<event>
 7    0  0.4766352E-002  0.4526547E+03  0.7546771E-02  0.1026933E+00
         21   -1    0    0  502  501  0.00000000000E+00  0.00000000000E+00  0.34737878066E+02  0.34737878066E+02  0.00000000000E+00 0. -1.
         21   -1    0    0  501  502 -0.00000000000E+00 -0.00000000000E+00 -0.14745880081E+04  0.14745880081E+04  0.00000000000E+00 0. -1.
      99926    2    1    2    0    0  0.00000000000E+00  0.00000000000E+00 -0.14398501300E+04  0.15093258862E+04  0.45265465169E+03 0.  0.
      99925    2    3    3    0    0 -0.29645652212E+02 -0.97865194087E+02 -0.76350895641E+03  0.81395450902E+03  0.26290598193E+03 0.  0.
         25    1    4    4    0    0 -0.17578959810E+02 -0.75342235165E+01 -0.37378987534E+03  0.39462914662E+03  0.12509000000E+03 0.  0.
         25    1    4    4    0    0 -0.12066692402E+02 -0.90330970570E+02 -0.38971908107E+03  0.41932536241E+03  0.12509000000E+03 0.  0.
         25    1    3    3    0    0  0.29645652212E+02  0.97865194087E+02 -0.67634117363E+03  0.69537137715E+03  0.12509000000E+03 0.  0.
<mgrwt>
<rscale>  2 0.45265465E+03</rscale>
<asrwt>0</asrwt>
<pdfrwt beam="1">  1       21 0.51085116E-02 0.45265465E+03</pdfrwt>
<pdfrwt beam="2">  1       21 0.21685117E+00 0.45265465E+03</pdfrwt>
<totfact> 0.23985446E+04</totfact>
</mgrwt>
</event>
<event>
 7    0  0.4766352E-002  0.4553887E+03  0.7546771E-02  0.1026127E+00
         21   -1    0    0  502  501  0.00000000000E+00  0.00000000000E+00  0.49961055313E+03  0.49961055313E+03  0.00000000000E+00 0. -1.
         21   -1    0    0  501  502 -0.00000000000E+00 -0.00000000000E+00 -0.10377027223E+03  0.10377027223E+03  0.00000000000E+00 0. -1.
      99926    2    1    2    0    0  0.71054273576E-14  0.00000000000E+00  0.39584028090E+03  0.60338082536E+03  0.45538872673E+03 0.  0.
      99925    2    3    3    0    0 -0.49645690600E+02  0.71446674854E+02  0.34552776234E+03  0.44291843236E+03  0.26309310374E+03 0.  0.
         25    1    4    4    0    0 -0.60756476949E+02  0.34121963568E+02  0.14832906454E+03  0.20616662527E+03  0.12509000000E+03 0.  0.
         25    1    3    3    0    0  0.49645690600E+02 -0.71446674854E+02  0.50312518560E+02  0.16046239300E+03  0.12509000000E+03 0.  0.
         25    1    4    4    0    0  0.11110786349E+02  0.37324711287E+02  0.19719869780E+03  0.23675180709E+03  0.12509000000E+03 0.  0.
<mgrwt>
<rscale>  2 0.45538873E+03</rscale>
<asrwt>0</asrwt>
<pdfrwt beam="1">  1       21 0.73472139E-01 0.45538873E+03</pdfrwt>
<pdfrwt beam="2">  1       21 0.15260334E-01 0.45538873E+03</pdfrwt>
<totfact> 0.58291424E+04</totfact>
</mgrwt>
</event>
<event>
 7    0  0.4766352E-002  0.4506088E+03  0.7546771E-02  0.1027541E+00
         21   -1    0    0  502  501  0.00000000000E+00  0.00000000000E+00  0.18672633721E+03  0.18672633721E+03  0.00000000000E+00 0. -1.
         21   -1    0    0  501  502 -0.00000000000E+00 -0.00000000000E+00 -0.27185275339E+03  0.27185275339E+03  0.00000000000E+00 0. -1.
      99926    2    1    2    0    0  0.00000000000E+00 -0.26645352591E-14 -0.85126416186E+02  0.45857909060E+03  0.45060878332E+03 0.  0.
      99925    2    3    3    0    0 -0.10046587906E+03 -0.52011023948E+01 -0.96336579803E+02  0.29766414354E+03  0.26306417737E+03 0.  0.
         25    1    4    4    0    0 -0.15725345239E+02 -0.22423939152E+02 -0.28691696166E+02  0.13122820222E+03  0.12509000000E+03 0.  0.
         25    1    3    3    0    0  0.10046587906E+03  0.52011023948E+01  0.11210163617E+02  0.16091494707E+03  0.12509000000E+03 0.  0.
         25    1    4    4    0    0 -0.84740533819E+02  0.17222836757E+02 -0.67644883638E+02  0.16643594131E+03  0.12509000000E+03 0.  0.
<mgrwt>
<rscale>  2 0.45060878E+03</rscale>
<asrwt>0</asrwt>
<pdfrwt beam="1">  1       21 0.27459755E-01 0.45060878E+03</pdfrwt>
<pdfrwt beam="2">  1       21 0.39978346E-01 0.45060878E+03</pdfrwt>
<totfact> 0.70726271E+04</totfact>
</mgrwt>
</event>
<event>
 7    0  0.4766352E-002  0.4529884E+03  0.7546771E-02  0.1026835E+00
         21   -1    0    0  502  501  0.00000000000E+00  0.00000000000E+00  0.30734692314E+03  0.30734692314E+03  0.00000000000E+00 0. -1.
         21   -1    0    0  501  502 -0.00000000000E+00 -0.00000000000E+00 -0.16691112321E+03  0.16691112321E+03  0.00000000000E+00 0. -1.
      99926    2    1    2    0    0  0.14210854715E-13  0.17763568394E-14  0.14043579994E+03  0.47425804635E+03  0.45298838906E+03 0.  0.
      99925    2    3    3    0    0 -0.11073984795E+03  0.98352569681E+01  0.85192980097E+02  0.29802149098E+03  0.26305687413E+03 0.  0.
         25    1    4    4    0    0 -0.46163751186E+02 -0.31285272438E+02  0.58622069480E+02  0.14897622403E+03  0.12509000000E+03 0.  0.
         25    1    3    3    0    0  0.11073984795E+03 -0.98352569681E+01  0.55242819839E+02  0.17623655536E+03  0.12509000000E+03 0.  0.
         25    1    4    4    0    0 -0.64576096761E+02  0.41120529406E+02  0.26570910617E+02  0.14904526696E+03  0.12509000000E+03 0.  0.
<mgrwt>
<rscale>  2 0.45298839E+03</rscale>
<asrwt>0</asrwt>
<pdfrwt beam="1">  1       21 0.45198077E-01 0.45298839E+03</pdfrwt>
<pdfrwt beam="2">  1       21 0.24545753E-01 0.45298839E+03</pdfrwt>
<totfact> 0.68202822E+04</totfact>
</mgrwt>
</event>
<event>
 7    0  0.4766352E-002  0.4568389E+03  0.7546771E-02  0.1025702E+00
         21   -1    0    0  502  501  0.00000000000E+00  0.00000000000E+00  0.18018230409E+03  0.18018230409E+03  0.00000000000E+00 0.  1.
         21   -1    0    0  501  502 -0.00000000000E+00 -0.00000000000E+00 -0.28957033043E+03  0.28957033043E+03  0.00000000000E+00 0.  1.
      99926    2    1    2    0    0  0.00000000000E+00  0.00000000000E+00 -0.10938802634E+03  0.46975263451E+03  0.45683891836E+03 0.  0.
      99925    2    3    3    0    0  0.72218925928E+02  0.61914198857E+02 -0.13497208889E+03  0.31053268087E+03  0.26299075997E+03 0.  0.
         25    1    4    4    0    0  0.13808695353E+02  0.58456017022E+02 -0.89576301945E+02  0.16516418487E+03  0.12509000000E+03 0.  0.
         25    1    3    3    0    0 -0.72218925928E+02 -0.61914198857E+02  0.25584062543E+02  0.15921995364E+03  0.12509000000E+03 0.  0.
         25    1    4    4    0    0  0.58410230575E+02  0.34581818357E+01 -0.45395786942E+02  0.14536849600E+03  0.12509000000E+03 0.  0.
<mgrwt>
<rscale>  2 0.45683892E+03</rscale>
<asrwt>0</asrwt>
<pdfrwt beam="1">  1       21 0.26497398E-01 0.45683892E+03</pdfrwt>
<pdfrwt beam="2">  1       21 0.42583872E-01 0.45683892E+03</pdfrwt>
<totfact> 0.66479164E+04</totfact>
</mgrwt>
</event>
<event>
 7    0  0.4766352E-002  0.4393024E+03  0.7546771E-02  0.1030961E+00
         21   -1    0    0  502  501  0.00000000000E+00  0.00000000000E+00  0.49862033500E+03  0.49862033500E+03  0.00000000000E+00 0.  1.
         21   -1    0    0  501  502 -0.00000000000E+00 -0.00000000000E+00 -0.96760290917E+02  0.96760290917E+02  0.00000000000E+00 0.  1.
      99926    2    1    2    0    0 -0.17763568394E-14 -0.14210854715E-13  0.40186004408E+03  0.59538062591E+03  0.43930239549E+03 0.  0.
      99925    2    3    3    0    0 -0.10182841480E+02 -0.94888558425E+02  0.28592210374E+03  0.39994101148E+03  0.26285706092E+03 0.  0.
         25    1    4    4    0    0 -0.24956956823E+02 -0.77033040505E+02  0.12290567944E+03  0.19315862176E+03  0.12509000000E+03 0.  0.
         25    1    4    4    0    0  0.14774115343E+02 -0.17855517920E+02  0.16301642430E+03  0.20678238971E+03  0.12509000000E+03 0.  0.
         25    1    3    3    0    0  0.10182841480E+02  0.94888558425E+02  0.11593794034E+03  0.19543961444E+03  0.12509000000E+03 0.  0.
<mgrwt>
<rscale>  2 0.43930240E+03</rscale>
<asrwt>0</asrwt>
<pdfrwt beam="1">  1       21 0.73326519E-01 0.43930240E+03</pdfrwt>
<pdfrwt beam="2">  1       21 0.14229455E-01 0.43930240E+03</pdfrwt>
<totfact> 0.66881272E+04</totfact>
</mgrwt>
</event>
<event>
 7    0  0.4766352E-002  0.4513958E+03  0.7546771E-02  0.1027307E+00
         21   -1    0    0  502  501  0.00000000000E+00  0.00000000000E+00  0.65342115267E+02  0.65342115267E+02  0.00000000000E+00 0.  1.
         21   -1    0    0  501  502 -0.00000000000E+00 -0.00000000000E+00 -0.77958216946E+03  0.77958216946E+03  0.00000000000E+00 0.  1.
      99926    2    1    2    0    0  0.00000000000E+00  0.00000000000E+00 -0.71424005419E+03  0.84492428472E+03  0.45139582619E+03 0.  0.
      99925    2    3    3    0    0  0.98482461636E+02  0.17984525383E+02 -0.36712915704E+03  0.46262110474E+03  0.26308217386E+03 0.  0.
         25    1    3    3    0    0 -0.98482461636E+02 -0.17984525383E+02 -0.34711089715E+03  0.38230317998E+03  0.12509000000E+03 0.  0.
         25    1    4    4    0    0  0.33258331633E+02 -0.64655806933E+01 -0.11794566086E+03  0.17523300880E+03  0.12509000000E+03 0.  0.
         25    1    4    4    0    0  0.65224130003E+02  0.24450106076E+02 -0.24918349618E+03  0.28738809595E+03  0.12509000000E+03 0.  0.
<mgrwt>
<rscale>  2 0.45139583E+03</rscale>
<asrwt>0</asrwt>
<pdfrwt beam="1">  1       21 0.96091346E-02 0.45139583E+03</pdfrwt>
<pdfrwt beam="2">  1       21 0.11464444E+00 0.45139583E+03</pdfrwt>
<totfact> 0.46981652E+04</totfact>
</mgrwt>
</event>
<event>
 7    0  0.4766352E-002  0.4544798E+03  0.7546771E-02  0.1026394E+00
         21   -1    0    0  502  501  0.00000000000E+00  0.00000000000E+00  0.32571611196E+02  0.32571611196E+02  0.00000000000E+00 0. -1.
         21   -1    0    0  501  502 -0.00000000000E+00 -0.00000000000E+00 -0.15853672337E+04  0.15853672337E+04  0.00000000000E+00 0. -1.
      99926    2    1    2    0    0  0.00000000000E+00  0.00000000000E+00 -0.15527956226E+04  0.16179388449E+04  0.45447976914E+03 0.  0.
      99925    2    3    3    0    0 -0.48780892565E+02  0.10147263472E+03 -0.96129550249E+03  0.10029622834E+04  0.26299815170E+03 0.  0.
         25    1    4    4    0    0 -0.64416822919E+02  0.63010658424E+02 -0.50388733171E+03  0.52694385024E+03  0.12509000000E+03 0.  0.
         25    1    3    3    0    0  0.48780892565E+02 -0.10147263472E+03 -0.59150012006E+03  0.61497656151E+03  0.12509000000E+03 0.  0.
         25    1    4    4    0    0  0.15635930354E+02  0.38461976300E+02 -0.45740817078E+03  0.47601843319E+03  0.12509000000E+03 0.  0.
<mgrwt>
<rscale>  2 0.45447977E+03</rscale>
<asrwt>0</asrwt>
<pdfrwt beam="1">  1       21 0.47899417E-02 0.45447977E+03</pdfrwt>
<pdfrwt beam="2">  1       21 0.23314229E+00 0.45447977E+03</pdfrwt>
<totfact> 0.21112572E+04</totfact>
</mgrwt>
</event>
<event>
 7    0  0.4766352E-002  0.4563024E+03  0.7546771E-02  0.1025859E+00
         21   -1    0    0  502  501  0.00000000000E+00  0.00000000000E+00  0.10028855931E+03  0.10028855931E+03  0.00000000000E+00 0. -1.
         21   -1    0    0  501  502 -0.00000000000E+00 -0.00000000000E+00 -0.51903206096E+03  0.51903206096E+03  0.00000000000E+00 0. -1.
      99926    2    1    2    0    0  0.00000000000E+00 -0.35527136788E-14 -0.41874350165E+03  0.61932062026E+03  0.45630243316E+03 0.  0.
      99925    2    3    3    0    0  0.87341192629E+02  0.29634811239E+02 -0.35503505536E+03  0.45135342050E+03  0.26298918932E+03 0.  0.
         25    1    4    4    0    0  0.49906110831E+02  0.34893233589E+02 -0.12620227239E+03  0.18783684225E+03  0.12509000000E+03 0.  0.
         25    1    4    4    0    0  0.37435081798E+02 -0.52584223506E+01 -0.22883278297E+03  0.26351657825E+03  0.12509000000E+03 0.  0.
         25    1    3    3    0    0 -0.87341192629E+02 -0.29634811239E+02 -0.63708446299E+02  0.16796719976E+03  0.12509000000E+03 0.  0.
<mgrwt>
<rscale>  2 0.45630243E+03</rscale>
<asrwt>0</asrwt>
<pdfrwt beam="1">  1       21 0.14748317E-01 0.45630243E+03</pdfrwt>
<pdfrwt beam="2">  1       21 0.76328245E-01 0.45630243E+03</pdfrwt>
<totfact> 0.56916868E+04</totfact>
</mgrwt>
</event>
<event>
 7    0  0.4766352E-002  0.4533691E+03  0.7546771E-02  0.1026722E+00
         21   -1    0    0  502  501  0.00000000000E+00  0.00000000000E+00  0.41349663019E+03  0.41349663019E+03  0.00000000000E+00 0.  1.
         21   -1    0    0  501  502 -0.00000000000E+00 -0.00000000000E+00 -0.12427161071E+03  0.12427161071E+03  0.00000000000E+00 0.  1.
      99926    2    1    2    0    0  0.00000000000E+00  0.00000000000E+00  0.28922501948E+03  0.53776824089E+03  0.45336913109E+03 0.  0.
      99925    2    3    3    0    0  0.11600175857E+02  0.11054461570E+03  0.19373268700E+03  0.34510021085E+03  0.26307247171E+03 0.  0.
         25    1    4    4    0    0  0.14348883817E+02  0.69197512244E+02  0.14629653320E+03  0.20504723820E+03  0.12509000000E+03 0.  0.
         25    1    4    4    0    0 -0.27487079606E+01  0.41347103456E+02  0.47436153804E+02  0.14005297265E+03  0.12509000000E+03 0.  0.
         25    1    3    3    0    0 -0.11600175857E+02 -0.11054461570E+03  0.95492332477E+02  0.19266803005E+03  0.12509000000E+03 0.  0.
<mgrwt>
<rscale>  2 0.45336913E+03</rscale>
<asrwt>0</asrwt>
<pdfrwt beam="1">  1       21 0.60808328E-01 0.45336913E+03</pdfrwt>
<pdfrwt beam="2">  1       21 0.18275237E-01 0.45336913E+03</pdfrwt>
<totfact> 0.63497727E+04</totfact>
</mgrwt>
</event>
<event>
 7    0  0.4766352E-002  0.4567956E+03  0.7546771E-02  0.1025715E+00
         21   -1    0    0  502  501  0.00000000000E+00  0.00000000000E+00  0.16597725208E+03  0.16597725208E+03  0.00000000000E+00 0.  1.
         21   -1    0    0  501  502 -0.00000000000E+00 -0.00000000000E+00 -0.31429342225E+03  0.31429342225E+03  0.00000000000E+00 0.  1.
      99926    2    1    2    0    0 -0.71054273576E-14  0.88817841970E-15 -0.14831617017E+03  0.48027067433E+03  0.45679561544E+03 0.  0.
      99925    2    3    3    0    0 -0.46821052272E+02  0.62883830865E+01  0.16824967244E+02  0.26778336161E+03  0.26304580312E+03 0.  0.
         25    1    3    3    0    0  0.46821052272E+02 -0.62883830865E+01 -0.16514113741E+03  0.21248731271E+03  0.12509000000E+03 0.  0.
         25    1    4    4    0    0 -0.47373480591E+02  0.13499981811E+02 -0.22818983207E+02  0.13636242249E+03  0.12509000000E+03 0.  0.
         25    1    4    4    0    0  0.55242831915E+00 -0.72115987247E+01  0.39643950452E+02  0.13142093913E+03  0.12509000000E+03 0.  0.
<mgrwt>
<rscale>  2 0.45679562E+03</rscale>
<asrwt>0</asrwt>
<pdfrwt beam="1">  1       21 0.24408420E-01 0.45679562E+03</pdfrwt>
<pdfrwt beam="2">  1       21 0.46219621E-01 0.45679562E+03</pdfrwt>
<totfact> 0.65738471E+04</totfact>
</mgrwt>
</event>
<event>
 7    0  0.4766352E-002  0.4505176E+03  0.7546771E-02  0.1027568E+00
         21   -1    0    0  502  501  0.00000000000E+00  0.00000000000E+00  0.77255600436E+03  0.77255600436E+03  0.00000000000E+00 0. -1.
         21   -1    0    0  501  502 -0.00000000000E+00 -0.00000000000E+00 -0.65680065153E+02  0.65680065153E+02  0.00000000000E+00 0. -1.
      99926    2    1    2    0    0  0.00000000000E+00  0.17763568394E-14  0.70687593921E+03  0.83823606951E+03  0.45051760765E+03 0.  0.
      99925    2    3    3    0    0 -0.82214188102E+02 -0.86930116593E+01  0.31469811463E+03  0.41837216851E+03  0.26299358709E+03 0.  0.
         25    1    4    4    0    0 -0.55264341307E+02 -0.25577043866E+02  0.11454417615E+03  0.18021156728E+03  0.12509000000E+03 0.  0.
         25    1    3    3    0    0  0.82214188102E+02  0.86930116593E+01  0.39217782458E+03  0.41986390101E+03  0.12509000000E+03 0.  0.
         25    1    4    4    0    0 -0.26949846796E+02  0.16884032207E+02  0.20015393848E+03  0.23816060122E+03  0.12509000000E+03 0.  0.
<mgrwt>
<rscale>  2 0.45051761E+03</rscale>
<asrwt>0</asrwt>
<pdfrwt beam="1">  1       21 0.11361117E+00 0.45051761E+03</pdfrwt>
<pdfrwt beam="2">  1       21 0.96588335E-02 0.45051761E+03</pdfrwt>
<totfact> 0.47623064E+04</totfact>
</mgrwt>
</event>
<event>
 7    0  0.4766352E-002  0.4581703E+03  0.7546771E-02  0.1025313E+00
         21   -1    0    0  502  501  0.00000000000E+00  0.00000000000E+00  0.10919693761E+03  0.10919693761E+03  0.00000000000E+00 0. -1.
         21   -1    0    0  501  502 -0.00000000000E+00 -0.00000000000E+00 -0.48059950936E+03  0.48059950936E+03  0.00000000000E+00 0. -1.
      99926    2    1    2    0    0  0.00000000000E+00 -0.13322676296E-14 -0.37140257175E+03  0.58979644697E+03  0.45817025063E+03 0.  0.
      99925    2    3    3    0    0 -0.11388621817E+03  0.34248279677E+01 -0.26136114508E+03  0.38795882953E+03  0.26309809029E+03 0.  0.
         25    1    4    4    0    0 -0.44163474956E+02  0.40315710930E+02 -0.11965254924E+03  0.18313931775E+03  0.12509000000E+03 0.  0.
         25    1    3    3    0    0  0.11388621817E+03 -0.34248279677E+01 -0.11004142666E+03  0.20183761745E+03  0.12509000000E+03 0.  0.
         25    1    4    4    0    0 -0.69722743212E+02 -0.36890882962E+02 -0.14170859584E+03  0.20481951177E+03  0.12509000000E+03 0.  0.
<mgrwt>
<rscale>  2 0.45817025E+03</rscale>
<asrwt>0</asrwt>
<pdfrwt beam="1">  1       21 0.16058373E-01 0.45817025E+03</pdfrwt>
<pdfrwt beam="2">  1       21 0.70676399E-01 0.45817025E+03</pdfrwt>
<totfact> 0.57847610E+04</totfact>
</mgrwt>
</event>
<event>
 7    0  0.4766352E-002  0.4517044E+03  0.7546771E-02  0.1027215E+00
         21   -1    0    0  502  501  0.00000000000E+00  0.00000000000E+00  0.15893099841E+03  0.15893099841E+03  0.00000000000E+00 0.  1.
         21   -1    0    0  501  502 -0.00000000000E+00 -0.00000000000E+00 -0.32095201421E+03  0.32095201421E+03  0.00000000000E+00 0.  1.
      99926    2    1    2    0    0  0.00000000000E+00  0.00000000000E+00 -0.16202101580E+03  0.47988301261E+03  0.45170443460E+03 0.  0.
      99925    2    3    3    0    0  0.10755005309E+02  0.10421364341E+03 -0.13809144896E+03  0.31497004805E+03  0.26298427573E+03 0.  0.
         25    1    4    4    0    0  0.42479096878E+01  0.95633830513E+02 -0.78487324647E+02  0.17598762032E+03  0.12509000000E+03 0.  0.
         25    1    4    4    0    0  0.65070956213E+01  0.85798128961E+01 -0.59604124313E+02  0.13898242773E+03  0.12509000000E+03 0.  0.
         25    1    3    3    0    0 -0.10755005309E+02 -0.10421364341E+03 -0.23929566838E+02  0.16491296456E+03  0.12509000000E+03 0.  0.
<mgrwt>
<rscale>  2 0.45170443E+03</rscale>
<asrwt>0</asrwt>
<pdfrwt beam="1">  1       21 0.23372206E-01 0.45170443E+03</pdfrwt>
<pdfrwt beam="2">  1       21 0.47198825E-01 0.45170443E+03</pdfrwt>
<totfact> 0.68482642E+04</totfact>
</mgrwt>
</event>
<event>
 7    0  0.4766352E-002  0.4516773E+03  0.7546771E-02  0.1027223E+00
         21   -1    0    0  502  501  0.00000000000E+00  0.00000000000E+00  0.16072452903E+03  0.16072452903E+03  0.00000000000E+00 0. -1.
         21   -1    0    0  501  502 -0.00000000000E+00 -0.00000000000E+00 -0.31733232916E+03  0.31733232916E+03  0.00000000000E+00 0. -1.
      99926    2    1    2    0    0  0.00000000000E+00  0.00000000000E+00 -0.15660780013E+03  0.47805685819E+03  0.45167727040E+03 0.  0.
      99925    2    3    3    0    0 -0.62967579107E+02  0.53921084359E+02 -0.17746134098E+03  0.32654851643E+03  0.26128338386E+03 0.  0.
         25    1    3    3    0    0  0.62967579107E+02 -0.53921084359E+02  0.20853540849E+02  0.15150834176E+03  0.12509000000E+03 0.  0.
         25    1    4    4    0    0 -0.37447228331E+02  0.51769719794E+02 -0.12663363567E+03  0.18911896938E+03  0.12509000000E+03 0.  0.
         25    1    4    4    0    0 -0.25520350776E+02  0.21513645649E+01 -0.50827705314E+02  0.13742954704E+03  0.12509000000E+03 0.  0.
<mgrwt>
<rscale>  2 0.45167727E+03</rscale>
<asrwt>0</asrwt>
<pdfrwt beam="1">  1       21 0.23635960E-01 0.45167727E+03</pdfrwt>
<pdfrwt beam="2">  1       21 0.46666519E-01 0.45167727E+03</pdfrwt>
<totfact> 0.68634187E+04</totfact>
</mgrwt>
</event>
<event>
 7    0  0.4766352E-002  0.4536065E+03  0.7546771E-02  0.1026652E+00
         21   -1    0    0  502  501  0.00000000000E+00  0.00000000000E+00  0.43361743819E+02  0.43361743819E+02  0.00000000000E+00 0.  1.
         21   -1    0    0  501  502 -0.00000000000E+00 -0.00000000000E+00 -0.11862925310E+04  0.11862925310E+04  0.00000000000E+00 0.  1.
      99926    2    1    2    0    0  0.00000000000E+00  0.00000000000E+00 -0.11429307872E+04  0.12296542748E+04  0.45360649388E+03 0.  0.
      99925    2    3    3    0    0  0.41543694145E+02  0.49436829438E+02 -0.96756931898E+03  0.10047786842E+04  0.26309682354E+03 0.  0.
         25    1    3    3    0    0 -0.41543694145E+02 -0.49436829438E+02 -0.17536146820E+03  0.22487559062E+03  0.12509000000E+03 0.  0.
         25    1    4    4    0    0  0.38724999601E+02  0.54446009250E+02 -0.59743340145E+03  0.61403434007E+03  0.12509000000E+03 0.  0.
         25    1    4    4    0    0  0.28186945448E+01 -0.50091798122E+01 -0.37013591753E+03  0.39074434413E+03  0.12509000000E+03 0.  0.
<mgrwt>
<rscale>  2 0.45360649E+03</rscale>
<asrwt>0</asrwt>
<pdfrwt beam="1">  1       21 0.63767275E-02 0.45360649E+03</pdfrwt>
<pdfrwt beam="2">  1       21 0.17445477E+00 0.45360649E+03</pdfrwt>
<totfact> 0.31569190E+04</totfact>
</mgrwt>
</event>
<event>
 7    0  0.4766352E-002  0.4565708E+03  0.7546771E-02  0.1025781E+00
         21   -1    0    0  502  501  0.00000000000E+00  0.00000000000E+00  0.17380473354E+03  0.17380473354E+03  0.00000000000E+00 0.  1.
         21   -1    0    0  501  502 -0.00000000000E+00 -0.00000000000E+00 -0.29984348462E+03  0.29984348462E+03  0.00000000000E+00 0.  1.
      99926    2    1    2    0    0  0.00000000000E+00 -0.71054273576E-14 -0.12603875108E+03  0.47364821816E+03  0.45657076976E+03 0.  0.
      99925    2    3    3    0    0 -0.20834242779E+02  0.60044655996E+02  0.19659929298E+02  0.27137355353E+03  0.26309250531E+03 0.  0.
         25    1    4    4    0    0 -0.21355761144E+02  0.18847377492E+02 -0.28005274599E+02  0.13131296843E+03  0.12509000000E+03 0.  0.
         25    1    4    4    0    0  0.52151836443E+00  0.41197278504E+02  0.47665203897E+02  0.14006058511E+03  0.12509000000E+03 0.  0.
         25    1    3    3    0    0  0.20834242779E+02 -0.60044655996E+02 -0.14569868038E+03  0.20227466463E+03  0.12509000000E+03 0.  0.
<mgrwt>
<rscale>  2 0.45657077E+03</rscale>
<asrwt>0</asrwt>
<pdfrwt beam="1">  1       21 0.25559520E-01 0.45657077E+03</pdfrwt>
<pdfrwt beam="2">  1       21 0.44094630E-01 0.45657077E+03</pdfrwt>
<totfact> 0.66334852E+04</totfact>
</mgrwt>
</event>
<event>
 7    0  0.4766352E-002  0.4593642E+03  0.7546771E-02  0.1024966E+00
         21   -1    0    0  502  501  0.00000000000E+00  0.00000000000E+00  0.35959245716E+03  0.35959245716E+03  0.00000000000E+00 0.  1.
         21   -1    0    0  501  502 -0.00000000000E+00 -0.00000000000E+00 -0.14670458373E+03  0.14670458373E+03  0.00000000000E+00 0.  1.
      99926    2    1    2    0    0  0.00000000000E+00 -0.35527136788E-14  0.21288787343E+03  0.50629704088E+03  0.45936417683E+03 0.  0.
      99925    2    3    3    0    0  0.52818635790E+02 -0.16269968344E+02  0.19492856751E+02  0.26943492755E+03  0.26298419831E+03 0.  0.
         25    1    4    4    0    0  0.25256020512E+02 -0.46773923032E+02 -0.24952382458E+01  0.13593895969E+03  0.12509000000E+03 0.  0.
         25    1    4    4    0    0  0.27562615278E+02  0.30503954688E+02  0.21988094996E+02  0.13349596786E+03  0.12509000000E+03 0.  0.
         25    1    3    3    0    0 -0.52818635790E+02  0.16269968344E+02  0.19339501668E+03  0.23686211334E+03  0.12509000000E+03 0.  0.
<mgrwt>
<rscale>  2 0.45936418E+03</rscale>
<asrwt>0</asrwt>
<pdfrwt beam="1">  1       21 0.52881244E-01 0.45936418E+03</pdfrwt>
<pdfrwt beam="2">  1       21 0.21574203E-01 0.45936418E+03</pdfrwt>
<totfact> 0.62632589E+04</totfact>
</mgrwt>
</event>
<event>
 7    0  0.4766352E-002  0.4664282E+03  0.7546771E-02  0.1022933E+00
         21   -1    0    0  502  501  0.00000000000E+00  0.00000000000E+00  0.44878915634E+03  0.44878915634E+03  0.00000000000E+00 0.  1.
         21   -1    0    0  501  502 -0.00000000000E+00 -0.00000000000E+00 -0.12119012380E+03  0.12119012380E+03  0.00000000000E+00 0.  1.
      99926    2    1    2    0    0 -0.14210854715E-13 -0.35527136788E-14  0.32759903254E+03  0.56997928014E+03  0.46642818704E+03 0.  0.
      99925    2    3    3    0    0 -0.11721840235E+03 -0.31750101441E+02  0.23176346101E+03  0.37103157932E+03  0.26306255568E+03 0.  0.
         25    1    4    4    0    0 -0.20284720619E+02 -0.31798645709E+02  0.11890157029E+03  0.17665705555E+03  0.12509000000E+03 0.  0.
         25    1    4    4    0    0 -0.96933681735E+02  0.48544267773E-01  0.11286189072E+03  0.19437452377E+03  0.12509000000E+03 0.  0.
         25    1    3    3    0    0  0.11721840235E+03  0.31750101441E+02  0.95835571526E+02  0.19894770082E+03  0.12509000000E+03 0.  0.
<mgrwt>
<rscale>  2 0.46642819E+03</rscale>
<asrwt>0</asrwt>
<pdfrwt beam="1">  1       21 0.65998405E-01 0.46642819E+03</pdfrwt>
<pdfrwt beam="2">  1       21 0.17822077E-01 0.46642819E+03</pdfrwt>
<totfact> 0.55387289E+04</totfact>
</mgrwt>
</event>
<event>
 7    0  0.4766352E-002  0.4442113E+03  0.7546771E-02  0.1029462E+00
         21   -1    0    0  502  501  0.00000000000E+00  0.00000000000E+00  0.35295079398E+03  0.35295079398E+03  0.00000000000E+00 0. -1.
         21   -1    0    0  501  502 -0.00000000000E+00 -0.00000000000E+00 -0.13976714802E+03  0.13976714802E+03  0.00000000000E+00 0. -1.
      99926    2    1    2    0    0 -0.14210854715E-13  0.00000000000E+00  0.21318364597E+03  0.49271794200E+03  0.44421132748E+03 0.  0.
      99925    2    3    3    0    0  0.99841924648E+02 -0.12520323340E+02  0.11307852937E+03  0.30352568295E+03  0.26308918258E+03 0.  0.
         25    1    4    4    0    0  0.85610970100E+02 -0.27626515497E+02  0.73359287605E+02  0.17065039038E+03  0.12509000000E+03 0.  0.
         25    1    3    3    0    0 -0.99841924648E+02  0.12520323340E+02  0.10010511660E+03  0.18919225905E+03  0.12509000000E+03 0.  0.
         25    1    4    4    0    0  0.14230954547E+02  0.15106192157E+02  0.39719241762E+02  0.13287529257E+03  0.12509000000E+03 0.  0.
<mgrwt>
<rscale>  2 0.44421133E+03</rscale>
<asrwt>0</asrwt>
<pdfrwt beam="1">  1       21 0.51904528E-01 0.44421133E+03</pdfrwt>
<pdfrwt beam="2">  1       21 0.20553992E-01 0.44421133E+03</pdfrwt>
<totfact> 0.71734791E+04</totfact>
</mgrwt>
</event>
<event>
 7    0  0.4766352E-002  0.4499283E+03  0.7546771E-02  0.1027743E+00
         21   -1    0    0  502  501  0.00000000000E+00  0.00000000000E+00  0.12544230962E+03  0.12544230962E+03  0.00000000000E+00 0.  1.
         21   -1    0    0  501  502 -0.00000000000E+00 -0.00000000000E+00 -0.40344339058E+03  0.40344339058E+03  0.00000000000E+00 0.  1.
      99926    2    1    2    0    0 -0.14210854715E-13  0.00000000000E+00 -0.27800108095E+03  0.52888570020E+03  0.44992830859E+03 0.  0.
      99925    2    3    3    0    0 -0.72799257871E+02  0.24676446770E+02 -0.26559115629E+03  0.38154197519E+03  0.26292005925E+03 0.  0.
         25    1    4    4    0    0 -0.73578718293E+02  0.44068917564E+01 -0.16469945942E+03  0.21956017060E+03  0.12509000000E+03 0.  0.
         25    1    4    4    0    0  0.77946042258E+00  0.20269555014E+02 -0.10089169687E+03  0.16198180459E+03  0.12509000000E+03 0.  0.
         25    1    3    3    0    0  0.72799257871E+02 -0.24676446770E+02 -0.12409924660E+02  0.14734372502E+03  0.12509000000E+03 0.  0.
<mgrwt>
<rscale>  2 0.44992831E+03</rscale>
<asrwt>0</asrwt>
<pdfrwt beam="1">  1       21 0.18447399E-01 0.44992831E+03</pdfrwt>
<pdfrwt beam="2">  1       21 0.59329910E-01 0.44992831E+03</pdfrwt>
<totfact> 0.65889443E+04</totfact>
</mgrwt>
</event>
<event>
 7    0  0.4766352E-002  0.4556813E+03  0.7546771E-02  0.1026041E+00
         21   -1    0    0  502  501  0.00000000000E+00  0.00000000000E+00  0.43070043966E+02  0.43070043966E+02  0.00000000000E+00 0. -1.
         21   -1    0    0  501  502 -0.00000000000E+00 -0.00000000000E+00 -0.12052774776E+04  0.12052774776E+04  0.00000000000E+00 0. -1.
      99926    2    1    2    0    0  0.14210854715E-13  0.00000000000E+00 -0.11622074337E+04  0.12483475216E+04  0.45568126559E+03 0.  0.
      99925    2    3    3    0    0 -0.93351389300E+02  0.37433263237E+02 -0.58560527458E+03  0.64982159147E+03  0.26309472066E+03 0.  0.
         25    1    4    4    0    0 -0.85261612368E+02  0.29288809793E+02 -0.35937031199E+03  0.39105230617E+03  0.12509000000E+03 0.  0.
         25    1    3    3    0    0  0.93351389300E+02 -0.37433263237E+02 -0.57660215909E+03  0.59852593014E+03  0.12509000000E+03 0.  0.
         25    1    4    4    0    0 -0.80897769324E+01  0.81444534435E+01 -0.22623496259E+03  0.25876928529E+03  0.12509000000E+03 0.  0.
<mgrwt>
<rscale>  2 0.45568127E+03</rscale>
<asrwt>0</asrwt>
<pdfrwt beam="1">  1       21 0.63338298E-02 0.45568127E+03</pdfrwt>
<pdfrwt beam="2">  1       21 0.17724669E+00 0.45568127E+03</pdfrwt>
<totfact> 0.30490424E+04</totfact>
</mgrwt>
</event>
<event>
 7    0  0.4766352E-002  0.4594646E+03  0.7546771E-02  0.1024937E+00
         21   -1    0    0  502  501  0.00000000000E+00  0.00000000000E+00  0.48669102951E+02  0.48669102951E+02  0.00000000000E+00 0. -1.
         21   -1    0    0  501  502 -0.00000000000E+00 -0.00000000000E+00 -0.10844030415E+04  0.10844030415E+04  0.00000000000E+00 0. -1.
      99926    2    1    2    0    0 -0.17763568394E-14  0.00000000000E+00 -0.10357339385E+04  0.11330721444E+04  0.45946457215E+03 0.  0.
      99925    2    3    3    0    0  0.15806216862E+02 -0.89242583830E+02 -0.46573252104E+03  0.54251037856E+03  0.26305256973E+03 0.  0.
         25    1    3    3    0    0 -0.15806216862E+02  0.89242583830E+02 -0.57000141748E+03  0.59056176586E+03  0.12509000000E+03 0.  0.
         25    1    4    4    0    0 -0.57514737547E+01 -0.18654838090E+02 -0.27526598153E+03  0.30298506749E+03  0.12509000000E+03 0.  0.
         25    1    4    4    0    0  0.21557690617E+02 -0.70587745740E+02 -0.19046653950E+03  0.23952531107E+03  0.12509000000E+03 0.  0.
<mgrwt>
<rscale>  2 0.45946457E+03</rscale>
<asrwt>0</asrwt>
<pdfrwt beam="1">  1       21 0.71572207E-02 0.45946457E+03</pdfrwt>
<pdfrwt beam="2">  1       21 0.15947104E+00 0.45946457E+03</pdfrwt>
<totfact> 0.33182667E+04</totfact>
</mgrwt>
</event>
<event>
 7    0  0.4766352E-002  0.4447301E+03  0.7546771E-02  0.1029305E+00
         21   -1    0    0  502  501  0.00000000000E+00  0.00000000000E+00  0.12167919634E+03  0.12167919634E+03  0.00000000000E+00 0. -1.
         21   -1    0    0  501  502 -0.00000000000E+00 -0.00000000000E+00 -0.40636536277E+03  0.40636536277E+03  0.00000000000E+00 0. -1.
      99926    2    1    2    0    0  0.00000000000E+00  0.00000000000E+00 -0.28468616643E+03  0.52804455911E+03  0.44473007886E+03 0.  0.
      99925    2    3    3    0    0  0.69566222030E+02 -0.42211760306E+01 -0.90470798176E+02  0.28674724263E+03  0.26302421610E+03 0.  0.
         25    1    4    4    0    0  0.15988819610E+02  0.18858717908E+02 -0.74814405626E+02  0.14783773870E+03  0.12509000000E+03 0.  0.
         25    1    4    4    0    0  0.53577402420E+02 -0.23079893938E+02 -0.15656392550E+02  0.13890950393E+03  0.12509000000E+03 0.  0.
         25    1    3    3    0    0 -0.69566222030E+02  0.42211760306E+01 -0.19421536826E+03  0.24129731648E+03  0.12509000000E+03 0.  0.
<mgrwt>
<rscale>  2 0.44473008E+03</rscale>
<asrwt>0</asrwt>
<pdfrwt beam="1">  1       21 0.17893999E-01 0.44473008E+03</pdfrwt>
<pdfrwt beam="2">  1       21 0.59759613E-01 0.44473008E+03</pdfrwt>
<totfact> 0.68763245E+04</totfact>
</mgrwt>
</event>
<event>
 7    0  0.4766352E-002  0.4502905E+03  0.7546771E-02  0.1027635E+00
         21   -1    0    0  502  501  0.00000000000E+00  0.00000000000E+00  0.58946791574E+02  0.58946791574E+02  0.00000000000E+00 0.  1.
         21   -1    0    0  501  502 -0.00000000000E+00 -0.00000000000E+00 -0.85993443033E+03  0.85993443033E+03  0.00000000000E+00 0.  1.
      99926    2    1    2    0    0  0.00000000000E+00  0.71054273576E-14 -0.80098763876E+03  0.91888122190E+03  0.45029046462E+03 0.  0.
      99925    2    3    3    0    0  0.74341650381E+02 -0.52874112251E+02 -0.62632473657E+03  0.68547815803E+03  0.26320196953E+03 0.  0.
         25    1    3    3    0    0 -0.74341650381E+02  0.52874112251E+02 -0.17466290218E+03  0.23340306388E+03  0.12509000000E+03 0.  0.
         25    1    4    4    0    0  0.38577332882E+01 -0.30643230213E+02 -0.23422476168E+03  0.26732496469E+03  0.12509000000E+03 0.  0.
         25    1    4    4    0    0  0.70483917093E+02 -0.22230882039E+02 -0.39209997490E+03  0.41815319334E+03  0.12509000000E+03 0.  0.
<mgrwt>
<rscale>  2 0.45029046E+03</rscale>
<asrwt>0</asrwt>
<pdfrwt beam="1">  1       21 0.86686462E-02 0.45029046E+03</pdfrwt>
<pdfrwt beam="2">  1       21 0.12646094E+00 0.45029046E+03</pdfrwt>
<totfact> 0.44027064E+04</totfact>
</mgrwt>
</event>
<event>
 7    0  0.4766352E-002  0.4551660E+03  0.7546771E-02  0.1026193E+00
         21   -1    0    0  502  501  0.00000000000E+00  0.00000000000E+00  0.15466953858E+03  0.15466953858E+03  0.00000000000E+00 0.  1.
         21   -1    0    0  501  502 -0.00000000000E+00 -0.00000000000E+00 -0.33486894849E+03  0.33486894849E+03  0.00000000000E+00 0.  1.
      99926    2    1    2    0    0  0.44408920985E-15  0.00000000000E+00 -0.18019940991E+03  0.48953848706E+03  0.45516601695E+03 0.  0.
      99925    2    3    3    0    0 -0.16269374815E+01  0.37582620562E+02  0.21134102534E+01  0.26526059517E+03  0.26257116474E+03 0.  0.
         25    1    3    3    0    0  0.16269374815E+01 -0.37582620562E+02 -0.18231282017E+03  0.22427789189E+03  0.12509000000E+03 0.  0.
         25    1    4    4    0    0 -0.25807913606E+02  0.47373861365E+02  0.13911570336E+02  0.13693564560E+03  0.12509000000E+03 0.  0.
         25    1    4    4    0    0  0.24180976124E+02 -0.97912408038E+01 -0.11798160083E+02  0.12832494958E+03  0.12509000000E+03 0.  0.
<mgrwt>
<rscale>  2 0.45516602E+03</rscale>
<asrwt>0</asrwt>
<pdfrwt beam="1">  1       21 0.22745520E-01 0.45516602E+03</pdfrwt>
<pdfrwt beam="2">  1       21 0.49245433E-01 0.45516602E+03</pdfrwt>
<totfact> 0.65925119E+04</totfact>
</mgrwt>
</event>
<event>
 7    0  0.4766352E-002  0.4584613E+03  0.7546771E-02  0.1025228E+00
         21   -1    0    0  502  501  0.00000000000E+00  0.00000000000E+00  0.31921885023E+03  0.31921885023E+03  0.00000000000E+00 0. -1.
         21   -1    0    0  501  502 -0.00000000000E+00 -0.00000000000E+00 -0.16461022290E+03  0.16461022290E+03  0.00000000000E+00 0. -1.
      99926    2    1    2    0    0  0.00000000000E+00  0.00000000000E+00  0.15460862733E+03  0.48382907313E+03  0.45846127902E+03 0.  0.
      99925    2    3    3    0    0 -0.64364824213E+02 -0.89755629550E+02  0.61313507389E+02  0.29264750724E+03  0.26397786587E+03 0.  0.
         25    1    3    3    0    0  0.64364824213E+02  0.89755629550E+02  0.93295119941E+02  0.19118156589E+03  0.12509000000E+03 0.  0.
         25    1    4    4    0    0  0.87505344260E+01 -0.27194437189E+02  0.29277392995E+02  0.13160844619E+03  0.12509000000E+03 0.  0.
         25    1    4    4    0    0 -0.73115358639E+02 -0.62561192361E+02  0.32036114394E+02  0.16103906105E+03  0.12509000000E+03 0.  0.
<mgrwt>
<rscale>  2 0.45846128E+03</rscale>
<asrwt>0</asrwt>
<pdfrwt beam="1">  1       21 0.46943949E-01 0.45846128E+03</pdfrwt>
<pdfrwt beam="2">  1       21 0.24207386E-01 0.45846128E+03</pdfrwt>
<totfact> 0.64628404E+04</totfact>
</mgrwt>
</event>
<event>
 7    0  0.4766352E-002  0.4541480E+03  0.7546771E-02  0.1026492E+00
         21   -1    0    0  502  501  0.00000000000E+00  0.00000000000E+00  0.70759128451E+02  0.70759128451E+02  0.00000000000E+00 0.  1.
         21   -1    0    0  501  502 -0.00000000000E+00 -0.00000000000E+00 -0.72870611546E+03  0.72870611546E+03  0.00000000000E+00 0.  1.
      99926    2    1    2    0    0  0.00000000000E+00  0.00000000000E+00 -0.65794698701E+03  0.79946524391E+03  0.45414803589E+03 0.  0.
      99925    2    3    3    0    0  0.53677448246E+02 -0.25820463129E+02 -0.58191100106E+03  0.64142428711E+03  0.26316674975E+03 0.  0.
         25    1    4    4    0    0  0.30750620516E+02  0.12873923116E+02 -0.36208690571E+03  0.38453318965E+03  0.12509000000E+03 0.  0.
         25    1    3    3    0    0 -0.53677448246E+02  0.25820463129E+02 -0.76035985946E+02  0.15804095680E+03  0.12509000000E+03 0.  0.
         25    1    4    4    0    0  0.22926827731E+02 -0.38694386245E+02 -0.21982409535E+03  0.25689109746E+03  0.12509000000E+03 0.  0.
<mgrwt>
<rscale>  2 0.45414804E+03</rscale>
<asrwt>0</asrwt>
<pdfrwt beam="1">  1       21 0.10405754E-01 0.45414804E+03</pdfrwt>
<pdfrwt beam="2">  1       21 0.10716266E+00 0.45414804E+03</pdfrwt>
<totfact> 0.48111557E+04</totfact>
</mgrwt>
</event>
<event>
 7    0  0.4766352E-002  0.4557629E+03  0.7546771E-02  0.1026017E+00
         21   -1    0    0  502  501  0.00000000000E+00  0.00000000000E+00  0.27538159423E+03  0.27538159423E+03  0.00000000000E+00 0.  1.
         21   -1    0    0  501  502 -0.00000000000E+00 -0.00000000000E+00 -0.18857456392E+03  0.18857456392E+03  0.00000000000E+00 0.  1.
      99926    2    1    2    0    0 -0.71054273576E-14  0.00000000000E+00  0.86807030308E+02  0.46395615814E+03  0.45576293856E+03 0.  0.
      99925    2    3    3    0    0 -0.44963192053E+02 -0.10012745704E+03  0.83809447601E+02  0.29751190353E+03  0.26351871459E+03 0.  0.
         25    1    4    4    0    0 -0.50882144714E+01 -0.16787718608E+02  0.61230424951E+02  0.14037232798E+03  0.12509000000E+03 0.  0.
         25    1    3    3    0    0  0.44963192053E+02  0.10012745704E+03  0.29975827074E+01  0.16644425462E+03  0.12509000000E+03 0.  0.
         25    1    4    4    0    0 -0.39874977582E+02 -0.83339738433E+02  0.22579022650E+02  0.15713957555E+03  0.12509000000E+03 0.  0.
<mgrwt>
<rscale>  2 0.45576294E+03</rscale>
<asrwt>0</asrwt>
<pdfrwt beam="1">  1       21 0.40497293E-01 0.45576294E+03</pdfrwt>
<pdfrwt beam="2">  1       21 0.27731554E-01 0.45576294E+03</pdfrwt>
<totfact> 0.67477564E+04</totfact>
</mgrwt>
</event>
<event>
 7    0  0.4766352E-002  0.4520313E+03  0.7546771E-02  0.1027118E+00
         21   -1    0    0  502  501  0.00000000000E+00  0.00000000000E+00  0.22002590657E+03  0.22002590657E+03  0.00000000000E+00 0. -1.
         21   -1    0    0  501  502 -0.00000000000E+00 -0.00000000000E+00 -0.23216841088E+03  0.23216841088E+03  0.00000000000E+00 0. -1.
      99926    2    1    2    0    0  0.00000000000E+00  0.00000000000E+00 -0.12142504306E+02  0.45219431745E+03  0.45203126034E+03 0.  0.
      99925    2    3    3    0    0 -0.80781523654E+02  0.19331187196E+02 -0.80848643868E+02  0.28706590961E+03  0.26262327369E+03 0.  0.
         25    1    3    3    0    0  0.80781523654E+02 -0.19331187196E+02  0.68706139561E+02  0.16512840784E+03  0.12509000000E+03 0.  0.
         25    1    4    4    0    0 -0.50581483003E+02  0.45783295242E+02 -0.57412354824E+02  0.15361732693E+03  0.12509000000E+03 0.  0.
         25    1    4    4    0    0 -0.30200040650E+02 -0.26452108045E+02 -0.23436289044E+02  0.13344858268E+03  0.12509000000E+03 0.  0.
<mgrwt>
<rscale>  2 0.45203126E+03</rscale>
<asrwt>0</asrwt>
<pdfrwt beam="1">  1       21 0.32356751E-01 0.45203126E+03</pdfrwt>
<pdfrwt beam="2">  1       21 0.34142413E-01 0.45203126E+03</pdfrwt>
<totfact> 0.70404816E+04</totfact>
</mgrwt>
</event>
<event>
 7    0  0.4766352E-002  0.4572532E+03  0.7546771E-02  0.1025581E+00
         21   -1    0    0  502  501  0.00000000000E+00  0.00000000000E+00  0.26011212917E+03  0.26011212917E+03  0.00000000000E+00 0.  1.
         21   -1    0    0  501  502 -0.00000000000E+00 -0.00000000000E+00 -0.20095224133E+03  0.20095224133E+03  0.00000000000E+00 0.  1.
      99926    2    1    2    0    0  0.00000000000E+00  0.00000000000E+00  0.59159887839E+02  0.46106437050E+03  0.45725316993E+03 0.  0.
      99925    2    3    3    0    0 -0.46701747970E+02  0.93358508633E+02 -0.12101618652E+02  0.28323699689E+03  0.26302068898E+03 0.  0.
         25    1    4    4    0    0 -0.36428059196E+02  0.48473898736E+02  0.32347821874E+02  0.14272565304E+03  0.12509000000E+03 0.  0.
         25    1    4    4    0    0 -0.10273688774E+02  0.44884609896E+02 -0.44449440526E+02  0.14051134385E+03  0.12509000000E+03 0.  0.
         25    1    3    3    0    0  0.46701747970E+02 -0.93358508633E+02  0.71261506492E+02  0.17782737361E+03  0.12509000000E+03 0.  0.
<mgrwt>
<rscale>  2 0.45725317E+03</rscale>
<asrwt>0</asrwt>
<pdfrwt beam="1">  1       21 0.38251784E-01 0.45725317E+03</pdfrwt>
<pdfrwt beam="2">  1       21 0.29551800E-01 0.45725317E+03</pdfrwt>
<totfact> 0.66892969E+04</totfact>
</mgrwt>
</event>
<event>
 7    0  0.4766352E-002  0.4532041E+03  0.7546771E-02  0.1026771E+00
         21   -1    0    0  502  501  0.00000000000E+00  0.00000000000E+00  0.34808584307E+02  0.34808584307E+02  0.00000000000E+00 0.  1.
         21   -1    0    0  501  502 -0.00000000000E+00 -0.00000000000E+00 -0.14751673934E+04  0.14751673934E+04  0.00000000000E+00 0.  1.
      99926    2    1    2    0    0 -0.31086244690E-14  0.00000000000E+00 -0.14403588091E+04  0.15099759777E+04  0.45320409786E+03 0.  0.
      99925    2    3    3    0    0  0.14386756752E+01  0.10275496382E+03 -0.76363248169E+03  0.81415510803E+03  0.26297018930E+03 0.  0.
         25    1    4    4    0    0  0.17992274161E+02  0.15831140385E+02 -0.30201843342E+03  0.32777582151E+03  0.12509000000E+03 0.  0.
         25    1    3    3    0    0 -0.14386756752E+01 -0.10275496382E+03 -0.67672632739E+03  0.69582086966E+03  0.12509000000E+03 0.  0.
         25    1    4    4    0    0 -0.16553598485E+02  0.86923823436E+02 -0.46161404827E+03  0.48637928653E+03  0.12509000000E+03 0.  0.
<mgrwt>
<rscale>  2 0.45320410E+03</rscale>
<asrwt>0</asrwt>
<pdfrwt beam="1">  1       21 0.51189100E-02 0.45320410E+03</pdfrwt>
<pdfrwt beam="2">  1       21 0.21693636E+00 0.45320410E+03</pdfrwt>
<totfact> 0.23866867E+04</totfact>
</mgrwt>
</event>
<event>
 7    0  0.4766352E-002  0.4561475E+03  0.7546771E-02  0.1025905E+00
         21   -1    0    0  502  501  0.00000000000E+00  0.00000000000E+00  0.53912199513E+02  0.53912199513E+02  0.00000000000E+00 0.  1.
         21   -1    0    0  501  502 -0.00000000000E+00 -0.00000000000E+00 -0.96485816191E+03  0.96485816191E+03  0.00000000000E+00 0.  1.
      99926    2    1    2    0    0  0.14210854715E-13  0.00000000000E+00 -0.91094596240E+03  0.10187703614E+04  0.45614745741E+03 0.  0.
      99925    2    3    3    0    0  0.77641235220E+02 -0.42690500893E+02 -0.41177415943E+03  0.49659162071E+03  0.26304873905E+03 0.  0.
         25    1    3    3    0    0 -0.77641235220E+02  0.42690500893E+02 -0.49917180297E+03  0.52217874071E+03  0.12509000000E+03 0.  0.
         25    1    4    4    0    0 -0.31203776738E+00 -0.33652697063E+02 -0.20514193618E+03  0.24261764871E+03  0.12509000000E+03 0.  0.
         25    1    4    4    0    0  0.77953272987E+02 -0.90378038302E+01 -0.20663222325E+03  0.25397397200E+03  0.12509000000E+03 0.  0.
<mgrwt>
<rscale>  2 0.45614746E+03</rscale>
<asrwt>0</asrwt>
<pdfrwt beam="1">  1       21 0.79282644E-02 0.45614746E+03</pdfrwt>
<pdfrwt beam="2">  1       21 0.14189091E+00 0.45614746E+03</pdfrwt>
<totfact> 0.38102031E+04</totfact>
</mgrwt>
</event>
<event>
 7    0  0.4766352E-002  0.4490002E+03  0.7546771E-02  0.1028021E+00
         21   -1    0    0  502  501  0.00000000000E+00  0.00000000000E+00  0.23583109114E+03  0.23583109114E+03  0.00000000000E+00 0.  1.
         21   -1    0    0  501  502 -0.00000000000E+00 -0.00000000000E+00 -0.21371352808E+03  0.21371352808E+03  0.00000000000E+00 0.  1.
      99926    2    1    2    0    0 -0.14210854715E-13  0.71054273576E-14  0.22117563065E+02  0.44954461922E+03  0.44900019830E+03 0.  0.
      99925    2    3    3    0    0  0.68744293029E+02  0.37990578335E+02  0.87372328128E+02  0.28806782730E+03  0.26302107812E+03 0.  0.
         25    1    3    3    0    0 -0.68744293029E+02 -0.37990578335E+02 -0.65254765064E+02  0.16147679192E+03  0.12509000000E+03 0.  0.
         25    1    4    4    0    0  0.49183681700E+02  0.48540323376E+02  0.20121282457E+02  0.14431760685E+03  0.12509000000E+03 0.  0.
         25    1    4    4    0    0  0.19560611328E+02 -0.10549745041E+02  0.67251045671E+02  0.14375022045E+03  0.12509000000E+03 0.  0.
<mgrwt>
<rscale>  2 0.44900020E+03</rscale>
<asrwt>0</asrwt>
<pdfrwt beam="1">  1       21 0.34681043E-01 0.44900020E+03</pdfrwt>
<pdfrwt beam="2">  1       21 0.31428460E-01 0.44900020E+03</pdfrwt>
<totfact> 0.72349274E+04</totfact>
</mgrwt>
</event>
<event>
 7    0  0.4766352E-002  0.4559005E+03  0.7546771E-02  0.1025977E+00
         21   -1    0    0  502  501  0.00000000000E+00  0.00000000000E+00  0.67878472518E+02  0.67878472518E+02  0.00000000000E+00 0. -1.
         21   -1    0    0  501  502 -0.00000000000E+00 -0.00000000000E+00 -0.76550526169E+03  0.76550526169E+03  0.00000000000E+00 0. -1.
      99926    2    1    2    0    0  0.00000000000E+00  0.71054273576E-14 -0.69762678917E+03  0.83338373421E+03  0.45590054998E+03 0.  0.
      99925    2    3    3    0    0  0.14814520066E+02  0.50796307650E+02 -0.25475431388E+03  0.37015239638E+03  0.26327419401E+03 0.  0.
         25    1    3    3    0    0 -0.14814520066E+02 -0.50796307650E+02 -0.44287247529E+03  0.46323133783E+03  0.12509000000E+03 0.  0.
         25    1    4    4    0    0  0.21090500830E+02  0.19651755640E+02 -0.17974266878E+03  0.22087538524E+03  0.12509000000E+03 0.  0.
         25    1    4    4    0    0 -0.62759807642E+01  0.31144552010E+02 -0.75011645103E+02  0.14927701114E+03  0.12509000000E+03 0.  0.
<mgrwt>
<rscale>  2 0.45590055E+03</rscale>
<asrwt>0</asrwt>
<pdfrwt beam="1">  1       21 0.99821282E-02 0.45590055E+03</pdfrwt>
<pdfrwt beam="2">  1       21 0.11257430E+00 0.45590055E+03</pdfrwt>
<totfact> 0.45867138E+04</totfact>
</mgrwt>
</event>
<event>
 7    0  0.4766352E-002  0.4576510E+03  0.7546771E-02  0.1025465E+00
         21   -1    0    0  502  501  0.00000000000E+00  0.00000000000E+00  0.33451107107E+03  0.33451107107E+03  0.00000000000E+00 0. -1.
         21   -1    0    0  501  502 -0.00000000000E+00 -0.00000000000E+00 -0.15653027431E+03  0.15653027431E+03  0.00000000000E+00 0. -1.
      99926    2    1    2    0    0  0.00000000000E+00  0.00000000000E+00  0.17798079675E+03  0.49104134538E+03  0.45765100116E+03 0.  0.
      99925    2    3    3    0    0 -0.10803051591E+03 -0.55617026135E+01  0.15531392709E+03  0.32411974706E+03  0.26311531613E+03 0.  0.
         25    1    3    3    0    0  0.10803051591E+03  0.55617026135E+01  0.22666869667E+02  0.16692159832E+03  0.12509000000E+03 0.  0.
         25    1    4    4    0    0 -0.95389344278E+02 -0.13203691892E+02  0.97318562142E+02  0.18545046540E+03  0.12509000000E+03 0.  0.
         25    1    4    4    0    0 -0.12641171635E+02  0.76419892786E+01  0.57995364944E+02  0.13866928166E+03  0.12509000000E+03 0.  0.
<mgrwt>
<rscale>  2 0.45765100E+03</rscale>
<asrwt>0</asrwt>
<pdfrwt beam="1">  1       21 0.49192804E-01 0.45765100E+03</pdfrwt>
<pdfrwt beam="2">  1       21 0.23019158E-01 0.45765100E+03</pdfrwt>
<totfact> 0.64535815E+04</totfact>
</mgrwt>
</event>
<event>
 7    0  0.4766352E-002  0.4532738E+03  0.7546771E-02  0.1026750E+00
         21   -1    0    0  502  501  0.00000000000E+00  0.00000000000E+00  0.20490936838E+04  0.20490936838E+04  0.00000000000E+00 0. -1.
         21   -1    0    0  501  502 -0.00000000000E+00 -0.00000000000E+00 -0.25066826445E+02  0.25066826445E+02  0.00000000000E+00 0. -1.
      99926    2    1    2    0    0  0.00000000000E+00  0.00000000000E+00  0.20240268574E+04  0.20741605103E+04  0.45327376161E+03 0.  0.
      99925    2    3    3    0    0 -0.13514264492E+02  0.72704428540E+02  0.89376239793E+03  0.93459312495E+03  0.26302949642E+03 0.  0.
         25    1    3    3    0    0  0.13514264492E+02 -0.72704428540E+02  0.11302644594E+04  0.11395673853E+04  0.12509000000E+03 0.  0.
         25    1    4    4    0    0 -0.99426596745E+01  0.16740685061E+02  0.30797310868E+03  0.33297755298E+03  0.12509000000E+03 0.  0.
         25    1    4    4    0    0 -0.35716048171E+01  0.55963743479E+02  0.58578928925E+03  0.60161557197E+03  0.12509000000E+03 0.  0.
<mgrwt>
<rscale>  2 0.45327376E+03</rscale>
<asrwt>0</asrwt>
<pdfrwt beam="1">  1       21 0.30133719E+00 0.45327376E+03</pdfrwt>
<pdfrwt beam="2">  1       21 0.36862994E-02 0.45327376E+03</pdfrwt>
<totfact> 0.12706096E+04</totfact>
</mgrwt>
</event>
<event>
 7    0  0.4766352E-002  0.4535955E+03  0.7546771E-02  0.1026655E+00
         21   -1    0    0  502  501  0.00000000000E+00  0.00000000000E+00  0.11191674697E+03  0.11191674697E+03  0.00000000000E+00 0.  1.
         21   -1    0    0  501  502 -0.00000000000E+00 -0.00000000000E+00 -0.45960261385E+03  0.45960261385E+03  0.00000000000E+00 0.  1.
      99926    2    1    2    0    0  0.71054273576E-14  0.00000000000E+00 -0.34768586688E+03  0.57151936082E+03  0.45359554425E+03 0.  0.
      99925    2    3    3    0    0 -0.60366040526E+02 -0.85238334406E+01 -0.10085277213E+03  0.28816304917E+03  0.26296377446E+03 0.  0.
         25    1    4    4    0    0 -0.61238435393E+02 -0.23088725458E+02 -0.73996237199E+02  0.15939318189E+03  0.12509000000E+03 0.  0.
         25    1    4    4    0    0  0.87239486665E+00  0.14564892017E+02 -0.26856534929E+02  0.12876986729E+03  0.12509000000E+03 0.  0.
         25    1    3    3    0    0  0.60366040526E+02  0.85238334406E+01 -0.24683309475E+03  0.28335631164E+03  0.12509000000E+03 0.  0.
<mgrwt>
<rscale>  2 0.45359554E+03</rscale>
<asrwt>0</asrwt>
<pdfrwt beam="1">  1       21 0.16458345E-01 0.45359554E+03</pdfrwt>
<pdfrwt beam="2">  1       21 0.67588620E-01 0.45359554E+03</pdfrwt>
<totfact> 0.61142700E+04</totfact>
</mgrwt>
</event>
<event>
 7    0  0.4766352E-002  0.4433724E+03  0.7546771E-02  0.1029717E+00
         21   -1    0    0  502  501  0.00000000000E+00  0.00000000000E+00  0.33389282197E+03  0.33389282197E+03  0.00000000000E+00 0. -1.
         21   -1    0    0  501  502 -0.00000000000E+00 -0.00000000000E+00 -0.14718728371E+03  0.14718728371E+03  0.00000000000E+00 0. -1.
      99926    2    1    2    0    0  0.00000000000E+00  0.00000000000E+00  0.18670553825E+03  0.48108010568E+03  0.44337242818E+03 0.  0.
      99925    2    3    3    0    0  0.78575388893E+02  0.62311369262E+02  0.13852998572E+03  0.31367284646E+03  0.26295113459E+03 0.  0.
         25    1    3    3    0    0 -0.78575388893E+02 -0.62311369262E+02  0.48175552532E+02  0.16740725922E+03  0.12509000000E+03 0.  0.
         25    1    4    4    0    0  0.68454533110E+02  0.33856605114E+01  0.75283301735E+02  0.16128412637E+03  0.12509000000E+03 0.  0.
         25    1    4    4    0    0  0.10120855783E+02  0.58925708750E+02  0.63246683985E+02  0.15238872008E+03  0.12509000000E+03 0.  0.
<mgrwt>
<rscale>  2 0.44337243E+03</rscale>
<asrwt>0</asrwt>
<pdfrwt beam="1">  1       21 0.49101885E-01 0.44337243E+03</pdfrwt>
<pdfrwt beam="2">  1       21 0.21645189E-01 0.44337243E+03</pdfrwt>
<totfact> 0.73143533E+04</totfact>
</mgrwt>
</event>
<event>
 7    0  0.4766352E-002  0.4561474E+03  0.7546771E-02  0.1025905E+00
         21   -1    0    0  502  501  0.00000000000E+00  0.00000000000E+00  0.10379772031E+04  0.10379772031E+04  0.00000000000E+00 0.  1.
         21   -1    0    0  501  502 -0.00000000000E+00 -0.00000000000E+00 -0.50114402922E+02  0.50114402922E+02  0.00000000000E+00 0.  1.
      99926    2    1    2    0    0  0.00000000000E+00  0.00000000000E+00  0.98786280022E+03  0.10880916061E+04  0.45614737874E+03 0.  0.
      99925    2    3    3    0    0  0.18439449403E+02 -0.77431917984E+02  0.42580175805E+03  0.50680352048E+03  0.26307214979E+03 0.  0.
         25    1    4    4    0    0 -0.22553632278E+02 -0.22062728476E+02  0.23984452198E+03  0.27233863689E+03  0.12509000000E+03 0.  0.
         25    1    3    3    0    0 -0.18439449403E+02  0.77431917984E+02  0.56206104217E+03  0.58128808558E+03  0.12509000000E+03 0.  0.
         25    1    4    4    0    0  0.40993081681E+02 -0.55369189507E+02  0.18595723607E+03  0.23446488359E+03  0.12509000000E+03 0.  0.
<mgrwt>
<rscale>  2 0.45614738E+03</rscale>
<asrwt>0</asrwt>
<pdfrwt beam="1">  1       21 0.15264369E+00 0.45614738E+03</pdfrwt>
<pdfrwt beam="2">  1       21 0.73697658E-02 0.45614738E+03</pdfrwt>
<totfact> 0.35590255E+04</totfact>
</mgrwt>
</event>
<event>
 7    0  0.4766352E-002  0.4559015E+03  0.7546771E-02  0.1025977E+00
         21   -1    0    0  502  501  0.00000000000E+00  0.00000000000E+00  0.44601661792E+02  0.44601661792E+02  0.00000000000E+00 0.  1.
         21   -1    0    0  501  502 -0.00000000000E+00 -0.00000000000E+00 -0.11650137423E+04  0.11650137423E+04  0.00000000000E+00 0.  1.
      99926    2    1    2    0    0  0.00000000000E+00  0.00000000000E+00 -0.11204120806E+04  0.12096154041E+04  0.45590151971E+03 0.  0.
      99925    2    3    3    0    0 -0.84785284505E+01  0.10983147559E+03 -0.78239638219E+03  0.83273749431E+03  0.26300721871E+03 0.  0.
         25    1    4    4    0    0 -0.78980157807E+01  0.71885774072E+02 -0.30061087324E+03  0.33353312935E+03  0.12509000000E+03 0.  0.
         25    1    4    4    0    0 -0.58051266988E+00  0.37945701514E+02 -0.48178550895E+03  0.49920436496E+03  0.12509000000E+03 0.  0.
         25    1    3    3    0    0  0.84785284505E+01 -0.10983147559E+03 -0.33801569836E+03  0.37687790983E+03  0.12509000000E+03 0.  0.
<mgrwt>
<rscale>  2 0.45590152E+03</rscale>
<asrwt>0</asrwt>
<pdfrwt beam="1">  1       21 0.65590685E-02 0.45590152E+03</pdfrwt>
<pdfrwt beam="2">  1       21 0.17132553E+00 0.45590152E+03</pdfrwt>
<totfact> 0.31629983E+04</totfact>
</mgrwt>
</event>
<event>
 7    0  0.4766352E-002  0.4537587E+03  0.7546771E-02  0.1026607E+00
         21   -1    0    0  502  501  0.00000000000E+00  0.00000000000E+00  0.24891902728E+03  0.24891902728E+03  0.00000000000E+00 0. -1.
         21   -1    0    0  501  502 -0.00000000000E+00 -0.00000000000E+00 -0.20679112639E+03  0.20679112639E+03  0.00000000000E+00 0. -1.
      99926    2    1    2    0    0  0.00000000000E+00  0.00000000000E+00  0.42127900886E+02  0.45571015367E+03  0.45375872898E+03 0.  0.
      99925    2    3    3    0    0 -0.11023072504E+03  0.18920960854E+02  0.19825442772E+02  0.28643604685E+03  0.26295198278E+03 0.  0.
         25    1    4    4    0    0 -0.24817947801E+02 -0.14230007146E+01 -0.18509866281E+02  0.12887233494E+03  0.12509000000E+03 0.  0.
         25    1    4    4    0    0 -0.85412777241E+02  0.20343961568E+02  0.38335309053E+02  0.15756371190E+03  0.12509000000E+03 0.  0.
         25    1    3    3    0    0  0.11023072504E+03 -0.18920960854E+02  0.22302458114E+02  0.16927410682E+03  0.12509000000E+03 0.  0.
<mgrwt>
<rscale>  2 0.45375873E+03</rscale>
<asrwt>0</asrwt>
<pdfrwt beam="1">  1       21 0.36605739E-01 0.45375873E+03</pdfrwt>
<pdfrwt beam="2">  1       21 0.30410460E-01 0.45375873E+03</pdfrwt>
<totfact> 0.69176373E+04</totfact>
</mgrwt>
</event>
<event>
 7    0  0.4766352E-002  0.4528954E+03  0.7546771E-02  0.1026862E+00
         21   -1    0    0  502  501  0.00000000000E+00  0.00000000000E+00  0.10483590947E+04  0.10483590947E+04  0.00000000000E+00 0. -1.
         21   -1    0    0  501  502 -0.00000000000E+00 -0.00000000000E+00 -0.48913166157E+02  0.48913166157E+02  0.00000000000E+00 0. -1.
      99926    2    1    2    0    0  0.71054273576E-14  0.00000000000E+00  0.99944592854E+03  0.10972722609E+04  0.45289540775E+03 0.  0.
      99925    2    3    3    0    0  0.36919699235E+02  0.75326717410E+02  0.45365426928E+03  0.53108040118E+03  0.26307226751E+03 0.  0.
         25    1    3    3    0    0 -0.36919699235E+02 -0.75326717410E+02  0.54579165926E+03  0.56619185968E+03  0.12509000000E+03 0.  0.
         25    1    4    4    0    0  0.39160649190E+02  0.20438152920E+02  0.16491368367E+03  0.21164901536E+03  0.12509000000E+03 0.  0.
         25    1    4    4    0    0 -0.22409499557E+01  0.54888564490E+02  0.28874058561E+03  0.31943138582E+03  0.12509000000E+03 0.  0.
<mgrwt>
<rscale>  2 0.45289541E+03</rscale>
<asrwt>0</asrwt>
<pdfrwt beam="1">  1       21 0.15417044E+00 0.45289541E+03</pdfrwt>
<pdfrwt beam="2">  1       21 0.71931133E-02 0.45289541E+03</pdfrwt>
<totfact> 0.36179351E+04</totfact>
</mgrwt>
</event>
<event>
 7    0  0.4766352E-002  0.4566308E+03  0.7546771E-02  0.1025763E+00
         21   -1    0    0  502  501  0.00000000000E+00  0.00000000000E+00  0.27714214291E+03  0.27714214291E+03  0.00000000000E+00 0.  1.
         21   -1    0    0  501  502 -0.00000000000E+00 -0.00000000000E+00 -0.18809088443E+03  0.18809088443E+03  0.00000000000E+00 0.  1.
      99926    2    1    2    0    0  0.00000000000E+00  0.00000000000E+00  0.89051258481E+02  0.46523302734E+03  0.45663075136E+03 0.  0.
      99925    2    3    3    0    0  0.32774199639E+02 -0.84325694020E+02  0.12793204154E+03  0.30603442739E+03  0.26287923589E+03 0.  0.
         25    1    4    4    0    0 -0.28532909801E+01 -0.13557217301E+02  0.32875806676E+02  0.13007792347E+03  0.12509000000E+03 0.  0.
         25    1    3    3    0    0 -0.32774199639E+02  0.84325694020E+02 -0.38880783058E+02  0.15919859995E+03  0.12509000000E+03 0.  0.
         25    1    4    4    0    0  0.35627490619E+02 -0.70768476719E+02  0.95056234863E+02  0.17595650392E+03  0.12509000000E+03 0.  0.
<mgrwt>
<rscale>  2 0.45663075E+03</rscale>
<asrwt>0</asrwt>
<pdfrwt beam="1">  1       21 0.40756198E-01 0.45663075E+03</pdfrwt>
<pdfrwt beam="2">  1       21 0.27660424E-01 0.45663075E+03</pdfrwt>
<totfact> 0.66921179E+04</totfact>
</mgrwt>
</event>
<event>
 7    0  0.4766352E-002  0.4534047E+03  0.7546771E-02  0.1026712E+00
         21   -1    0    0  502  501  0.00000000000E+00  0.00000000000E+00  0.49603529419E+02  0.49603529419E+02  0.00000000000E+00 0.  1.
         21   -1    0    0  501  502 -0.00000000000E+00 -0.00000000000E+00 -0.10360948096E+04  0.10360948096E+04  0.00000000000E+00 0.  1.
      99926    2    1    2    0    0  0.00000000000E+00  0.00000000000E+00 -0.98649128020E+03  0.10856983390E+04  0.45340471709E+03 0.  0.
      99925    2    3    3    0    0 -0.65140210068E+01  0.53249851889E+02 -0.85613947637E+03  0.89723858191E+03  0.26302906810E+03 0.  0.
         25    1    4    4    0    0 -0.17755023480E+02  0.59682476480E+02 -0.51639100178E+03  0.53496206752E+03  0.12509000000E+03 0.  0.
         25    1    3    3    0    0  0.65140210068E+01 -0.53249851889E+02 -0.13035180383E+03  0.18845975713E+03  0.12509000000E+03 0.  0.
         25    1    4    4    0    0  0.11241002473E+02 -0.64326245911E+01 -0.33974847459E+03  0.36227651439E+03  0.12509000000E+03 0.  0.
<mgrwt>
<rscale>  2 0.45340472E+03</rscale>
<asrwt>0</asrwt>
<pdfrwt beam="1">  1       21 0.72946373E-02 0.45340472E+03</pdfrwt>
<pdfrwt beam="2">  1       21 0.15236687E+00 0.45340472E+03</pdfrwt>
<totfact> 0.36445642E+04</totfact>
</mgrwt>
</event>
<event>
 7    0  0.4766352E-002  0.4574817E+03  0.7546771E-02  0.1025514E+00
         21   -1    0    0  502  501  0.00000000000E+00  0.00000000000E+00  0.77885157863E+03  0.77885157863E+03  0.00000000000E+00 0. -1.
         21   -1    0    0  501  502 -0.00000000000E+00 -0.00000000000E+00 -0.67178891477E+02  0.67178891477E+02  0.00000000000E+00 0. -1.
      99926    2    1    2    0    0  0.00000000000E+00  0.00000000000E+00  0.71167268715E+03  0.84603047010E+03  0.45748174030E+03 0.  0.
      99925    2    3    3    0    0 -0.80422424695E+02 -0.77761630501E+02  0.49956078922E+03  0.57556124280E+03  0.26304966170E+03 0.  0.
         25    1    4    4    0    0 -0.51612252116E+02 -0.52538359803E+02  0.33675081863E+03  0.36670523008E+03  0.12509000000E+03 0.  0.
         25    1    3    3    0    0  0.80422424695E+02  0.77761630501E+02  0.21211189793E+03  0.27046922730E+03  0.12509000000E+03 0.  0.
         25    1    4    4    0    0 -0.28810172579E+02 -0.25223270698E+02  0.16280997059E+03  0.20885601273E+03  0.12509000000E+03 0.  0.
<mgrwt>
<rscale>  2 0.45748174E+03</rscale>
<asrwt>0</asrwt>
<pdfrwt beam="1">  1       21 0.11453699E+00 0.45748174E+03</pdfrwt>
<pdfrwt beam="2">  1       21 0.98792492E-02 0.45748174E+03</pdfrwt>
<totfact> 0.44740046E+04</totfact>
</mgrwt>
</event>
<event>
 7    0  0.4766352E-002  0.4598334E+03  0.7546771E-02  0.1024830E+00
         21   -1    0    0  502  501  0.00000000000E+00  0.00000000000E+00  0.21251782449E+03  0.21251782449E+03  0.00000000000E+00 0.  1.
         21   -1    0    0  501  502 -0.00000000000E+00 -0.00000000000E+00 -0.24874001606E+03  0.24874001606E+03  0.00000000000E+00 0.  1.
      99926    2    1    2    0    0 -0.71054273576E-14  0.14210854715E-13 -0.36222191570E+02  0.46125784055E+03  0.45983339190E+03 0.  0.
      99925    2    3    3    0    0  0.44894958720E+02 -0.10654956697E+03 -0.44326043240E+02  0.29072471165E+03  0.26303553432E+03 0.  0.
         25    1    3    3    0    0 -0.44894958720E+02  0.10654956697E+03  0.81038516694E+01  0.17053312890E+03  0.12509000000E+03 0.  0.
         25    1    4    4    0    0  0.55452893117E+01 -0.49086725269E+02 -0.58882276805E+02  0.14681582835E+03  0.12509000000E+03 0.  0.
         25    1    4    4    0    0  0.39349669408E+02 -0.57462841704E+02  0.14556233566E+02  0.14390888331E+03  0.12509000000E+03 0.  0.
<mgrwt>
<rscale>  2 0.45983339E+03</rscale>
<asrwt>0</asrwt>
<pdfrwt beam="1">  1       21 0.31252621E-01 0.45983339E+03</pdfrwt>
<pdfrwt beam="2">  1       21 0.36579414E-01 0.45983339E+03</pdfrwt>
<totfact> 0.65526131E+04</totfact>
</mgrwt>
</event>
<event>
 7    0  0.4766352E-002  0.4554808E+03  0.7546771E-02  0.1026100E+00
         21   -1    0    0  502  501  0.00000000000E+00  0.00000000000E+00  0.18158269039E+03  0.18158269039E+03  0.00000000000E+00 0.  1.
         21   -1    0    0  501  502 -0.00000000000E+00 -0.00000000000E+00 -0.28563120058E+03  0.28563120058E+03  0.00000000000E+00 0.  1.
      99926    2    1    2    0    0 -0.35527136788E-14 -0.14210854715E-13 -0.10404851018E+03  0.46721389097E+03  0.45548076518E+03 0.  0.
      99925    2    3    3    0    0  0.14353747711E+02  0.10720317607E+03 -0.29574702061E+02  0.28585125086E+03  0.26294053241E+03 0.  0.
         25    1    4    4    0    0 -0.18945128263E+02  0.20005196672E+02 -0.86742222937E+01  0.12838175887E+03  0.12509000000E+03 0.  0.
         25    1    4    4    0    0  0.33298875975E+02  0.87197979396E+02 -0.20900479767E+02  0.15746949199E+03  0.12509000000E+03 0.  0.
         25    1    3    3    0    0 -0.14353747711E+02 -0.10720317607E+03 -0.74473808123E+02  0.18136264011E+03  0.12509000000E+03 0.  0.
<mgrwt>
<rscale>  2 0.45548077E+03</rscale>
<asrwt>0</asrwt>
<pdfrwt beam="1">  1       21 0.26703337E-01 0.45548077E+03</pdfrwt>
<pdfrwt beam="2">  1       21 0.42004588E-01 0.45548077E+03</pdfrwt>
<totfact> 0.67386438E+04</totfact>
</mgrwt>
</event>
<event>
 7    0  0.4766352E-002  0.4584539E+03  0.7546771E-02  0.1025231E+00
         21   -1    0    0  502  501  0.00000000000E+00  0.00000000000E+00  0.89811336962E+03  0.89811336962E+03  0.00000000000E+00 0. -1.
         21   -1    0    0  501  502 -0.00000000000E+00 -0.00000000000E+00 -0.58505961774E+02  0.58505961774E+02  0.00000000000E+00 0. -1.
      99926    2    1    2    0    0 -0.14210854715E-13  0.00000000000E+00  0.83960740785E+03  0.95661933140E+03  0.45845386451E+03 0.  0.
      99925    2    3    3    0    0 -0.10348903387E+03  0.48186833780E+02  0.47908946593E+03  0.55830708500E+03  0.26296032727E+03 0.  0.
         25    1    4    4    0    0 -0.59415448117E+02  0.44511094426E+02  0.31743709850E+03  0.34917796695E+03  0.12509000000E+03 0.  0.
         25    1    3    3    0    0  0.10348903387E+03 -0.48186833780E+02  0.36051794192E+03  0.39831224639E+03  0.12509000000E+03 0.  0.
         25    1    4    4    0    0 -0.44073585751E+02  0.36757393538E+01  0.16165236743E+03  0.20912911805E+03  0.12509000000E+03 0.  0.
<mgrwt>
<rscale>  2 0.45845386E+03</rscale>
<asrwt>0</asrwt>
<pdfrwt beam="1">  1       21 0.13207549E+00 0.45845386E+03</pdfrwt>
<pdfrwt beam="2">  1       21 0.86038185E-02 0.45845386E+03</pdfrwt>
<totfact> 0.39788476E+04</totfact>
</mgrwt>
</event>
<event>
 7    0  0.4766352E-002  0.4593029E+03  0.7546771E-02  0.1024984E+00
         21   -1    0    0  502  501  0.00000000000E+00  0.00000000000E+00  0.10226608670E+04  0.10226608670E+04  0.00000000000E+00 0. -1.
         21   -1    0    0  501  502 -0.00000000000E+00 -0.00000000000E+00 -0.51571151001E+02  0.51571151001E+02  0.00000000000E+00 0. -1.
      99926    2    1    2    0    0  0.00000000000E+00  0.00000000000E+00  0.97108971603E+03  0.10742320180E+04  0.45930294141E+03 0.  0.
      99925    2    3    3    0    0  0.33708284878E+02 -0.11806649489E+02  0.34759743498E+03  0.43731304511E+03  0.26295071245E+03 0.  0.
         25    1    3    3    0    0 -0.33708284878E+02  0.11806649489E+02  0.62349228105E+03  0.63691897292E+03  0.12509000000E+03 0.  0.
         25    1    4    4    0    0 -0.20392652407E+02 -0.39361502351E+01  0.14039327523E+03  0.18918016117E+03  0.12509000000E+03 0.  0.
         25    1    4    4    0    0  0.54100937284E+02 -0.78704992542E+01  0.20720415976E+03  0.24813288394E+03  0.12509000000E+03 0.  0.
<mgrwt>
<rscale>  2 0.45930294E+03</rscale>
<asrwt>0</asrwt>
<pdfrwt beam="1">  1       21 0.15039129E+00 0.45930294E+03</pdfrwt>
<pdfrwt beam="2">  1       21 0.75839934E-02 0.45930294E+03</pdfrwt>
<totfact> 0.35203648E+04</totfact>
</mgrwt>
</event>
<event>
 7    0  0.4766352E-002  0.4517098E+03  0.7546771E-02  0.1027213E+00
         21   -1    0    0  502  501  0.00000000000E+00  0.00000000000E+00  0.52644219369E+02  0.52644219369E+02  0.00000000000E+00 0.  1.
         21   -1    0    0  501  502 -0.00000000000E+00 -0.00000000000E+00 -0.96896553583E+03  0.96896553583E+03  0.00000000000E+00 0.  1.
      99926    2    1    2    0    0  0.00000000000E+00  0.71054273576E-14 -0.91632131646E+03  0.10216097552E+04  0.45170979280E+03 0.  0.
      99925    2    3    3    0    0 -0.92524115098E+02  0.59419853966E+02 -0.57692623454E+03  0.64355161066E+03  0.26310333438E+03 0.  0.
         25    1    4    4    0    0 -0.77939064507E+01  0.20730021625E+02 -0.22008206006E+03  0.25411434441E+03  0.12509000000E+03 0.  0.
         25    1    3    3    0    0  0.92524115098E+02 -0.59419853966E+02 -0.33939508191E+03  0.37805814453E+03  0.12509000000E+03 0.  0.
         25    1    4    4    0    0 -0.84730208647E+02  0.38689832342E+02 -0.35684417448E+03  0.38943726625E+03  0.12509000000E+03 0.  0.
<mgrwt>
<rscale>  2 0.45170979E+03</rscale>
<asrwt>0</asrwt>
<pdfrwt beam="1">  1       21 0.77417961E-02 0.45170979E+03</pdfrwt>
<pdfrwt beam="2">  1       21 0.14249495E+00 0.45170979E+03</pdfrwt>
<totfact> 0.39337506E+04</totfact>
</mgrwt>
</event>
<event>
 7    0  0.4766352E-002  0.4596192E+03  0.7546771E-02  0.1024892E+00
         21   -1    0    0  502  501  0.00000000000E+00  0.00000000000E+00  0.10143347061E+03  0.10143347061E+03  0.00000000000E+00 0.  1.
         21   -1    0    0  501  502 -0.00000000000E+00 -0.00000000000E+00 -0.52066096297E+03  0.52066096297E+03  0.00000000000E+00 0.  1.
      99926    2    1    2    0    0  0.00000000000E+00  0.44408920985E-15 -0.41922749236E+03  0.62209443358E+03  0.45961918361E+03 0.  0.
      99925    2    3    3    0    0  0.86254231722E+01  0.64353954727E-01 -0.10377914138E+03  0.28263961729E+03  0.26275585819E+03 0.  0.
         25    1    4    4    0    0  0.85279646586E+01  0.55281669341E+01 -0.94179718130E+01  0.12585504799E+03  0.12509000000E+03 0.  0.
         25    1    3    3    0    0 -0.86254231722E+01 -0.64353954727E-01 -0.31544835098E+03  0.33945481629E+03  0.12509000000E+03 0.  0.
         25    1    4    4    0    0  0.97458513625E-01 -0.54638129794E+01 -0.94361169566E+02  0.15678456931E+03  0.12509000000E+03 0.  0.
<mgrwt>
<rscale>  2 0.45961918E+03</rscale>
<asrwt>0</asrwt>
<pdfrwt beam="1">  1       21 0.14916687E-01 0.45961918E+03</pdfrwt>
<pdfrwt beam="2">  1       21 0.76567789E-01 0.45961918E+03</pdfrwt>
<totfact> 0.55293926E+04</totfact>
</mgrwt>
</event>
<event>
 7    0  0.4766352E-002  0.4489045E+03  0.7546771E-02  0.1028049E+00
         21   -1    0    0  502  501  0.00000000000E+00  0.00000000000E+00  0.48379729274E+03  0.48379729274E+03  0.00000000000E+00 0.  1.
         21   -1    0    0  501  502 -0.00000000000E+00 -0.00000000000E+00 -0.10413204613E+03  0.10413204613E+03  0.00000000000E+00 0.  1.
      99926    2    1    2    0    0  0.00000000000E+00  0.35527136788E-14  0.37966524661E+03  0.58792933887E+03  0.44890445311E+03 0.  0.
      99925    2    3    3    0    0 -0.13802245848E+02 -0.26479835938E+02  0.10558043483E+03  0.28517254563E+03  0.26321943101E+03 0.  0.
         25    1    3    3    0    0  0.13802245848E+02  0.26479835938E+02  0.27408481178E+03  0.30275679324E+03  0.12509000000E+03 0.  0.
         25    1    4    4    0    0 -0.28713159349E+02  0.12626875027E+02  0.27409877920E+02  0.13184344125E+03  0.12509000000E+03 0.  0.
         25    1    4    4    0    0  0.14910913500E+02 -0.39106710965E+02  0.78170556911E+02  0.15332910439E+03  0.12509000000E+03 0.  0.
<mgrwt>
<rscale>  2 0.44890445E+03</rscale>
<asrwt>0</asrwt>
<pdfrwt beam="1">  1       21 0.71146660E-01 0.44890445E+03</pdfrwt>
<pdfrwt beam="2">  1       21 0.15313536E-01 0.44890445E+03</pdfrwt>
<totfact> 0.62378867E+04</totfact>
</mgrwt>
</event>
<event>
 7    0  0.4766352E-002  0.4558055E+03  0.7546771E-02  0.1026005E+00
         21   -1    0    0  502  501  0.00000000000E+00  0.00000000000E+00  0.28320504606E+02  0.28320504606E+02  0.00000000000E+00 0. -1.
         21   -1    0    0  501  502 -0.00000000000E+00 -0.00000000000E+00 -0.18339948212E+04  0.18339948212E+04  0.00000000000E+00 0. -1.
      99926    2    1    2    0    0  0.00000000000E+00  0.35527136788E-14 -0.18056743166E+04  0.18623153258E+04  0.45580547949E+03 0.  0.
      99925    2    3    3    0    0 -0.10172595410E+03  0.25106009599E+02 -0.13197142495E+04  0.13496915102E+04  0.26276032961E+03 0.  0.
         25    1    4    4    0    0 -0.37522535895E+02  0.50227812786E+02 -0.67331488584E+03  0.68769994727E+03  0.12509000000E+03 0.  0.
         25    1    3    3    0    0  0.10172595410E+03 -0.25106009599E+02 -0.48596006709E+03  0.51262381564E+03  0.12509000000E+03 0.  0.
         25    1    4    4    0    0 -0.64203418209E+02 -0.25121803187E+02 -0.64639936370E+03  0.66199156294E+03  0.12509000000E+03 0.  0.
<mgrwt>
<rscale>  2 0.45580548E+03</rscale>
<asrwt>0</asrwt>
<pdfrwt beam="1">  1       21 0.41647803E-02 0.45580548E+03</pdfrwt>
<pdfrwt beam="2">  1       21 0.26970510E+00 0.45580548E+03</pdfrwt>
<totfact> 0.15990662E+04</totfact>
</mgrwt>
</event>
<event>
 7    0  0.4766352E-002  0.4510461E+03  0.7546771E-02  0.1027411E+00
         21   -1    0    0  502  501  0.00000000000E+00  0.00000000000E+00  0.71757225507E+02  0.71757225507E+02  0.00000000000E+00 0. -1.
         21   -1    0    0  501  502 -0.00000000000E+00 -0.00000000000E+00 -0.70878780227E+03  0.70878780227E+03  0.00000000000E+00 0. -1.
      99926    2    1    2    0    0 -0.71054273576E-14  0.00000000000E+00 -0.63703057677E+03  0.78054502778E+03  0.45104610037E+03 0.  0.
      99925    2    3    3    0    0 -0.61519183427E+02 -0.90453135802E+02 -0.40700573798E+03  0.49677520157E+03  0.26299344183E+03 0.  0.
         25    1    4    4    0    0  0.97733433591E+01 -0.40044742106E+02 -0.20446128921E+03  0.24320984046E+03  0.12509000000E+03 0.  0.
         25    1    4    4    0    0 -0.71292526786E+02 -0.50408393696E+02 -0.20254444877E+03  0.25356536111E+03  0.12509000000E+03 0.  0.
         25    1    3    3    0    0  0.61519183427E+02  0.90453135802E+02 -0.23002483879E+03  0.28376982621E+03  0.12509000000E+03 0.  0.
<mgrwt>
<rscale>  2 0.45104610E+03</rscale>
<asrwt>0</asrwt>
<pdfrwt beam="1">  1       21 0.10552533E-01 0.45104610E+03</pdfrwt>
<pdfrwt beam="2">  1       21 0.10423350E+00 0.45104610E+03</pdfrwt>
<totfact> 0.50262081E+04</totfact>
</mgrwt>
</event>
<event>
 7    0  0.4766352E-002  0.4581895E+03  0.7546771E-02  0.1025308E+00
         21   -1    0    0  502  501  0.00000000000E+00  0.00000000000E+00  0.50191194881E+03  0.50191194881E+03  0.00000000000E+00 0. -1.
         21   -1    0    0  501  502 -0.00000000000E+00 -0.00000000000E+00 -0.10456896737E+03  0.10456896737E+03  0.00000000000E+00 0. -1.
      99926    2    1    2    0    0 -0.14210854715E-13  0.00000000000E+00  0.39734298144E+03  0.60648091617E+03  0.45818954242E+03 0.  0.
      99925    2    3    3    0    0  0.78089487254E+02 -0.44770193480E+02  0.34651421841E+03  0.44420519558E+03  0.26295211346E+03 0.  0.
         25    1    3    3    0    0 -0.78089487254E+02  0.44770193480E+02  0.50828763030E+02  0.16227572060E+03  0.12509000000E+03 0.  0.
         25    1    4    4    0    0  0.79545762875E+02 -0.33471825437E+02  0.20080420265E+03  0.25182876601E+03  0.12509000000E+03 0.  0.
         25    1    4    4    0    0 -0.14562756215E+01 -0.11298368043E+02  0.14571001576E+03  0.19237642956E+03  0.12509000000E+03 0.  0.
<mgrwt>
<rscale>  2 0.45818954E+03</rscale>
<asrwt>0</asrwt>
<pdfrwt beam="1">  1       21 0.73810580E-01 0.45818954E+03</pdfrwt>
<pdfrwt beam="2">  1       21 0.15377790E-01 0.45818954E+03</pdfrwt>
<totfact> 0.56835435E+04</totfact>
</mgrwt>
</event>
<event>
 7    0  0.4766352E-002  0.4559649E+03  0.7546771E-02  0.1025958E+00
         21   -1    0    0  502  501  0.00000000000E+00  0.00000000000E+00  0.28020869630E+03  0.28020869630E+03  0.00000000000E+00 0.  1.
         21   -1    0    0  501  502 -0.00000000000E+00 -0.00000000000E+00 -0.18549032547E+03  0.18549032547E+03  0.00000000000E+00 0.  1.
      99926    2    1    2    0    0 -0.35527136788E-14  0.00000000000E+00  0.94718370827E+02  0.46569902177E+03  0.45596492091E+03 0.  0.
      99925    2    3    3    0    0  0.27307476939E+02 -0.10401316988E+03  0.20712796011E+02  0.28489865946E+03  0.26300910334E+03 0.  0.
         25    1    3    3    0    0 -0.27307476939E+02  0.10401316988E+03  0.74005574816E+02  0.18080036231E+03  0.12509000000E+03 0.  0.
         25    1    4    4    0    0  0.19653394826E+02 -0.83759200736E+02  0.38714588428E+02  0.15667861084E+03  0.12509000000E+03 0.  0.
         25    1    4    4    0    0  0.76540821132E+01 -0.20253969147E+02 -0.18001792417E+02  0.12822004863E+03  0.12509000000E+03 0.  0.
<mgrwt>
<rscale>  2 0.45596492E+03</rscale>
<asrwt>0</asrwt>
<pdfrwt beam="1">  1       21 0.41207162E-01 0.45596492E+03</pdfrwt>
<pdfrwt beam="2">  1       21 0.27277989E-01 0.45596492E+03</pdfrwt>
<totfact> 0.67241191E+04</totfact>
</mgrwt>
</event>
<event>
 7    0  0.4766352E-002  0.4511144E+03  0.7546771E-02  0.1027390E+00
         21   -1    0    0  502  501  0.00000000000E+00  0.00000000000E+00  0.56922871426E+03  0.56922871426E+03  0.00000000000E+00 0.  1.
         21   -1    0    0  501  502 -0.00000000000E+00 -0.00000000000E+00 -0.89377173544E+02  0.89377173544E+02  0.00000000000E+00 0.  1.
      99926    2    1    2    0    0 -0.17763568394E-14  0.00000000000E+00  0.47985154072E+03  0.65860588781E+03  0.45111441378E+03 0.  0.
      99925    2    3    3    0    0  0.11172716040E+02 -0.97817254449E+02  0.23419196421E+03  0.36587874441E+03  0.26330274335E+03 0.  0.
         25    1    4    4    0    0  0.25353784883E+02 -0.26472217096E+02  0.14896317017E+03  0.19794223110E+03  0.12509000000E+03 0.  0.
         25    1    3    3    0    0 -0.11172716040E+02  0.97817254449E+02  0.24565957651E+03  0.29272714340E+03  0.12509000000E+03 0.  0.
         25    1    4    4    0    0 -0.14181068843E+02 -0.71345037353E+02  0.85228794042E+02  0.16793651331E+03  0.12509000000E+03 0.  0.
<mgrwt>
<rscale>  2 0.45111441E+03</rscale>
<asrwt>0</asrwt>
<pdfrwt beam="1">  1       21 0.83710103E-01 0.45111441E+03</pdfrwt>
<pdfrwt beam="2">  1       21 0.13143702E-01 0.45111441E+03</pdfrwt>
<totfact> 0.56932624E+04</totfact>
</mgrwt>
</event>
<event>
 7    0  0.4766352E-002  0.4468956E+03  0.7546771E-02  0.1028652E+00
         21   -1    0    0  502  501  0.00000000000E+00  0.00000000000E+00  0.18458532142E+03  0.18458532142E+03  0.00000000000E+00 0. -1.
         21   -1    0    0  501  502 -0.00000000000E+00 -0.00000000000E+00 -0.27049231598E+03  0.27049231598E+03  0.00000000000E+00 0. -1.
      99926    2    1    2    0    0 -0.14210854715E-13  0.00000000000E+00 -0.85906994553E+02  0.45507763740E+03  0.44689556313E+03 0.  0.
      99925    2    3    3    0    0  0.95534057558E+02  0.44314991398E+02 -0.54959678228E+02  0.28865702839E+03  0.26308124067E+03 0.  0.
         25    1    3    3    0    0 -0.95534057558E+02 -0.44314991398E+02 -0.30947316326E+02  0.16642060901E+03  0.12509000000E+03 0.  0.
         25    1    4    4    0    0  0.70210546455E+02 -0.12841153479E+01 -0.29253735970E+01  0.14348252750E+03  0.12509000000E+03 0.  0.
         25    1    4    4    0    0  0.25323511103E+02  0.45599106745E+02 -0.52034304631E+02  0.14517450089E+03  0.12509000000E+03 0.  0.
<mgrwt>
<rscale>  2 0.44689556E+03</rscale>
<asrwt>0</asrwt>
<pdfrwt beam="1">  1       21 0.27144901E-01 0.44689556E+03</pdfrwt>
<pdfrwt beam="2">  1       21 0.39778281E-01 0.44689556E+03</pdfrwt>
<totfact> 0.73153490E+04</totfact>
</mgrwt>
</event>
<event>
 7    0  0.4766352E-002  0.4542115E+03  0.7546771E-02  0.1026474E+00
         21   -1    0    0  502  501  0.00000000000E+00  0.00000000000E+00  0.11773242337E+03  0.11773242337E+03  0.00000000000E+00 0. -1.
         21   -1    0    0  501  502 -0.00000000000E+00 -0.00000000000E+00 -0.43808688741E+03  0.43808688741E+03  0.00000000000E+00 0. -1.
      99926    2    1    2    0    0 -0.14210854715E-13  0.35527136788E-14 -0.32035446405E+03  0.55581931078E+03  0.45421154058E+03 0.  0.
      99925    2    3    3    0    0  0.95274583542E+02 -0.20618536386E+02 -0.13341148915E+03  0.31067128555E+03  0.26308867690E+03 0.  0.
         25    1    3    3    0    0 -0.95274583542E+02  0.20618536386E+02 -0.18694297489E+03  0.24514802523E+03  0.12509000000E+03 0.  0.
         25    1    4    4    0    0  0.29662186990E+02  0.23299204015E+02 -0.81067290314E+02  0.15375991644E+03  0.12509000000E+03 0.  0.
         25    1    4    4    0    0  0.65612396552E+02 -0.43917740401E+02 -0.52344198837E+02  0.15691136911E+03  0.12509000000E+03 0.  0.
<mgrwt>
<rscale>  2 0.45421154E+03</rscale>
<asrwt>0</asrwt>
<pdfrwt beam="1">  1       21 0.17313592E-01 0.45421154E+03</pdfrwt>
<pdfrwt beam="2">  1       21 0.64424542E-01 0.45421154E+03</pdfrwt>
<totfact> 0.61868587E+04</totfact>
</mgrwt>
</event>
<event>
 7    0  0.4766352E-002  0.4541951E+03  0.7546771E-02  0.1026478E+00
         21   -1    0    0  502  501  0.00000000000E+00  0.00000000000E+00  0.52949143928E+03  0.52949143928E+03  0.00000000000E+00 0.  1.
         21   -1    0    0  501  502 -0.00000000000E+00 -0.00000000000E+00 -0.97401587565E+02  0.97401587565E+02  0.00000000000E+00 0.  1.
      99926    2    1    2    0    0 -0.17763568394E-14  0.00000000000E+00  0.43208985171E+03  0.62689302684E+03  0.45419514215E+03 0.  0.
      99925    2    3    3    0    0 -0.14649666520E+02 -0.69145487862E+02  0.15199104305E+03  0.31209378616E+03  0.26325945941E+03 0.  0.
         25    1    4    4    0    0 -0.11943507099E+02  0.36292468255E+01  0.90137731216E+02  0.15468722469E+03  0.12509000000E+03 0.  0.
         25    1    3    3    0    0  0.14649666520E+02  0.69145487862E+02  0.28009880866E+03  0.31479924069E+03  0.12509000000E+03 0.  0.
         25    1    4    4    0    0 -0.27061594207E+01 -0.72774734687E+02  0.61853311831E+02  0.15740656146E+03  0.12509000000E+03 0.  0.
<mgrwt>
<rscale>  2 0.45419514E+03</rscale>
<asrwt>0</asrwt>
<pdfrwt beam="1">  1       21 0.77866387E-01 0.45419514E+03</pdfrwt>
<pdfrwt beam="2">  1       21 0.14323763E-01 0.45419514E+03</pdfrwt>
<totfact> 0.57416695E+04</totfact>
</mgrwt>
</event>
<event>
 7    0  0.4766352E-002  0.4530806E+03  0.7546771E-02  0.1026807E+00
         21   -1    0    0  502  501  0.00000000000E+00  0.00000000000E+00  0.18360881315E+03  0.18360881315E+03  0.00000000000E+00 0. -1.
         21   -1    0    0  501  502 -0.00000000000E+00 -0.00000000000E+00 -0.27951006862E+03  0.27951006862E+03  0.00000000000E+00 0. -1.
      99926    2    1    2    0    0  0.00000000000E+00  0.00000000000E+00 -0.95901255467E+02  0.46311888178E+03  0.45308061960E+03 0.  0.
      99925    2    3    3    0    0 -0.97314527253E+02 -0.48311598703E+02 -0.85116135539E+02  0.29708287756E+03  0.26307670331E+03 0.  0.
         25    1    4    4    0    0 -0.64366454546E+02  0.11372890970E+01 -0.71833518971E+02  0.15796169297E+03  0.12509000000E+03 0.  0.
         25    1    4    4    0    0 -0.32948072707E+02 -0.49448887800E+02 -0.13282616567E+02  0.13912118459E+03  0.12509000000E+03 0.  0.
         25    1    3    3    0    0  0.97314527253E+02  0.48311598703E+02 -0.10785119928E+02  0.16603600421E+03  0.12509000000E+03 0.  0.
<mgrwt>
<rscale>  2 0.45308062E+03</rscale>
<asrwt>0</asrwt>
<pdfrwt beam="1">  1       21 0.27001296E-01 0.45308062E+03</pdfrwt>
<pdfrwt beam="2">  1       21 0.41104421E-01 0.45308062E+03</pdfrwt>
<totfact> 0.68996081E+04</totfact>
</mgrwt>
</event>
<event>
 7    0  0.4766352E-002  0.4587776E+03  0.7546771E-02  0.1025136E+00
         21   -1    0    0  502  501  0.00000000000E+00  0.00000000000E+00  0.11645153806E+04  0.11645153806E+04  0.00000000000E+00 0.  1.
         21   -1    0    0  501  502 -0.00000000000E+00 -0.00000000000E+00 -0.45185505429E+02  0.45185505429E+02  0.00000000000E+00 0.  1.
      99926    2    1    2    0    0 -0.71054273576E-14  0.00000000000E+00  0.11193298751E+04  0.12097008860E+04  0.45877757595E+03 0.  0.
      99925    2    3    3    0    0 -0.53379425323E+02  0.96502849651E+02  0.60237736530E+03  0.66651623179E+03  0.26310308621E+03 0.  0.
         25    1    3    3    0    0  0.53379425323E+02 -0.96502849651E+02  0.51695250982E+03  0.54318465419E+03  0.12509000000E+03 0.  0.
         25    1    4    4    0    0 -0.22370139094E+02  0.60105574232E+02  0.39871771183E+03  0.42277230870E+03  0.12509000000E+03 0.  0.
         25    1    4    4    0    0 -0.31009286229E+02  0.36397275419E+02  0.20365965347E+03  0.24374392309E+03  0.12509000000E+03 0.  0.
<mgrwt>
<rscale>  2 0.45877758E+03</rscale>
<asrwt>0</asrwt>
<pdfrwt beam="1">  1       21 0.17125224E+00 0.45877758E+03</pdfrwt>
<pdfrwt beam="2">  1       21 0.66449280E-02 0.45877758E+03</pdfrwt>
<totfact> 0.30929831E+04</totfact>
</mgrwt>
</event>
<event>
 7    0  0.4766352E-002  0.4521456E+03  0.7546771E-02  0.1027084E+00
         21   -1    0    0  502  501  0.00000000000E+00  0.00000000000E+00  0.86908581811E+02  0.86908581811E+02  0.00000000000E+00 0. -1.
         21   -1    0    0  501  502 -0.00000000000E+00 -0.00000000000E+00 -0.58807662040E+03  0.58807662040E+03  0.00000000000E+00 0. -1.
      99926    2    1    2    0    0  0.00000000000E+00  0.00000000000E+00 -0.50116803858E+03  0.67498520221E+03  0.45214557423E+03 0.  0.
      99925    2    3    3    0    0  0.81408303845E+02 -0.55655461667E+02 -0.39027729673E+03  0.48089989345E+03  0.26310358573E+03 0.  0.
         25    1    4    4    0    0  0.32071732279E+02 -0.66097116802E+02 -0.18157709212E+03  0.23241164632E+03  0.12509000000E+03 0.  0.
         25    1    3    3    0    0 -0.81408303845E+02  0.55655461667E+02 -0.11089074185E+03  0.19408530876E+03  0.12509000000E+03 0.  0.
         25    1    4    4    0    0  0.49336571566E+02  0.10441655135E+02 -0.20870020461E+03  0.24848824713E+03  0.12509000000E+03 0.  0.
<mgrwt>
<rscale>  2 0.45214557E+03</rscale>
<asrwt>0</asrwt>
<pdfrwt beam="1">  1       21 0.12780674E-01 0.45214557E+03</pdfrwt>
<pdfrwt beam="2">  1       21 0.86481857E-01 0.45214557E+03</pdfrwt>
<totfact> 0.55520521E+04</totfact>
</mgrwt>
</event>
<event>
 7    0  0.4766352E-002  0.4461052E+03  0.7546771E-02  0.1028890E+00
         21   -1    0    0  502  501  0.00000000000E+00  0.00000000000E+00  0.18025868715E+04  0.18025868715E+04  0.00000000000E+00 0. -1.
         21   -1    0    0  501  502 -0.00000000000E+00 -0.00000000000E+00 -0.27600589831E+02  0.27600589831E+02  0.00000000000E+00 0. -1.
      99926    2    1    2    0    0  0.00000000000E+00  0.00000000000E+00  0.17749862817E+04  0.18301874613E+04  0.44610519331E+03 0.  0.
      99925    2    3    3    0    0  0.88085067215E+02  0.56259963076E+02  0.11318558448E+04  0.11667204844E+04  0.26308719632E+03 0.  0.
         25    1    4    4    0    0  0.32734669152E+02  0.22491378795E+02  0.38679988503E+03  0.40845939804E+03  0.12509000000E+03 0.  0.
         25    1    4    4    0    0  0.55350398063E+02  0.33768584280E+02  0.74505595976E+03  0.75826108639E+03  0.12509000000E+03 0.  0.
         25    1    3    3    0    0 -0.88085067215E+02 -0.56259963076E+02  0.64313043686E+03  0.66346697690E+03  0.12509000000E+03 0.  0.
<mgrwt>
<rscale>  2 0.44610519E+03</rscale>
<asrwt>0</asrwt>
<pdfrwt beam="1">  1       21 0.26508622E+00 0.44610519E+03</pdfrwt>
<pdfrwt beam="2">  1       21 0.40589115E-02 0.44610519E+03</pdfrwt>
<totfact> 0.17889999E+04</totfact>
</mgrwt>
</event>
<event>
 7    0  0.4766352E-002  0.4516806E+03  0.7546771E-02  0.1027222E+00
         21   -1    0    0  502  501  0.00000000000E+00  0.00000000000E+00  0.20846440100E+03  0.20846440100E+03  0.00000000000E+00 0.  1.
         21   -1    0    0  501  502 -0.00000000000E+00 -0.00000000000E+00 -0.24466448949E+03  0.24466448949E+03  0.00000000000E+00 0.  1.
      99926    2    1    2    0    0  0.00000000000E+00  0.00000000000E+00 -0.36200088496E+02  0.45312889049E+03  0.45168057850E+03 0.  0.
      99925    2    3    3    0    0  0.69787023796E+02 -0.74778972904E+02  0.17731828477E+02  0.28278135383E+03  0.26303755027E+03 0.  0.
         25    1    3    3    0    0 -0.69787023796E+02  0.74778972904E+02 -0.53931916973E+02  0.17034753666E+03  0.12509000000E+03 0.  0.
         25    1    4    4    0    0  0.13432578131E+02 -0.45303517312E+00  0.64926294077E+00  0.12581164111E+03  0.12509000000E+03 0.  0.
         25    1    4    4    0    0  0.56354445665E+02 -0.74325937731E+02  0.17082565536E+02  0.15696971272E+03  0.12509000000E+03 0.  0.
<mgrwt>
<rscale>  2 0.45168058E+03</rscale>
<asrwt>0</asrwt>
<pdfrwt beam="1">  1       21 0.30656530E-01 0.45168058E+03</pdfrwt>
<pdfrwt beam="2">  1       21 0.35980072E-01 0.45168058E+03</pdfrwt>
<totfact> 0.70532725E+04</totfact>
</mgrwt>
</event>
<event>
 7    0  0.4766352E-002  0.4561445E+03  0.7546771E-02  0.1025905E+00
         21   -1    0    0  502  501  0.00000000000E+00  0.00000000000E+00  0.35744520587E+03  0.35744520587E+03  0.00000000000E+00 0. -1.
         21   -1    0    0  501  502 -0.00000000000E+00 -0.00000000000E+00 -0.14552424959E+03  0.14552424959E+03  0.00000000000E+00 0. -1.
      99926    2    1    2    0    0  0.71054273576E-14  0.00000000000E+00  0.21192095628E+03  0.50296945545E+03  0.45614447427E+03 0.  0.
      99925    2    3    3    0    0  0.52481630256E+02 -0.27361826063E+02  0.24097656778E+03  0.36156674084E+03  0.26297872694E+03 0.  0.
         25    1    3    3    0    0 -0.52481630256E+02  0.27361826063E+02 -0.29055611502E+02  0.14140271461E+03  0.12509000000E+03 0.  0.
         25    1    4    4    0    0  0.45241865821E+02  0.20669611385E+02  0.10719865218E+03  0.17208462566E+03  0.12509000000E+03 0.  0.
         25    1    4    4    0    0  0.72397644345E+01 -0.48031437448E+02  0.13377791560E+03  0.18948211519E+03  0.12509000000E+03 0.  0.
<mgrwt>
<rscale>  2 0.45614447E+03</rscale>
<asrwt>0</asrwt>
<pdfrwt beam="1">  1       21 0.52565471E-01 0.45614447E+03</pdfrwt>
<pdfrwt beam="2">  1       21 0.21400625E-01 0.45614447E+03</pdfrwt>
<totfact> 0.64474832E+04</totfact>
</mgrwt>
</event>
<event>
 7    0  0.4766352E-002  0.4565371E+03  0.7546771E-02  0.1025790E+00
         21   -1    0    0  502  501  0.00000000000E+00  0.00000000000E+00  0.22054940727E+03  0.22054940727E+03  0.00000000000E+00 0. -1.
         21   -1    0    0  501  502 -0.00000000000E+00 -0.00000000000E+00 -0.23625788020E+03  0.23625788020E+03  0.00000000000E+00 0. -1.
      99926    2    1    2    0    0 -0.71054273576E-14 -0.35527136788E-14 -0.15708472931E+02  0.45680728747E+03  0.45653711981E+03 0.  0.
      99925    2    3    3    0    0 -0.42794555573E+02 -0.22209415155E+02 -0.11385909206E+03  0.29065770353E+03  0.26304633749E+03 0.  0.
         25    1    3    3    0    0  0.42794555573E+02  0.22209415155E+02  0.98150619131E+02  0.16614958394E+03  0.12509000000E+03 0.  0.
         25    1    4    4    0    0 -0.33774631330E+02  0.27971412809E+01 -0.96544779472E+02  0.16160740164E+03  0.12509000000E+03 0.  0.
         25    1    4    4    0    0 -0.90199242426E+01 -0.25006556436E+02 -0.17314312590E+02  0.12905030189E+03  0.12509000000E+03 0.  0.
<mgrwt>
<rscale>  2 0.45653712E+03</rscale>
<asrwt>0</asrwt>
<pdfrwt beam="1">  1       21 0.32433736E-01 0.45653712E+03</pdfrwt>
<pdfrwt beam="2">  1       21 0.34743806E-01 0.45653712E+03</pdfrwt>
<totfact> 0.67580948E+04</totfact>
</mgrwt>
</event>
<event>
 7    0  0.4766352E-002  0.4576056E+03  0.7546771E-02  0.1025478E+00
         21   -1    0    0  502  501  0.00000000000E+00  0.00000000000E+00  0.56829545290E+02  0.56829545290E+02  0.00000000000E+00 0. -1.
         21   -1    0    0  501  502 -0.00000000000E+00 -0.00000000000E+00 -0.92118864091E+03  0.92118864091E+03  0.00000000000E+00 0. -1.
      99926    2    1    2    0    0  0.00000000000E+00  0.00000000000E+00 -0.86435909562E+03  0.97801818620E+03  0.45760564502E+03 0.  0.
      99925    2    3    3    0    0 -0.10414481777E+03 -0.42071816662E+02 -0.60052490306E+03  0.66517290481E+03  0.26307537564E+03 0.  0.
         25    1    4    4    0    0 -0.65105760292E+02 -0.59543551138E+02 -0.34653534202E+03  0.37883828459E+03  0.12509000000E+03 0.  0.
         25    1    4    4    0    0 -0.39039057482E+02  0.17471734476E+02 -0.25398956104E+03  0.28633462021E+03  0.12509000000E+03 0.  0.
         25    1    3    3    0    0  0.10414481777E+03  0.42071816662E+02 -0.26383419256E+03  0.31284528140E+03  0.12509000000E+03 0.  0.
<mgrwt>
<rscale>  2 0.45760565E+03</rscale>
<asrwt>0</asrwt>
<pdfrwt beam="1">  1       21 0.83572864E-02 0.45760565E+03</pdfrwt>
<pdfrwt beam="2">  1       21 0.13546891E+00 0.45760565E+03</pdfrwt>
<totfact> 0.39221515E+04</totfact>
</mgrwt>
</event>
<event>
 7    0  0.4766352E-002  0.4754620E+03  0.7546771E-02  0.1020390E+00
         21   -1    0    0  502  501  0.00000000000E+00  0.00000000000E+00  0.10328557586E+04  0.10328557586E+04  0.00000000000E+00 0. -1.
         21   -1    0    0  501  502 -0.00000000000E+00 -0.00000000000E+00 -0.54718213550E+02  0.54718213550E+02  0.00000000000E+00 0. -1.
      99926    2    1    2    0    0  0.35527136788E-14  0.00000000000E+00  0.97813754504E+03  0.10875739721E+04  0.47546197310E+03 0.  0.
      99925    2    3    3    0    0  0.12606272994E+02 -0.12526335614E+03  0.69226141503E+03  0.75108846529E+03  0.26278924909E+03 0.  0.
         25    1    4    4    0    0 -0.19755213138E+02 -0.94228384284E+02  0.40081715700E+03  0.43077970971E+03  0.12509000000E+03 0.  0.
         25    1    4    4    0    0  0.32361486132E+02 -0.31034971861E+02  0.29144425803E+03  0.32030875558E+03  0.12509000000E+03 0.  0.
         25    1    3    3    0    0 -0.12606272994E+02  0.12526335614E+03  0.28587613001E+03  0.33648550685E+03  0.12509000000E+03 0.  0.
<mgrwt>
<rscale>  2 0.47546197E+03</rscale>
<asrwt>0</asrwt>
<pdfrwt beam="1">  1       21 0.15189054E+00 0.47546197E+03</pdfrwt>
<pdfrwt beam="2">  1       21 0.80467967E-02 0.47546197E+03</pdfrwt>
<totfact> 0.30722221E+04</totfact>
</mgrwt>
</event>
<event>
 7    0  0.4766352E-002  0.4532525E+03  0.7546771E-02  0.1026757E+00
         21   -1    0    0  502  501  0.00000000000E+00  0.00000000000E+00  0.18017417319E+03  0.18017417319E+03  0.00000000000E+00 0. -1.
         21   -1    0    0  501  502 -0.00000000000E+00 -0.00000000000E+00 -0.28505453706E+03  0.28505453706E+03  0.00000000000E+00 0. -1.
      99926    2    1    2    0    0  0.00000000000E+00 -0.14210854715E-13 -0.10488036387E+03  0.46522871025E+03  0.45325253680E+03 0.  0.
      99925    2    3    3    0    0  0.79452660772E+02  0.74813917126E+02 -0.89545315221E+02  0.29851782484E+03  0.26302980966E+03 0.  0.
         25    1    4    4    0    0  0.35065633913E+01  0.51252308559E+02 -0.57071146686E+02  0.14677778784E+03  0.12509000000E+03 0.  0.
         25    1    4    4    0    0  0.75946097381E+02  0.23561608567E+02 -0.32474168535E+02  0.15174003700E+03  0.12509000000E+03 0.  0.
         25    1    3    3    0    0 -0.79452660772E+02 -0.74813917126E+02 -0.15335048648E+02  0.16671088542E+03  0.12509000000E+03 0.  0.
<mgrwt>
<rscale>  2 0.45325254E+03</rscale>
<asrwt>0</asrwt>
<pdfrwt beam="1">  1       21 0.26496202E-01 0.45325254E+03</pdfrwt>
<pdfrwt beam="2">  1       21 0.41919784E-01 0.45325254E+03</pdfrwt>
<totfact> 0.68740399E+04</totfact>
</mgrwt>
</event>
<event>
 7    0  0.4766352E-002  0.4413224E+03  0.7546771E-02  0.1030342E+00
         21   -1    0    0  502  501  0.00000000000E+00  0.00000000000E+00  0.10950095836E+03  0.10950095836E+03  0.00000000000E+00 0.  1.
         21   -1    0    0  501  502 -0.00000000000E+00 -0.00000000000E+00 -0.44466608611E+03  0.44466608611E+03  0.00000000000E+00 0.  1.
      99926    2    1    2    0    0  0.00000000000E+00  0.00000000000E+00 -0.33516512775E+03  0.55416704447E+03  0.44132238819E+03 0.  0.
      99925    2    3    3    0    0  0.70294179834E+02 -0.68529929861E+02 -0.19060353919E+03  0.33926431300E+03  0.26293143958E+03 0.  0.
         25    1    3    3    0    0 -0.70294179834E+02  0.68529929861E+02 -0.14456158855E+03  0.21490273146E+03  0.12509000000E+03 0.  0.
         25    1    4    4    0    0  0.17970464129E+02 -0.59101640132E+02 -0.12909016985E+03  0.19007293731E+03  0.12509000000E+03 0.  0.
         25    1    4    4    0    0  0.52323715704E+02 -0.94282897288E+01 -0.61513369345E+02  0.14919137569E+03  0.12509000000E+03 0.  0.
<mgrwt>
<rscale>  2 0.44132239E+03</rscale>
<asrwt>0</asrwt>
<pdfrwt beam="1">  1       21 0.16103082E-01 0.44132239E+03</pdfrwt>
<pdfrwt beam="2">  1       21 0.65392072E-01 0.44132239E+03</pdfrwt>
<totfact> 0.68732542E+04</totfact>
</mgrwt>
</event>
<event>
 7    0  0.4766352E-002  0.4566913E+03  0.7546771E-02  0.1025745E+00
         21   -1    0    0  502  501  0.00000000000E+00  0.00000000000E+00  0.17504081506E+03  0.17504081506E+03  0.00000000000E+00 0. -1.
         21   -1    0    0  501  502 -0.00000000000E+00 -0.00000000000E+00 -0.29788334667E+03  0.29788334667E+03  0.00000000000E+00 0. -1.
      99926    2    1    2    0    0 -0.14210854715E-13  0.00000000000E+00 -0.12284253160E+03  0.47292416173E+03  0.45669133469E+03 0.  0.
      99925    2    3    3    0    0 -0.10997921758E+03  0.30169866964E+02 -0.57819573111E+02  0.29159258036E+03  0.26206388670E+03 0.  0.
         25    1    4    4    0    0 -0.80836712281E+02  0.45651682043E+02 -0.41413095405E+02  0.16118685646E+03  0.12509000000E+03 0.  0.
         25    1    4    4    0    0 -0.29142505303E+02 -0.15481815079E+02 -0.16406477707E+02  0.13040572389E+03  0.12509000000E+03 0.  0.
         25    1    3    3    0    0  0.10997921758E+03 -0.30169866964E+02 -0.65022958494E+02  0.18133158138E+03  0.12509000000E+03 0.  0.
<mgrwt>
<rscale>  2 0.45669133E+03</rscale>
<asrwt>0</asrwt>
<pdfrwt beam="1">  1       21 0.25741297E-01 0.45669133E+03</pdfrwt>
<pdfrwt beam="2">  1       21 0.43806374E-01 0.45669133E+03</pdfrwt>
<totfact> 0.66324424E+04</totfact>
</mgrwt>
</event>
<event>
 7    0  0.4766352E-002  0.4624816E+03  0.7546771E-02  0.1024064E+00
         21   -1    0    0  502  501  0.00000000000E+00  0.00000000000E+00  0.89751820500E+02  0.89751820500E+02  0.00000000000E+00 0. -1.
         21   -1    0    0  501  502 -0.00000000000E+00 -0.00000000000E+00 -0.59577953762E+03  0.59577953762E+03  0.00000000000E+00 0. -1.
      99926    2    1    2    0    0  0.00000000000E+00  0.00000000000E+00 -0.50602771712E+03  0.68553135812E+03  0.46248155906E+03 0.  0.
      99925    2    3    3    0    0  0.63744269147E+02  0.74613558389E+02 -0.41884022421E+03  0.50420380377E+03  0.26299016594E+03 0.  0.
         25    1    4    4    0    0  0.33899168657E+02  0.58848038776E+02 -0.28122449106E+03  0.31519354019E+03  0.12509000000E+03 0.  0.
         25    1    3    3    0    0 -0.63744269147E+02 -0.74613558389E+02 -0.87187492914E+02  0.18132755435E+03  0.12509000000E+03 0.  0.
         25    1    4    4    0    0  0.29845100490E+02  0.15765519612E+02 -0.13761573315E+03  0.18901026359E+03  0.12509000000E+03 0.  0.
<mgrwt>
<rscale>  2 0.46248156E+03</rscale>
<asrwt>0</asrwt>
<pdfrwt beam="1">  1       21 0.13198796E-01 0.46248156E+03</pdfrwt>
<pdfrwt beam="2">  1       21 0.87614642E-01 0.46248156E+03</pdfrwt>
<totfact> 0.50644572E+04</totfact>
</mgrwt>
</event>
<event>
 7    0  0.4766352E-002  0.4522538E+03  0.7546771E-02  0.1027052E+00
         21   -1    0    0  502  501  0.00000000000E+00  0.00000000000E+00  0.11832402960E+03  0.11832402960E+03  0.00000000000E+00 0. -1.
         21   -1    0    0  501  502 -0.00000000000E+00 -0.00000000000E+00 -0.43214707627E+03  0.43214707627E+03  0.00000000000E+00 0. -1.
      99926    2    1    2    0    0  0.00000000000E+00  0.00000000000E+00 -0.31382304667E+03  0.55047110586E+03  0.45225383776E+03 0.  0.
      99925    2    3    3    0    0 -0.54027966029E+02  0.18713749442E+02 -0.31321096253E+03  0.41293162688E+03  0.26294903669E+03 0.  0.
         25    1    3    3    0    0  0.54027966029E+02 -0.18713749442E+02 -0.61208413827E+00  0.13753947898E+03  0.12509000000E+03 0.  0.
         25    1    4    4    0    0 -0.28905022153E+02  0.27739222111E+01 -0.95303725807E+02  0.15991717607E+03  0.12509000000E+03 0.  0.
         25    1    4    4    0    0 -0.25122943876E+02  0.15939827231E+02 -0.21790723672E+03  0.25301445081E+03  0.12509000000E+03 0.  0.
<mgrwt>
<rscale>  2 0.45225384E+03</rscale>
<asrwt>0</asrwt>
<pdfrwt beam="1">  1       21 0.17400592E-01 0.45225384E+03</pdfrwt>
<pdfrwt beam="2">  1       21 0.63551042E-01 0.45225384E+03</pdfrwt>
<totfact> 0.63197327E+04</totfact>
</mgrwt>
</event>
<event>
 7    0  0.4766352E-002  0.4598348E+03  0.7546771E-02  0.1024829E+00
         21   -1    0    0  502  501  0.00000000000E+00  0.00000000000E+00  0.23713495199E+03  0.23713495199E+03  0.00000000000E+00 0. -1.
         21   -1    0    0  501  502 -0.00000000000E+00 -0.00000000000E+00 -0.22291951344E+03  0.22291951344E+03  0.00000000000E+00 0. -1.
      99926    2    1    2    0    0  0.14210854715E-13  0.00000000000E+00  0.14215438553E+02  0.46005446543E+03  0.45983478823E+03 0.  0.
      99925    2    3    3    0    0  0.11425265355E+03  0.12916329607E+02  0.33503389368E+02  0.28905729130E+03  0.26308010213E+03 0.  0.
         25    1    4    4    0    0  0.46769251966E+02  0.45860769132E+02  0.17464026373E+02  0.14227815501E+03  0.12509000000E+03 0.  0.
         25    1    3    3    0    0 -0.11425265355E+03 -0.12916329607E+02 -0.19287950815E+02  0.17099717413E+03  0.12509000000E+03 0.  0.
         25    1    4    4    0    0  0.67483401583E+02 -0.32944439525E+02  0.16039362995E+02  0.14677913629E+03  0.12509000000E+03 0.  0.
<mgrwt>
<rscale>  2 0.45983479E+03</rscale>
<asrwt>0</asrwt>
<pdfrwt beam="1">  1       21 0.34872787E-01 0.45983479E+03</pdfrwt>
<pdfrwt beam="2">  1       21 0.32782281E-01 0.45983479E+03</pdfrwt>
<totfact> 0.65609356E+04</totfact>
</mgrwt>
</event>
<event>
 7    0  0.4766352E-002  0.4536755E+03  0.7546771E-02  0.1026632E+00
         21   -1    0    0  502  501  0.00000000000E+00  0.00000000000E+00  0.21706440333E+02  0.21706440333E+02  0.00000000000E+00 0.  1.
         21   -1    0    0  501  502 -0.00000000000E+00 -0.00000000000E+00 -0.23705114487E+04  0.23705114487E+04  0.00000000000E+00 0.  1.
      99926    2    1    2    0    0  0.17763568394E-14  0.00000000000E+00 -0.23488050084E+04  0.23922178891E+04  0.45367550218E+03 0.  0.
      99925    2    3    3    0    0 -0.14233528875E+02 -0.67179258462E+02 -0.99883696982E+03  0.10347287144E+04  0.26129021023E+03 0.  0.
         25    1    4    4    0    0 -0.53562180900E+01 -0.43363653232E+02 -0.36851685926E+03  0.39161368612E+03  0.12509000000E+03 0.  0.
         25    1    3    3    0    0  0.14233528875E+02  0.67179258462E+02 -0.13499680386E+04  0.13574891747E+04  0.12509000000E+03 0.  0.
         25    1    4    4    0    0 -0.88773107847E+01 -0.23815605229E+02 -0.63032011055E+03  0.64311502826E+03  0.12509000000E+03 0.  0.
<mgrwt>
<rscale>  2 0.45367550E+03</rscale>
<asrwt>0</asrwt>
<pdfrwt beam="1">  1       21 0.31921232E-02 0.45367550E+03</pdfrwt>
<pdfrwt beam="2">  1       21 0.34860467E+00 0.45367550E+03</pdfrwt>
<totfact> 0.83842694E+03</totfact>
</mgrwt>
</event>
<event>
 7    0  0.4766352E-002  0.4530713E+03  0.7546771E-02  0.1026810E+00
         21   -1    0    0  502  501  0.00000000000E+00  0.00000000000E+00  0.99889144693E+02  0.99889144693E+02  0.00000000000E+00 0.  1.
         21   -1    0    0  501  502 -0.00000000000E+00 -0.00000000000E+00 -0.51375355770E+03  0.51375355770E+03  0.00000000000E+00 0.  1.
      99926    2    1    2    0    0  0.00000000000E+00  0.00000000000E+00 -0.41386441301E+03  0.61364270239E+03  0.45307131210E+03 0.  0.
      99925    2    3    3    0    0  0.66090249075E+02 -0.57210098073E+02 -0.16733396631E+03  0.32370187120E+03  0.26294738788E+03 0.  0.
         25    1    4    4    0    0  0.20013942539E+02 -0.67177352713E+02 -0.84331798680E+02  0.16635117968E+03  0.12509000000E+03 0.  0.
         25    1    3    3    0    0 -0.66090249075E+02  0.57210098073E+02 -0.24653044670E+03  0.28994083119E+03  0.12509000000E+03 0.  0.
         25    1    4    4    0    0  0.46076306536E+02  0.99672546396E+01 -0.83002167629E+02  0.15735069151E+03  0.12509000000E+03 0.  0.
<mgrwt>
<rscale>  2 0.45307131E+03</rscale>
<asrwt>0</asrwt>
<pdfrwt beam="1">  1       21 0.14689580E-01 0.45307131E+03</pdfrwt>
<pdfrwt beam="2">  1       21 0.75551993E-01 0.45307131E+03</pdfrwt>
<totfact> 0.58735895E+04</totfact>
</mgrwt>
</event>
<event>
 7    0  0.4766352E-002  0.4564129E+03  0.7546771E-02  0.1025827E+00
         21   -1    0    0  502  501  0.00000000000E+00  0.00000000000E+00  0.23017156035E+03  0.23017156035E+03  0.00000000000E+00 0. -1.
         21   -1    0    0  501  502 -0.00000000000E+00 -0.00000000000E+00 -0.22625814966E+03  0.22625814966E+03  0.00000000000E+00 0. -1.
      99926    2    1    2    0    0  0.00000000000E+00  0.14210854715E-13  0.39134106929E+01  0.45642971001E+03  0.45641293299E+03 0.  0.
      99925    2    3    3    0    0 -0.48590945737E+01  0.11349041866E+03 -0.18568889775E+02  0.28596960365E+03  0.26178259036E+03 0.  0.
         25    1    3    3    0    0  0.48590945737E+01 -0.11349041866E+03  0.22482300468E+02  0.17046010636E+03  0.12509000000E+03 0.  0.
         25    1    4    4    0    0  0.38397150983E+01  0.97696946764E+02 -0.15868054344E+02  0.15955795207E+03  0.12509000000E+03 0.  0.
         25    1    4    4    0    0 -0.86988096720E+01  0.15793471891E+02 -0.27008354307E+01  0.12641165158E+03  0.12509000000E+03 0.  0.
<mgrwt>
<rscale>  2 0.45641293E+03</rscale>
<asrwt>0</asrwt>
<pdfrwt beam="1">  1       21 0.33848759E-01 0.45641293E+03</pdfrwt>
<pdfrwt beam="2">  1       21 0.33273257E-01 0.45641293E+03</pdfrwt>
<totfact> 0.67675004E+04</totfact>
</mgrwt>
</event>
<event>
 7    0  0.4766352E-002  0.4556614E+03  0.7546771E-02  0.1026047E+00
         21   -1    0    0  502  501  0.00000000000E+00  0.00000000000E+00  0.97101856393E+03  0.97101856393E+03  0.00000000000E+00 0.  1.
         21   -1    0    0  501  502 -0.00000000000E+00 -0.00000000000E+00 -0.53456050798E+02  0.53456050798E+02  0.00000000000E+00 0.  1.
      99926    2    1    2    0    0  0.17763568394E-14  0.14210854715E-13  0.91756251313E+03  0.10244746147E+04  0.45566135531E+03 0.  0.
      99925    2    3    3    0    0 -0.15261828957E+02 -0.11145858477E+03  0.61553672336E+03  0.67875359233E+03  0.26299247471E+03 0.  0.
         25    1    4    4    0    0  0.16569488994E+02 -0.28554932973E+02  0.23126802495E+03  0.26499498038E+03  0.12509000000E+03 0.  0.
         25    1    3    3    0    0  0.15261828957E+02  0.11145858477E+03  0.30202578977E+03  0.34572102240E+03  0.12509000000E+03 0.  0.
         25    1    4    4    0    0 -0.31831317951E+02 -0.82903651796E+02  0.38426869841E+03  0.41375861195E+03  0.12509000000E+03 0.  0.
<mgrwt>
<rscale>  2 0.45566136E+03</rscale>
<asrwt>0</asrwt>
<pdfrwt beam="1">  1       21 0.14279684E+00 0.45566136E+03</pdfrwt>
<pdfrwt beam="2">  1       21 0.78611846E-02 0.45566136E+03</pdfrwt>
<totfact> 0.38031403E+04</totfact>
</mgrwt>
</event>
<event>
 7    0  0.4766352E-002  0.4543041E+03  0.7546771E-02  0.1026446E+00
         21   -1    0    0  502  501  0.00000000000E+00  0.00000000000E+00  0.21153870566E+04  0.21153870566E+04  0.00000000000E+00 0. -1.
         21   -1    0    0  501  502 -0.00000000000E+00 -0.00000000000E+00 -0.24391774132E+02  0.24391774132E+02  0.00000000000E+00 0. -1.
      99926    2    1    2    0    0  0.00000000000E+00  0.00000000000E+00  0.20909952825E+04  0.21397788307E+04  0.45430405363E+03 0.  0.
      99925    2    3    3    0    0 -0.79954973761E+02  0.48246148684E+01  0.16878757056E+04  0.17101639147E+04  0.26328718691E+03 0.  0.
         25    1    3    3    0    0  0.79954973761E+02 -0.48246148684E+01  0.40311957688E+03  0.42961491606E+03  0.12509000000E+03 0.  0.
         25    1    4    4    0    0 -0.68010985846E+02 -0.15584142549E+02  0.10484344894E+04  0.10581733064E+04  0.12509000000E+03 0.  0.
         25    1    4    4    0    0 -0.11943987916E+02  0.20408757417E+02  0.63944121622E+03  0.65199060831E+03  0.12509000000E+03 0.  0.
<mgrwt>
<rscale>  2 0.45430405E+03</rscale>
<asrwt>0</asrwt>
<pdfrwt beam="1">  1       21 0.31108621E+00 0.45430405E+03</pdfrwt>
<pdfrwt beam="2">  1       21 0.35870270E-02 0.45430405E+03</pdfrwt>
<totfact> 0.11621664E+04</totfact>
</mgrwt>
</event>
<event>
 7    0  0.4766352E-002  0.4485428E+03  0.7546771E-02  0.1028157E+00
         21   -1    0    0  502  501  0.00000000000E+00  0.00000000000E+00  0.39154024249E+03  0.39154024249E+03  0.00000000000E+00 0. -1.
         21   -1    0    0  501  502 -0.00000000000E+00 -0.00000000000E+00 -0.12846101550E+03  0.12846101550E+03  0.00000000000E+00 0. -1.
      99926    2    1    2    0    0  0.00000000000E+00  0.00000000000E+00  0.26307922699E+03  0.52000125799E+03  0.44854278350E+03 0.  0.
      99925    2    3    3    0    0 -0.44903589762E+02  0.92955978735E+02  0.13368033545E+03  0.31251938507E+03  0.26294635879E+03 0.  0.
         25    1    3    3    0    0  0.44903589762E+02 -0.92955978735E+02  0.12939889154E+03  0.20748187291E+03  0.12509000000E+03 0.  0.
         25    1    4    4    0    0 -0.62333617825E+02  0.38784328391E+02  0.70369013740E+02  0.16121107355E+03  0.12509000000E+03 0.  0.
         25    1    4    4    0    0  0.17430028064E+02  0.54171650343E+02  0.63311321713E+02  0.15130831152E+03  0.12509000000E+03 0.  0.
<mgrwt>
<rscale>  2 0.44854278E+03</rscale>
<asrwt>0</asrwt>
<pdfrwt beam="1">  1       21 0.57579447E-01 0.44854278E+03</pdfrwt>
<pdfrwt beam="2">  1       21 0.18891326E-01 0.44854278E+03</pdfrwt>
<totfact> 0.67266398E+04</totfact>
</mgrwt>
</event>
<event>
 7    0  0.4766352E-002  0.4404065E+03  0.7546771E-02  0.1030622E+00
         21   -1    0    0  502  501  0.00000000000E+00  0.00000000000E+00  0.77910453694E+02  0.77910453694E+02  0.00000000000E+00 0.  1.
         21   -1    0    0  501  502 -0.00000000000E+00 -0.00000000000E+00 -0.62237432523E+03  0.62237432523E+03  0.00000000000E+00 0.  1.
      99926    2    1    2    0    0  0.35527136788E-14  0.00000000000E+00 -0.54446387154E+03  0.70028477893E+03  0.44040647609E+03 0.  0.
      99925    2    3    3    0    0 -0.24980590784E+02  0.65029473599E+02 -0.23692013125E+03  0.36104515471E+03  0.26338107903E+03 0.  0.
         25    1    4    4    0    0 -0.32783277352E+01  0.52277019219E+02 -0.75265267767E+02  0.15509997680E+03  0.12509000000E+03 0.  0.
         25    1    3    3    0    0  0.24980590784E+02 -0.65029473599E+02 -0.30754374028E+03  0.33923962422E+03  0.12509000000E+03 0.  0.
         25    1    4    4    0    0 -0.21702263049E+02  0.12752454379E+02 -0.16165486349E+03  0.20594517791E+03  0.12509000000E+03 0.  0.
<mgrwt>
<rscale>  2 0.44040648E+03</rscale>
<asrwt>0</asrwt>
<pdfrwt beam="1">  1       21 0.11457420E-01 0.44040648E+03</pdfrwt>
<pdfrwt beam="2">  1       21 0.91525633E-01 0.44040648E+03</pdfrwt>
<totfact> 0.59423521E+04</totfact>
</mgrwt>
</event>
<event>
 7    0  0.4766352E-002  0.4521890E+03  0.7546771E-02  0.1027071E+00
         21   -1    0    0  502  501  0.00000000000E+00  0.00000000000E+00  0.80309793201E+03  0.80309793201E+03  0.00000000000E+00 0.  1.
         21   -1    0    0  501  502 -0.00000000000E+00 -0.00000000000E+00 -0.63651917861E+02  0.63651917861E+02  0.00000000000E+00 0.  1.
      99926    2    1    2    0    0  0.00000000000E+00  0.00000000000E+00  0.73944601414E+03  0.86674984987E+03  0.45218900297E+03 0.  0.
      99925    2    3    3    0    0  0.68496423503E+02  0.51529487619E+02  0.60034875060E+03  0.66097666174E+03  0.26291534167E+03 0.  0.
         25    1    4    4    0    0  0.72114687258E+02  0.21271136751E+02  0.28073667884E+03  0.31640730131E+03  0.12509000000E+03 0.  0.
         25    1    3    3    0    0 -0.68496423503E+02 -0.51529487619E+02  0.13909726355E+03  0.20577318813E+03  0.12509000000E+03 0.  0.
         25    1    4    4    0    0 -0.36182637552E+01  0.30258350869E+02  0.31961207176E+03  0.34456936042E+03  0.12509000000E+03 0.  0.
<mgrwt>
<rscale>  2 0.45218900E+03</rscale>
<asrwt>0</asrwt>
<pdfrwt beam="1">  1       21 0.11810263E+00 0.45218900E+03</pdfrwt>
<pdfrwt beam="2">  1       21 0.93605766E-02 0.45218900E+03</pdfrwt>
<totfact> 0.45698181E+04</totfact>
</mgrwt>
</event>
<event>
 7    0  0.4766352E-002  0.4683973E+03  0.7546771E-02  0.1022374E+00
         21   -1    0    0  502  501  0.00000000000E+00  0.00000000000E+00  0.59712920463E+03  0.59712920463E+03  0.00000000000E+00 0.  1.
         21   -1    0    0  501  502 -0.00000000000E+00 -0.00000000000E+00 -0.91854489045E+02  0.91854489045E+02  0.00000000000E+00 0.  1.
      99926    2    1    2    0    0 -0.71054273576E-14  0.14210854715E-13  0.50527471559E+03  0.68898369368E+03  0.46839725868E+03 0.  0.
      99925    2    3    3    0    0  0.57601410194E+02  0.10365021071E+03  0.37382166731E+03  0.47221492139E+03  0.26302662299E+03 0.  0.
         25    1    4    4    0    0  0.25539238738E+02  0.33570138698E+02  0.11729408749E+03  0.17659167021E+03  0.12509000000E+03 0.  0.
         25    1    4    4    0    0  0.32062171456E+02  0.70080072011E+02  0.25652757982E+03  0.29562325118E+03  0.12509000000E+03 0.  0.
         25    1    3    3    0    0 -0.57601410194E+02 -0.10365021071E+03  0.13145304828E+03  0.21676877229E+03  0.12509000000E+03 0.  0.
<mgrwt>
<rscale>  2 0.46839726E+03</rscale>
<asrwt>0</asrwt>
<pdfrwt beam="1">  1       21 0.87813116E-01 0.46839726E+03</pdfrwt>
<pdfrwt beam="2">  1       21 0.13508013E-01 0.46839726E+03</pdfrwt>
<totfact> 0.48212325E+04</totfact>
</mgrwt>
</event>
<event>
 7    0  0.4766352E-002  0.4570859E+03  0.7546771E-02  0.1025630E+00
         21   -1    0    0  502  501  0.00000000000E+00  0.00000000000E+00  0.60112054902E+03  0.60112054902E+03  0.00000000000E+00 0. -1.
         21   -1    0    0  501  502 -0.00000000000E+00 -0.00000000000E+00 -0.86890841843E+02  0.86890841843E+02  0.00000000000E+00 0. -1.
      99926    2    1    2    0    0  0.00000000000E+00 -0.33306690739E-15  0.51422970718E+03  0.68801139087E+03  0.45708585869E+03 0.  0.
      99925    2    3    3    0    0 -0.97300060171E+02 -0.20743071515E+00  0.23044820065E+03  0.36297785985E+03  0.26301940769E+03 0.  0.
         25    1    4    4    0    0 -0.66519622721E+02  0.65941636591E+01  0.73263430402E+02  0.15963515132E+03  0.12509000000E+03 0.  0.
         25    1    3    3    0    0  0.97300060171E+02  0.20743071515E+00  0.28378150654E+03  0.32503353102E+03  0.12509000000E+03 0.  0.
         25    1    4    4    0    0 -0.30780437450E+02 -0.68015943742E+01  0.15718477024E+03  0.20334270853E+03  0.12509000000E+03 0.  0.
<mgrwt>
<rscale>  2 0.45708586E+03</rscale>
<asrwt>0</asrwt>
<pdfrwt beam="1">  1       21 0.88400079E-01 0.45708586E+03</pdfrwt>
<pdfrwt beam="2">  1       21 0.12778065E-01 0.45708586E+03</pdfrwt>
<totfact> 0.52688323E+04</totfact>
</mgrwt>
</event>
<event>
 7    0  0.4766352E-002  0.4457304E+03  0.7546771E-02  0.1029003E+00
         21   -1    0    0  502  501  0.00000000000E+00  0.00000000000E+00  0.76694401458E+03  0.76694401458E+03  0.00000000000E+00 0.  1.
         21   -1    0    0  501  502 -0.00000000000E+00 -0.00000000000E+00 -0.64762088184E+02  0.64762088184E+02  0.00000000000E+00 0.  1.
      99926    2    1    2    0    0  0.00000000000E+00  0.00000000000E+00  0.70218192640E+03  0.83170610277E+03  0.44573039342E+03 0.  0.
      99925    2    3    3    0    0  0.14776316179E+02  0.86805435791E+02  0.34131556512E+03  0.43975513388E+03  0.26293485806E+03 0.  0.
         25    1    4    4    0    0  0.12000468388E+02  0.13313739260E+02  0.11468593454E+03  0.17065063310E+03  0.12509000000E+03 0.  0.
         25    1    3    3    0    0 -0.14776316179E+02 -0.86805435791E+02  0.36086636128E+03  0.39195096888E+03  0.12509000000E+03 0.  0.
         25    1    4    4    0    0  0.27758477919E+01  0.73491696531E+02  0.22662963057E+03  0.26910450078E+03  0.12509000000E+03 0.  0.
<mgrwt>
<rscale>  2 0.44573039E+03</rscale>
<asrwt>0</asrwt>
<pdfrwt beam="1">  1       21 0.11278588E+00 0.44573039E+03</pdfrwt>
<pdfrwt beam="2">  1       21 0.95238369E-02 0.44573039E+03</pdfrwt>
<totfact> 0.49792916E+04</totfact>
</mgrwt>
</event>
<event>
 7    0  0.4766352E-002  0.4575947E+03  0.7546771E-02  0.1025481E+00
         21   -1    0    0  502  501  0.00000000000E+00  0.00000000000E+00  0.31567109502E+02  0.31567109502E+02  0.00000000000E+00 0. -1.
         21   -1    0    0  501  502 -0.00000000000E+00 -0.00000000000E+00 -0.16583156476E+04  0.16583156476E+04  0.00000000000E+00 0. -1.
      99926    2    1    2    0    0  0.00000000000E+00  0.00000000000E+00 -0.16267485381E+04  0.16898827571E+04  0.45759471866E+03 0.  0.
      99925    2    3    3    0    0 -0.82774271452E+02  0.77320654650E+02 -0.10966047517E+04  0.11335285480E+04  0.26365682996E+03 0.  0.
         25    1    4    4    0    0 -0.68487913970E+02  0.69737393757E+02 -0.54254464022E+03  0.56529292688E+03  0.12509000000E+03 0.  0.
         25    1    3    3    0    0  0.82774271452E+02 -0.77320654650E+02 -0.53014378642E+03  0.55635420914E+03  0.12509000000E+03 0.  0.
         25    1    4    4    0    0 -0.14286357481E+02  0.75832608925E+01 -0.55406011145E+03  0.56823562107E+03  0.12509000000E+03 0.  0.
<mgrwt>
<rscale>  2 0.45759472E+03</rscale>
<asrwt>0</asrwt>
<pdfrwt beam="1">  1       21 0.46422222E-02 0.45759472E+03</pdfrwt>
<pdfrwt beam="2">  1       21 0.24386994E+00 0.45759472E+03</pdfrwt>
<totfact> 0.19085502E+04</totfact>
</mgrwt>
</event>
<event>
 7    0  0.4766352E-002  0.4527320E+03  0.7546771E-02  0.1026910E+00
         21   -1    0    0  502  501  0.00000000000E+00  0.00000000000E+00  0.26842347887E+03  0.26842347887E+03  0.00000000000E+00 0.  1.
         21   -1    0    0  501  502 -0.00000000000E+00 -0.00000000000E+00 -0.19089819806E+03  0.19089819806E+03  0.00000000000E+00 0.  1.
      99926    2    1    2    0    0 -0.44408920985E-15 -0.14210854715E-13  0.77525280808E+02  0.45932167693E+03  0.45273196676E+03 0.  0.
      99925    2    3    3    0    0 -0.34270690413E+01 -0.11092879865E+03  0.47247730590E+02  0.28937703500E+03  0.26303949736E+03 0.  0.
         25    1    3    3    0    0  0.34270690413E+01  0.11092879865E+03  0.30277550218E+02  0.16994464192E+03  0.12509000000E+03 0.  0.
         25    1    4    4    0    0 -0.21025120628E+02 -0.70529596067E+02  0.58050186318E+02  0.15631318515E+03  0.12509000000E+03 0.  0.
         25    1    4    4    0    0  0.17598051587E+02 -0.40399202580E+02 -0.10802455729E+02  0.13306384986E+03  0.12509000000E+03 0.  0.
<mgrwt>
<rscale>  2 0.45273197E+03</rscale>
<asrwt>0</asrwt>
<pdfrwt beam="1">  1       21 0.39474041E-01 0.45273197E+03</pdfrwt>
<pdfrwt beam="2">  1       21 0.28073264E-01 0.45273197E+03</pdfrwt>
<totfact> 0.69477908E+04</totfact>
</mgrwt>
</event>
<event>
 7    0  0.4766352E-002  0.4598861E+03  0.7546771E-02  0.1024814E+00
         21   -1    0    0  502  501  0.00000000000E+00  0.00000000000E+00  0.50120763549E+03  0.50120763549E+03  0.00000000000E+00 0.  1.
         21   -1    0    0  501  502 -0.00000000000E+00 -0.00000000000E+00 -0.10549282095E+03  0.10549282095E+03  0.00000000000E+00 0.  1.
      99926    2    1    2    0    0 -0.88817841970E-15  0.00000000000E+00  0.39571481454E+03  0.60670045643E+03  0.45988610480E+03 0.  0.
      99925    2    3    3    0    0 -0.63546554500E+01 -0.22624052245E+02  0.95674280489E+02  0.28078012942E+03  0.26292904698E+03 0.  0.
         25    1    4    4    0    0  0.21450232176E+02 -0.18019953625E+01  0.14708282805E+02  0.12777793757E+03  0.12509000000E+03 0.  0.
         25    1    3    3    0    0  0.63546554500E+01  0.22624052245E+02  0.30004053405E+03  0.32592032701E+03  0.12509000000E+03 0.  0.
         25    1    4    4    0    0 -0.27804887626E+02 -0.20822056883E+02  0.80965997684E+02  0.15300219185E+03  0.12509000000E+03 0.  0.
<mgrwt>
<rscale>  2 0.45988610E+03</rscale>
<asrwt>0</asrwt>
<pdfrwt beam="1">  1       21 0.73707004E-01 0.45988610E+03</pdfrwt>
<pdfrwt beam="2">  1       21 0.15513650E-01 0.45988610E+03</pdfrwt>
<totfact> 0.56071815E+04</totfact>
</mgrwt>
</event>
<event>
 7    0  0.4766352E-002  0.4464791E+03  0.7546771E-02  0.1028777E+00
         21   -1    0    0  502  501  0.00000000000E+00  0.00000000000E+00  0.14918438805E+03  0.14918438805E+03  0.00000000000E+00 0.  1.
         21   -1    0    0  501  502 -0.00000000000E+00 -0.00000000000E+00 -0.33405566046E+03  0.33405566046E+03  0.00000000000E+00 0.  1.
      99926    2    1    2    0    0 -0.71054273576E-14  0.00000000000E+00 -0.18487127241E+03  0.48324004851E+03  0.44647906684E+03 0.  0.
      99925    2    3    3    0    0 -0.32439558799E+02 -0.74807341294E+02 -0.18874318213E+03  0.33387150072E+03  0.26305460821E+03 0.  0.
         25    1    3    3    0    0  0.32439558799E+02  0.74807341294E+02  0.38719097274E+01  0.14936854780E+03  0.12509000000E+03 0.  0.
         25    1    4    4    0    0 -0.47722461856E+02 -0.65251280634E+02 -0.10614489828E+03  0.18289180004E+03  0.12509000000E+03 0.  0.
         25    1    4    4    0    0  0.15282903057E+02 -0.95560606597E+01 -0.82598283852E+02  0.15097970068E+03  0.12509000000E+03 0.  0.
<mgrwt>
<rscale>  2 0.44647907E+03</rscale>
<asrwt>0</asrwt>
<pdfrwt beam="1">  1       21 0.21938881E-01 0.44647907E+03</pdfrwt>
<pdfrwt beam="2">  1       21 0.49125831E-01 0.44647907E+03</pdfrwt>
<totfact> 0.71157968E+04</totfact>
</mgrwt>
</event>
<event>
 7    0  0.4766352E-002  0.4561754E+03  0.7546771E-02  0.1025896E+00
         21   -1    0    0  502  501  0.00000000000E+00  0.00000000000E+00  0.90657978350E+02  0.90657978350E+02  0.00000000000E+00 0.  1.
         21   -1    0    0  501  502 -0.00000000000E+00 -0.00000000000E+00 -0.57384900709E+03  0.57384900709E+03  0.00000000000E+00 0.  1.
      99926    2    1    2    0    0  0.00000000000E+00  0.00000000000E+00 -0.48319102874E+03  0.66450698544E+03  0.45617536479E+03 0.  0.
      99925    2    3    3    0    0 -0.96918809462E+02  0.22677584172E+01 -0.21316303644E+03  0.35151972838E+03  0.26216262316E+03 0.  0.
         25    1    4    4    0    0 -0.89510087378E+02  0.47004576374E+01 -0.10946979635E+03  0.18885257334E+03  0.12509000000E+03 0.  0.
         25    1    3    3    0    0  0.96918809462E+02 -0.22677584172E+01 -0.27002799230E+03  0.31298725706E+03  0.12509000000E+03 0.  0.
         25    1    4    4    0    0 -0.74087220839E+01 -0.24326992202E+01 -0.10369324009E+03  0.16266715504E+03  0.12509000000E+03 0.  0.
<mgrwt>
<rscale>  2 0.45617536E+03</rscale>
<asrwt>0</asrwt>
<pdfrwt beam="1">  1       21 0.13332056E-01 0.45617536E+03</pdfrwt>
<pdfrwt beam="2">  1       21 0.84389557E-01 0.45617536E+03</pdfrwt>
<totfact> 0.54366903E+04</totfact>
</mgrwt>
</event>
<event>
 7    0  0.4766352E-002  0.4529882E+03  0.7546771E-02  0.1026835E+00
         21   -1    0    0  502  501  0.00000000000E+00  0.00000000000E+00  0.25333818725E+03  0.25333818725E+03  0.00000000000E+00 0.  1.
         21   -1    0    0  501  502 -0.00000000000E+00 -0.00000000000E+00 -0.20249441630E+03  0.20249441630E+03  0.00000000000E+00 0.  1.
      99926    2    1    2    0    0  0.00000000000E+00  0.17763568394E-14  0.50843770947E+02  0.45583260355E+03  0.45298816035E+03 0.  0.
      99925    2    3    3    0    0 -0.98276491678E+02  0.86807642272E+01  0.83754927354E+02  0.29315415753E+03  0.26304153234E+03 0.  0.
         25    1    4    4    0    0 -0.11528508676E+02 -0.99892920765E+01  0.22511232419E+02  0.12801154695E+03  0.12509000000E+03 0.  0.
         25    1    4    4    0    0 -0.86747983002E+02  0.18670056304E+02  0.61243694935E+02  0.16514261057E+03  0.12509000000E+03 0.  0.
         25    1    3    3    0    0  0.98276491678E+02 -0.86807642272E+01 -0.32911156407E+02  0.16267844602E+03  0.12509000000E+03 0.  0.
<mgrwt>
<rscale>  2 0.45298816E+03</rscale>
<asrwt>0</asrwt>
<pdfrwt beam="1">  1       21 0.37255616E-01 0.45298816E+03</pdfrwt>
<pdfrwt beam="2">  1       21 0.29778590E-01 0.45298816E+03</pdfrwt>
<totfact> 0.69595181E+04</totfact>
</mgrwt>
</event>
<event>
 7    0  0.4766352E-002  0.4546965E+03  0.7546771E-02  0.1026331E+00
         21   -1    0    0  502  501  0.00000000000E+00  0.00000000000E+00  0.29152234152E+03  0.29152234152E+03  0.00000000000E+00 0. -1.
         21   -1    0    0  501  502 -0.00000000000E+00 -0.00000000000E+00 -0.17730109304E+03  0.17730109304E+03  0.00000000000E+00 0. -1.
      99926    2    1    2    0    0  0.14210854715E-13  0.00000000000E+00  0.11422124848E+03  0.46882343455E+03  0.45469651327E+03 0.  0.
      99925    2    3    3    0    0 -0.79077907364E+02  0.52641728988E+02  0.13503115078E+03  0.31037777448E+03  0.26282405549E+03 0.  0.
         25    1    4    4    0    0 -0.14087793552E+02  0.44987136386E+02  0.93809450160E+02  0.16330961211E+03  0.12509000000E+03 0.  0.
         25    1    4    4    0    0 -0.64990113812E+02  0.76545926017E+01  0.41221700616E+02  0.14706816237E+03  0.12509000000E+03 0.  0.
         25    1    3    3    0    0  0.79077907364E+02 -0.52641728988E+02 -0.20809902297E+02  0.15844566008E+03  0.12509000000E+03 0.  0.
<mgrwt>
<rscale>  2 0.45469651E+03</rscale>
<asrwt>0</asrwt>
<pdfrwt beam="1">  1       21 0.42870933E-01 0.45469651E+03</pdfrwt>
<pdfrwt beam="2">  1       21 0.26073690E-01 0.45469651E+03</pdfrwt>
<totfact> 0.67686163E+04</totfact>
</mgrwt>
</event>
<event>
 7    0  0.4766352E-002  0.4537517E+03  0.7546771E-02  0.1026609E+00
         21   -1    0    0  502  501  0.00000000000E+00  0.00000000000E+00  0.15681795166E+03  0.15681795166E+03  0.00000000000E+00 0. -1.
         21   -1    0    0  501  502 -0.00000000000E+00 -0.00000000000E+00 -0.32823192403E+03  0.32823192403E+03  0.00000000000E+00 0. -1.
      99926    2    1    2    0    0  0.00000000000E+00  0.00000000000E+00 -0.17141397237E+03  0.48504987568E+03  0.45375172945E+03 0.  0.
      99925    2    3    3    0    0 -0.98142598594E+02  0.47480666081E+02 -0.13537489929E+03  0.31524791398E+03  0.26299905057E+03 0.  0.
         25    1    3    3    0    0  0.98142598594E+02 -0.47480666081E+02 -0.36039073078E+02  0.16980196170E+03  0.12509000000E+03 0.  0.
         25    1    4    4    0    0 -0.39011136157E+02  0.18536298918E+02 -0.22241234624E+02  0.13419256216E+03  0.12509000000E+03 0.  0.
         25    1    4    4    0    0 -0.59131462438E+02  0.28944367163E+02 -0.11313366467E+03  0.18105535182E+03  0.12509000000E+03 0.  0.
<mgrwt>
<rscale>  2 0.45375173E+03</rscale>
<asrwt>0</asrwt>
<pdfrwt beam="1">  1       21 0.23061464E-01 0.45375173E+03</pdfrwt>
<pdfrwt beam="2">  1       21 0.48269400E-01 0.45375173E+03</pdfrwt>
<totfact> 0.66995732E+04</totfact>
</mgrwt>
</event>
<event>
 7    0  0.4766352E-002  0.4461730E+03  0.7546771E-02  0.1028869E+00
         21   -1    0    0  502  501  0.00000000000E+00  0.00000000000E+00  0.29416201679E+02  0.29416201679E+02  0.00000000000E+00 0. -1.
         21   -1    0    0  501  502 -0.00000000000E+00 -0.00000000000E+00 -0.16918430452E+04  0.16918430452E+04  0.00000000000E+00 0. -1.
      99926    2    1    2    0    0  0.00000000000E+00  0.00000000000E+00 -0.16624268435E+04  0.17212592469E+04  0.44617304368E+03 0.  0.
      99925    2    3    3    0    0  0.91291355646E+02  0.39118885442E+02 -0.11825094751E+04  0.12154602874E+04  0.26296511687E+03 0.  0.
         25    1    4    4    0    0  0.84465731087E+02  0.38690795597E+02 -0.65303799323E+03  0.67136991748E+03  0.12509000000E+03 0.  0.
         25    1    4    4    0    0  0.68256245589E+01  0.42808984469E+00 -0.52947148188E+03  0.54409036991E+03  0.12509000000E+03 0.  0.
         25    1    3    3    0    0 -0.91291355646E+02 -0.39118885442E+02 -0.47991736843E+03  0.50579895950E+03  0.12509000000E+03 0.  0.
<mgrwt>
<rscale>  2 0.44617304E+03</rscale>
<asrwt>0</asrwt>
<pdfrwt beam="1">  1       21 0.43259125E-02 0.44617304E+03</pdfrwt>
<pdfrwt beam="2">  1       21 0.24880042E+00 0.44617304E+03</pdfrwt>
<totfact> 0.20169899E+04</totfact>
</mgrwt>
</event>
<event>
 7    0  0.4766352E-002  0.4845417E+03  0.7546771E-02  0.1017894E+00
         21   -1    0    0  502  501  0.00000000000E+00  0.00000000000E+00  0.31830454929E+03  0.31830454929E+03  0.00000000000E+00 0. -1.
         21   -1    0    0  501  502 -0.00000000000E+00 -0.00000000000E+00 -0.18439942273E+03  0.18439942273E+03  0.00000000000E+00 0. -1.
      99926    2    1    2    0    0 -0.71054273576E-14  0.14210854715E-13  0.13390512656E+03  0.50270397202E+03  0.48454174285E+03 0.  0.
      99925    2    3    3    0    0  0.44479006620E+02 -0.96401879119E+02 -0.10844523406E+02  0.28390800863E+03  0.26308639142E+03 0.  0.
         25    1    3    3    0    0 -0.44479006620E+02  0.96401879119E+02  0.14474964997E+03  0.21879596339E+03  0.12509000000E+03 0.  0.
         25    1    4    4    0    0  0.27497698033E+02 -0.58673713811E+01 -0.40453549856E+00  0.12821162659E+03  0.12509000000E+03 0.  0.
         25    1    4    4    0    0  0.16981308588E+02 -0.90534507738E+02 -0.10439987908E+02  0.15569638204E+03  0.12509000000E+03 0.  0.
<mgrwt>
<rscale>  2 0.48454174E+03</rscale>
<asrwt>0</asrwt>
<pdfrwt beam="1">  1       21 0.46809492E-01 0.48454174E+03</pdfrwt>
<pdfrwt beam="2">  1       21 0.27117562E-01 0.48454174E+03</pdfrwt>
<totfact> 0.51820819E+04</totfact>
</mgrwt>
</event>
<event>
 7    0  0.4766352E-002  0.4535654E+03  0.7546771E-02  0.1026664E+00
         21   -1    0    0  502  501  0.00000000000E+00  0.00000000000E+00  0.10975717260E+04  0.10975717260E+04  0.00000000000E+00 0. -1.
         21   -1    0    0  501  502 -0.00000000000E+00 -0.00000000000E+00 -0.46858333501E+02  0.46858333501E+02  0.00000000000E+00 0. -1.
      99926    2    1    2    0    0  0.00000000000E+00  0.17763568394E-14  0.10507133925E+04  0.11444300595E+04  0.45356535132E+03 0.  0.
      99925    2    3    3    0    0 -0.39683228941E+02 -0.15462046760E+02  0.40193007768E+03  0.48232649416E+03  0.26320567258E+03 0.  0.
         25    1    4    4    0    0 -0.27998865118E+02  0.30060669186E+02  0.22362637547E+03  0.25950692512E+03  0.12509000000E+03 0.  0.
         25    1    3    3    0    0  0.39683228941E+02  0.15462046760E+02  0.64878331485E+03  0.66210356537E+03  0.12509000000E+03 0.  0.
         25    1    4    4    0    0 -0.11684363823E+02 -0.45522715947E+02  0.17830370221E+03  0.22281956904E+03  0.12509000000E+03 0.  0.
<mgrwt>
<rscale>  2 0.45356535E+03</rscale>
<asrwt>0</asrwt>
<pdfrwt beam="1">  1       21 0.16140759E+00 0.45356535E+03</pdfrwt>
<pdfrwt beam="2">  1       21 0.68909321E-02 0.45356535E+03</pdfrwt>
<totfact> 0.34351389E+04</totfact>
</mgrwt>
</event>
<event>
 7    0  0.4766352E-002  0.4003193E+03  0.7546771E-02  0.1043669E+00
         21   -1    0    0  502  501  0.00000000000E+00  0.00000000000E+00  0.54742250591E+03  0.54742250591E+03  0.00000000000E+00 0. -1.
         21   -1    0    0  501  502 -0.00000000000E+00 -0.00000000000E+00 -0.73186413799E+02  0.73186413799E+02  0.00000000000E+00 0. -1.
      99926    2    1    2    0    0  0.88817841970E-15  0.00000000000E+00  0.47423609211E+03  0.62060891971E+03  0.40031932274E+03 0.  0.
      99925    2    3    3    0    0 -0.64425685105E+01  0.40611567778E+02  0.34851617347E+03  0.43855449881E+03  0.26301277370E+03 0.  0.
         25    1    4    4    0    0 -0.31296593417E+02  0.50059176543E+02  0.18176380681E+03  0.22840969218E+03  0.12509000000E+03 0.  0.
         25    1    3    3    0    0  0.64425685105E+01 -0.40611567778E+02  0.12571991864E+03  0.18205442090E+03  0.12509000000E+03 0.  0.
         25    1    4    4    0    0  0.24854024906E+02 -0.94476087657E+01  0.16675236666E+03  0.21014480663E+03  0.12509000000E+03 0.  0.
<mgrwt>
<rscale>  2 0.40031932E+03</rscale>
<asrwt>0</asrwt>
<pdfrwt beam="1">  1       21 0.80503308E-01 0.40031932E+03</pdfrwt>
<pdfrwt beam="2">  1       21 0.10762708E-01 0.40031932E+03</pdfrwt>
<totfact> 0.90659548E+04</totfact>
</mgrwt>
</event>
<event>
 7    0  0.4766352E-002  0.4532220E+03  0.7546771E-02  0.1026766E+00
         21   -1    0    0  502  501  0.00000000000E+00  0.00000000000E+00  0.18274683377E+04  0.18274683377E+04  0.00000000000E+00 0.  1.
         21   -1    0    0  501  502 -0.00000000000E+00 -0.00000000000E+00 -0.28100373701E+02  0.28100373701E+02  0.00000000000E+00 0.  1.
      99926    2    1    2    0    0  0.00000000000E+00 -0.14210854715E-13  0.17993679640E+04  0.18555687114E+04  0.45322199071E+03 0.  0.
      99925    2    3    3    0    0  0.13430313599E+02 -0.11000579649E+03  0.10860684570E+04  0.11229532984E+04  0.26305468729E+03 0.  0.
         25    1    3    3    0    0 -0.13430313599E+02  0.11000579649E+03  0.71329950699E+03  0.73261541300E+03  0.12509000000E+03 0.  0.
         25    1    4    4    0    0  0.27482500944E+02 -0.51082808811E+02  0.40440921011E+03  0.42726930447E+03  0.12509000000E+03 0.  0.
         25    1    4    4    0    0 -0.14052187345E+02 -0.58922987684E+02  0.68165924688E+03  0.69568399393E+03  0.12509000000E+03 0.  0.
<mgrwt>
<rscale>  2 0.45322199E+03</rscale>
<asrwt>0</asrwt>
<pdfrwt beam="1">  1       21 0.26874526E+00 0.45322199E+03</pdfrwt>
<pdfrwt beam="2">  1       21 0.41324091E-02 0.45322199E+03</pdfrwt>
<totfact> 0.16440341E+04</totfact>
</mgrwt>
</event>
<event>
 7    0  0.4766352E-002  0.4540302E+03  0.7546771E-02  0.1026527E+00
         21   -1    0    0  502  501  0.00000000000E+00  0.00000000000E+00  0.15492609461E+03  0.15492609461E+03  0.00000000000E+00 0.  1.
         21   -1    0    0  501  502 -0.00000000000E+00 -0.00000000000E+00 -0.33264800718E+03  0.33264800718E+03  0.00000000000E+00 0.  1.
      99926    2    1    2    0    0  0.71054273576E-14  0.71054273576E-14 -0.17772191257E+03  0.48757410179E+03  0.45403020443E+03 0.  0.
      99925    2    3    3    0    0 -0.42984384408E+02 -0.34558804649E+02 -0.67061311272E+01  0.26863147487E+03  0.26282299902E+03 0.  0.
         25    1    3    3    0    0  0.42984384408E+02  0.34558804649E+02 -0.17101578144E+03  0.21894262692E+03  0.12509000000E+03 0.  0.
         25    1    4    4    0    0 -0.35041027975E+02 -0.50547758815E+02 -0.22826124624E+02  0.14124974205E+03  0.12509000000E+03 0.  0.
         25    1    4    4    0    0 -0.79433564338E+01  0.15988954166E+02  0.16119993497E+02  0.12738173282E+03  0.12509000000E+03 0.  0.
<mgrwt>
<rscale>  2 0.45403020E+03</rscale>
<asrwt>0</asrwt>
<pdfrwt beam="1">  1       21 0.22783249E-01 0.45403020E+03</pdfrwt>
<pdfrwt beam="2">  1       21 0.48918824E-01 0.45403020E+03</pdfrwt>
<totfact> 0.66664522E+04</totfact>
</mgrwt>
</event>
<event>
 7    0  0.4766352E-002  0.4573890E+03  0.7546771E-02  0.1025541E+00
         21   -1    0    0  502  501  0.00000000000E+00  0.00000000000E+00  0.55078490072E+03  0.55078490072E+03  0.00000000000E+00 0.  1.
         21   -1    0    0  501  502 -0.00000000000E+00 -0.00000000000E+00 -0.94957513004E+02  0.94957513004E+02  0.00000000000E+00 0.  1.
      99926    2    1    2    0    0  0.00000000000E+00  0.00000000000E+00  0.45582738771E+03  0.64574241372E+03  0.45738895646E+03 0.  0.
      99925    2    3    3    0    0 -0.99239895648E+02 -0.99994900005E+01  0.36799646094E+03  0.46323124560E+03  0.26308410244E+03 0.  0.
         25    1    4    4    0    0 -0.62106815195E+02 -0.88441700340E+01  0.25382453282E+03  0.28984457456E+03  0.12509000000E+03 0.  0.
         25    1    3    3    0    0  0.99239895648E+02  0.99994900005E+01  0.87830926777E+02  0.18251116812E+03  0.12509000000E+03 0.  0.
         25    1    4    4    0    0 -0.37133080452E+02 -0.11553199665E+01  0.11417192811E+03  0.17338667105E+03  0.12509000000E+03 0.  0.
<mgrwt>
<rscale>  2 0.45738896E+03</rscale>
<asrwt>0</asrwt>
<pdfrwt beam="1">  1       21 0.80997778E-01 0.45738896E+03</pdfrwt>
<pdfrwt beam="2">  1       21 0.13964340E-01 0.45738896E+03</pdfrwt>
<totfact> 0.54905165E+04</totfact>
</mgrwt>
</event>
<event>
 7    0  0.4766352E-002  0.4567066E+03  0.7546771E-02  0.1025741E+00
         21   -1    0    0  502  501  0.00000000000E+00  0.00000000000E+00  0.61617237879E+03  0.61617237879E+03  0.00000000000E+00 0. -1.
         21   -1    0    0  501  502 -0.00000000000E+00 -0.00000000000E+00 -0.84627672348E+02  0.84627672348E+02  0.00000000000E+00 0. -1.
      99926    2    1    2    0    0  0.14210854715E-13  0.00000000000E+00  0.53154470644E+03  0.70080005114E+03  0.45670661997E+03 0.  0.
      99925    2    3    3    0    0  0.65956804801E+02  0.73230253892E+02  0.42417072102E+03  0.50873326320E+03  0.26301285582E+03 0.  0.
         25    1    4    4    0    0 -0.58063787447E+01  0.41533864625E+02  0.17601984078E+03  0.21997560863E+03  0.12509000000E+03 0.  0.
         25    1    4    4    0    0  0.71763183545E+02  0.31696389267E+02  0.24815088025E+03  0.28875765457E+03  0.12509000000E+03 0.  0.
         25    1    3    3    0    0 -0.65956804801E+02 -0.73230253892E+02  0.10737398542E+03  0.19206678794E+03  0.12509000000E+03 0.  0.
<mgrwt>
<rscale>  2 0.45670662E+03</rscale>
<asrwt>0</asrwt>
<pdfrwt beam="1">  1       21 0.90613583E-01 0.45670662E+03</pdfrwt>
<pdfrwt beam="2">  1       21 0.12445246E-01 0.45670662E+03</pdfrwt>
<totfact> 0.52155525E+04</totfact>
</mgrwt>
</event>
<event>
 7    0  0.4766352E-002  0.4562208E+03  0.7546771E-02  0.1025883E+00
         21   -1    0    0  502  501  0.00000000000E+00  0.00000000000E+00  0.97342624843E+02  0.97342624843E+02  0.00000000000E+00 0. -1.
         21   -1    0    0  501  502 -0.00000000000E+00 -0.00000000000E+00 -0.53454852459E+03  0.53454852459E+03  0.00000000000E+00 0. -1.
      99926    2    1    2    0    0 -0.71054273576E-14  0.00000000000E+00 -0.43720589974E+03  0.63189114943E+03  0.45622080833E+03 0.  0.
      99925    2    3    3    0    0  0.56848376197E+02 -0.75622948623E+02 -0.36361061237E+03  0.45864466993E+03  0.26304312877E+03 0.  0.
         25    1    4    4    0    0  0.65454439984E+02 -0.58398337920E+02 -0.20736472533E+03  0.25756996524E+03  0.12509000000E+03 0.  0.
         25    1    4    4    0    0 -0.86060637864E+01 -0.17224610703E+02 -0.15624588704E+03  0.20107470469E+03  0.12509000000E+03 0.  0.
         25    1    3    3    0    0 -0.56848376197E+02  0.75622948623E+02 -0.73595287374E+02  0.17324647950E+03  0.12509000000E+03 0.  0.
<mgrwt>
<rscale>  2 0.45622081E+03</rscale>
<asrwt>0</asrwt>
<pdfrwt beam="1">  1       21 0.14315092E-01 0.45622081E+03</pdfrwt>
<pdfrwt beam="2">  1       21 0.78610078E-01 0.45622081E+03</pdfrwt>
<totfact> 0.56213323E+04</totfact>
</mgrwt>
</event>
<event>
 7    0  0.4766352E-002  0.4514096E+03  0.7546771E-02  0.1027303E+00
         21   -1    0    0  502  501  0.00000000000E+00  0.00000000000E+00  0.23883486287E+03  0.23883486287E+03  0.00000000000E+00 0. -1.
         21   -1    0    0  501  502 -0.00000000000E+00 -0.00000000000E+00 -0.21329653617E+03  0.21329653617E+03  0.00000000000E+00 0. -1.
      99926    2    1    2    0    0 -0.71054273576E-14  0.00000000000E+00  0.25538326709E+02  0.45213139904E+03  0.45140956555E+03 0.  0.
      99925    2    3    3    0    0 -0.44786065600E+02  0.69599266447E+02 -0.56043838353E+02  0.28138888144E+03  0.26303790833E+03 0.  0.
         25    1    4    4    0    0  0.99248620949E+01  0.84610529556E+01 -0.18168624366E+02  0.12707359803E+03  0.12509000000E+03 0.  0.
         25    1    4    4    0    0 -0.54710927695E+02  0.61138213492E+02 -0.37875213987E+02  0.15431528341E+03  0.12509000000E+03 0.  0.
         25    1    3    3    0    0  0.44786065600E+02 -0.69599266447E+02  0.81582165062E+02  0.17074251761E+03  0.12509000000E+03 0.  0.
<mgrwt>
<rscale>  2 0.45140957E+03</rscale>
<asrwt>0</asrwt>
<pdfrwt beam="1">  1       21 0.35122774E-01 0.45140957E+03</pdfrwt>
<pdfrwt beam="2">  1       21 0.31367138E-01 0.45140957E+03</pdfrwt>
<totfact> 0.70762018E+04</totfact>
</mgrwt>
</event>
<event>
 7    0  0.4766352E-002  0.4555091E+03  0.7546771E-02  0.1026092E+00
         21   -1    0    0  502  501  0.00000000000E+00  0.00000000000E+00  0.55295946920E+02  0.55295946920E+02  0.00000000000E+00 0. -1.
         21   -1    0    0  501  502 -0.00000000000E+00 -0.00000000000E+00 -0.93808201263E+03  0.93808201263E+03  0.00000000000E+00 0. -1.
      99926    2    1    2    0    0  0.00000000000E+00  0.66613381478E-15 -0.88278606571E+03  0.99337795955E+03  0.45550909180E+03 0.  0.
      99925    2    3    3    0    0 -0.83151959975E+02  0.18705932808E+01 -0.72421452346E+03  0.77495133645E+03  0.26295465447E+03 0.  0.
         25    1    4    4    0    0 -0.59170123783E+01  0.21848472427E+02 -0.35254774531E+03  0.37476631066E+03  0.12509000000E+03 0.  0.
         25    1    4    4    0    0 -0.77234947597E+02 -0.19977879146E+02 -0.37166677815E+03  0.40018502579E+03  0.12509000000E+03 0.  0.
         25    1    3    3    0    0  0.83151959975E+02 -0.18705932808E+01 -0.15857154224E+03  0.21842662309E+03  0.12509000000E+03 0.  0.
<mgrwt>
<rscale>  2 0.45550909E+03</rscale>
<asrwt>0</asrwt>
<pdfrwt beam="1">  1       21 0.81317570E-02 0.45550909E+03</pdfrwt>
<pdfrwt beam="2">  1       21 0.13795324E+00 0.45550909E+03</pdfrwt>
<totfact> 0.39268955E+04</totfact>
</mgrwt>
</event>
<event>
 7    0  0.4766352E-002  0.4549907E+03  0.7546771E-02  0.1026244E+00
         21   -1    0    0  502  501  0.00000000000E+00  0.00000000000E+00  0.76948940241E+02  0.76948940241E+02  0.00000000000E+00 0. -1.
         21   -1    0    0  501  502 -0.00000000000E+00 -0.00000000000E+00 -0.67257760597E+03  0.67257760597E+03  0.00000000000E+00 0. -1.
      99926    2    1    2    0    0  0.00000000000E+00  0.00000000000E+00 -0.59562866573E+03  0.74952654621E+03  0.45499069885E+03 0.  0.
      99925    2    3    3    0    0 -0.98820300449E+02 -0.54434738272E+02 -0.36062624399E+03  0.46038602875E+03  0.26301219574E+03 0.  0.
         25    1    4    4    0    0 -0.42442044995E+02 -0.17755773976E+02 -0.23785416331E+03  0.27265125306E+03  0.12509000000E+03 0.  0.
         25    1    3    3    0    0  0.98820300449E+02  0.54434738272E+02 -0.23500242174E+03  0.28914051746E+03  0.12509000000E+03 0.  0.
         25    1    4    4    0    0 -0.56378255454E+02 -0.36678964296E+02 -0.12277208068E+03  0.18773477569E+03  0.12509000000E+03 0.  0.
<mgrwt>
<rscale>  2 0.45499070E+03</rscale>
<asrwt>0</asrwt>
<pdfrwt beam="1">  1       21 0.11316021E-01 0.45499070E+03</pdfrwt>
<pdfrwt beam="2">  1       21 0.98908471E-01 0.45499070E+03</pdfrwt>
<totfact> 0.50298777E+04</totfact>
</mgrwt>
</event>
<event>
 7    0  0.4766352E-002  0.4532296E+03  0.7546771E-02  0.1026763E+00
         21   -1    0    0  502  501  0.00000000000E+00  0.00000000000E+00  0.24276743049E+03  0.24276743049E+03  0.00000000000E+00 0.  1.
         21   -1    0    0  501  502 -0.00000000000E+00 -0.00000000000E+00 -0.21153691082E+03  0.21153691082E+03  0.00000000000E+00 0.  1.
      99926    2    1    2    0    0  0.00000000000E+00  0.00000000000E+00  0.31230519673E+02  0.45430434131E+03  0.45322962080E+03 0.  0.
      99925    2    3    3    0    0  0.10343826922E+03 -0.40123193992E+02  0.30309246198E+02  0.28709876999E+03  0.26305457055E+03 0.  0.
         25    1    3    3    0    0 -0.10343826922E+03  0.40123193992E+02  0.92127347563E+00  0.16720557132E+03  0.12509000000E+03 0.  0.
         25    1    4    4    0    0  0.74713117210E+02  0.10604749575E+02  0.13976369629E+01  0.14609576341E+03  0.12509000000E+03 0.  0.
         25    1    4    4    0    0  0.28725152011E+02 -0.50727943567E+02  0.28911609235E+02  0.14100300658E+03  0.12509000000E+03 0.  0.
<mgrwt>
<rscale>  2 0.45322962E+03</rscale>
<asrwt>0</asrwt>
<pdfrwt beam="1">  1       21 0.35701093E-01 0.45322962E+03</pdfrwt>
<pdfrwt beam="2">  1       21 0.31108369E-01 0.45322962E+03</pdfrwt>
<totfact> 0.69574410E+04</totfact>
</mgrwt>
</event>
<event>
 7    0  0.4766352E-002  0.4604928E+03  0.7546771E-02  0.1024638E+00
         21   -1    0    0  502  501  0.00000000000E+00  0.00000000000E+00  0.75723445656E+02  0.75723445656E+02  0.00000000000E+00 0.  1.
         21   -1    0    0  501  502 -0.00000000000E+00 -0.00000000000E+00 -0.70009243358E+03  0.70009243358E+03  0.00000000000E+00 0.  1.
      99926    2    1    2    0    0 -0.35527136788E-14  0.00000000000E+00 -0.62436898792E+03  0.77581587923E+03  0.46049282882E+03 0.  0.
      99925    2    3    3    0    0  0.26119709834E+02  0.64306335265E+02 -0.22956484360E+03  0.35589283334E+03  0.26294894449E+03 0.  0.
         25    1    4    4    0    0  0.53671839631E+02  0.33121520303E+02 -0.12113854024E+03  0.18520193171E+03  0.12509000000E+03 0.  0.
         25    1    4    4    0    0 -0.27552129798E+02  0.31184814962E+02 -0.10842630335E+03  0.17069090163E+03  0.12509000000E+03 0.  0.
         25    1    3    3    0    0 -0.26119709834E+02 -0.64306335265E+02 -0.39480414432E+03  0.41992304589E+03  0.12509000000E+03 0.  0.
<mgrwt>
<rscale>  2 0.46049283E+03</rscale>
<asrwt>0</asrwt>
<pdfrwt beam="1">  1       21 0.11135801E-01 0.46049283E+03</pdfrwt>
<pdfrwt beam="2">  1       21 0.10295477E+00 0.46049283E+03</pdfrwt>
<totfact> 0.46901689E+04</totfact>
</mgrwt>
</event>
<event>
 7    0  0.4766352E-002  0.4351268E+03  0.7546771E-02  0.1032253E+00
         21   -1    0    0  502  501  0.00000000000E+00  0.00000000000E+00  0.16793402707E+03  0.16793402707E+03  0.00000000000E+00 0.  1.
         21   -1    0    0  501  502 -0.00000000000E+00 -0.00000000000E+00 -0.28185974606E+03  0.28185974606E+03  0.00000000000E+00 0.  1.
      99926    2    1    2    0    0  0.00000000000E+00  0.00000000000E+00 -0.11392571899E+03  0.44979377314E+03  0.43512684232E+03 0.  0.
      99925    2    3    3    0    0  0.23917152832E+02  0.73606786839E+02 -0.12721496588E+03  0.30209779671E+03  0.26284870547E+03 0.  0.
         25    1    4    4    0    0 -0.22871388644E+01  0.75456011887E+02 -0.64124446058E+02  0.15955655241E+03  0.12509000000E+03 0.  0.
         25    1    3    3    0    0 -0.23917152832E+02 -0.73606786839E+02  0.13289246892E+02  0.14769597642E+03  0.12509000000E+03 0.  0.
         25    1    4    4    0    0  0.26204291696E+02 -0.18492250475E+01 -0.63090519824E+02  0.14254124431E+03  0.12509000000E+03 0.  0.
<mgrwt>
<rscale>  2 0.43512684E+03</rscale>
<asrwt>0</asrwt>
<pdfrwt beam="1">  1       21 0.24696181E-01 0.43512684E+03</pdfrwt>
<pdfrwt beam="2">  1       21 0.41449962E-01 0.43512684E+03</pdfrwt>
<totfact> 0.81004133E+04</totfact>
</mgrwt>
</event>
<event>
 7    0  0.4766352E-002  0.4597210E+03  0.7546771E-02  0.1024862E+00
         21   -1    0    0  502  501  0.00000000000E+00  0.00000000000E+00  0.52651141942E+03  0.52651141942E+03  0.00000000000E+00 0.  1.
         21   -1    0    0  501  502 -0.00000000000E+00 -0.00000000000E+00 -0.10035080304E+03  0.10035080304E+03  0.00000000000E+00 0.  1.
      99926    2    1    2    0    0  0.00000000000E+00  0.00000000000E+00  0.42616061638E+03  0.62686222246E+03  0.45972097516E+03 0.  0.
      99925    2    3    3    0    0  0.98838962237E+02  0.61988969049E+02  0.28640805351E+03  0.40597750215E+03  0.26301404220E+03 0.  0.
         25    1    4    4    0    0  0.80267146970E+02  0.54025691744E+02  0.18714372592E+03  0.24501402511E+03  0.12509000000E+03 0.  0.
         25    1    4    4    0    0  0.18571815268E+02  0.79632773051E+01  0.99264327589E+02  0.16096347704E+03  0.12509000000E+03 0.  0.
         25    1    3    3    0    0 -0.98838962237E+02 -0.61988969049E+02  0.13975256287E+03  0.22088472031E+03  0.12509000000E+03 0.  0.
<mgrwt>
<rscale>  2 0.45972098E+03</rscale>
<asrwt>0</asrwt>
<pdfrwt beam="1">  1       21 0.77428149E-01 0.45972098E+03</pdfrwt>
<pdfrwt beam="2">  1       21 0.14757471E-01 0.45972098E+03</pdfrwt>
<totfact> 0.54976603E+04</totfact>
</mgrwt>
</event>
<event>
 7    0  0.4766352E-002  0.4411889E+03  0.7546771E-02  0.1030383E+00
         21   -1    0    0  502  501  0.00000000000E+00  0.00000000000E+00  0.97452121467E+02  0.97452121467E+02  0.00000000000E+00 0. -1.
         21   -1    0    0  501  502 -0.00000000000E+00 -0.00000000000E+00 -0.49934166519E+03  0.49934166519E+03  0.00000000000E+00 0. -1.
      99926    2    1    2    0    0  0.00000000000E+00  0.00000000000E+00 -0.40188954372E+03  0.59679378665E+03  0.44118886935E+03 0.  0.
      99925    2    3    3    0    0 -0.30459117808E+02  0.54471970001E+02 -0.15102672130E+03  0.30960984361E+03  0.26297192119E+03 0.  0.
         25    1    4    4    0    0 -0.83966482241E+01  0.26617133452E+02 -0.12075981429E+03  0.17609490720E+03  0.12509000000E+03 0.  0.
         25    1    3    3    0    0  0.30459117808E+02 -0.54471970001E+02 -0.25086282242E+03  0.28718394305E+03  0.12509000000E+03 0.  0.
         25    1    4    4    0    0 -0.22062469584E+02  0.27854836549E+02 -0.30266907015E+02  0.13351493641E+03  0.12509000000E+03 0.  0.
<mgrwt>
<rscale>  2 0.44118887E+03</rscale>
<asrwt>0</asrwt>
<pdfrwt beam="1">  1       21 0.14331195E-01 0.44118887E+03</pdfrwt>
<pdfrwt beam="2">  1       21 0.73432595E-01 0.44118887E+03</pdfrwt>
<totfact> 0.65764319E+04</totfact>
</mgrwt>
</event>
<event>
 7    0  0.4766352E-002  0.4026781E+03  0.7546771E-02  0.1042856E+00
         21   -1    0    0  502  501  0.00000000000E+00  0.00000000000E+00  0.11268159610E+04  0.11268159610E+04  0.00000000000E+00 0.  1.
         21   -1    0    0  501  502 -0.00000000000E+00 -0.00000000000E+00 -0.35975177456E+02  0.35975177456E+02  0.00000000000E+00 0.  1.
      99926    2    1    2    0    0 -0.35527136788E-14  0.00000000000E+00  0.10908407835E+04  0.11627911384E+04  0.40267805580E+03 0.  0.
      99925    2    3    3    0    0 -0.10861316379E+02  0.48320151622E+02  0.75836182512E+03  0.80412336580E+03  0.26277162019E+03 0.  0.
         25    1    4    4    0    0 -0.38940761754E+02  0.42870388399E+02  0.43116569373E+03  0.45266501596E+03  0.12509000000E+03 0.  0.
         25    1    3    3    0    0  0.10861316379E+02 -0.48320151622E+02  0.33247895838E+03  0.35866777261E+03  0.12509000000E+03 0.  0.
         25    1    4    4    0    0  0.28079445375E+02  0.54497632223E+01  0.32719613139E+03  0.35145834983E+03  0.12509000000E+03 0.  0.
<mgrwt>
<rscale>  2 0.40267806E+03</rscale>
<asrwt>0</asrwt>
<pdfrwt beam="1">  1       21 0.16570821E+00 0.40267806E+03</pdfrwt>
<pdfrwt beam="2">  1       21 0.52904680E-02 0.40267806E+03</pdfrwt>
<totfact> 0.51290735E+04</totfact>
</mgrwt>
</event>
<event>
 7    0  0.4766352E-002  0.4523402E+03  0.7546771E-02  0.1027026E+00
         21   -1    0    0  502  501  0.00000000000E+00  0.00000000000E+00  0.17243407495E+03  0.17243407495E+03  0.00000000000E+00 0. -1.
         21   -1    0    0  501  502 -0.00000000000E+00 -0.00000000000E+00 -0.29665198303E+03  0.29665198303E+03  0.00000000000E+00 0. -1.
      99926    2    1    2    0    0  0.00000000000E+00  0.00000000000E+00 -0.12421790808E+03  0.46908605799E+03  0.45234018295E+03 0.  0.
      99925    2    3    3    0    0 -0.76067127240E+02 -0.69385140418E+02 -0.12242475885E+03  0.30706374767E+03  0.26210650124E+03 0.  0.
         25    1    4    4    0    0 -0.51488619594E+01 -0.43800369762E+02 -0.36323534978E+02  0.13752050925E+03  0.12509000000E+03 0.  0.
         25    1    4    4    0    0 -0.70918265281E+02 -0.25584770656E+02 -0.86101223876E+02  0.16954323842E+03  0.12509000000E+03 0.  0.
         25    1    3    3    0    0  0.76067127240E+02  0.69385140418E+02 -0.17931492223E+01  0.16202231032E+03  0.12509000000E+03 0.  0.
<mgrwt>
<rscale>  2 0.45234018E+03</rscale>
<asrwt>0</asrwt>
<pdfrwt beam="1">  1       21 0.25357952E-01 0.45234018E+03</pdfrwt>
<pdfrwt beam="2">  1       21 0.43625291E-01 0.45234018E+03</pdfrwt>
<totfact> 0.68947178E+04</totfact>
</mgrwt>
</event>
<event>
 7    0  0.4766352E-002  0.4554430E+03  0.7546771E-02  0.1026111E+00
         21   -1    0    0  502  501  0.00000000000E+00  0.00000000000E+00  0.70512548824E+03  0.70512548824E+03  0.00000000000E+00 0.  1.
         21   -1    0    0  501  502 -0.00000000000E+00 -0.00000000000E+00 -0.73543057513E+02  0.73543057513E+02  0.00000000000E+00 0.  1.
      99926    2    1    2    0    0 -0.14210854715E-13  0.00000000000E+00  0.63158243073E+03  0.77866854576E+03  0.45544301218E+03 0.  0.
      99925    2    3    3    0    0 -0.10686404534E+03  0.37121921409E+02  0.41240543180E+03  0.50211109025E+03  0.26313370278E+03 0.  0.
         25    1    3    3    0    0  0.10686404534E+03 -0.37121921409E+02  0.21917699893E+03  0.27655745551E+03  0.12509000000E+03 0.  0.
         25    1    4    4    0    0 -0.95719548119E+01  0.13549899877E+02  0.17868063479E+03  0.21874528441E+03  0.12509000000E+03 0.  0.
         25    1    4    4    0    0 -0.97292090529E+02  0.23572021533E+02  0.23372479701E+03  0.28336580584E+03  0.12509000000E+03 0.  0.
<mgrwt>
<rscale>  2 0.45544301E+03</rscale>
<asrwt>0</asrwt>
<pdfrwt beam="1">  1       21 0.10369492E+00 0.45544301E+03</pdfrwt>
<pdfrwt beam="2">  1       21 0.10815156E-01 0.45544301E+03</pdfrwt>
<totfact> 0.48644556E+04</totfact>
</mgrwt>
</event>
<event>
 7    0  0.4766352E-002  0.4512955E+03  0.7546771E-02  0.1027336E+00
         21   -1    0    0  502  501  0.00000000000E+00  0.00000000000E+00  0.24280392947E+03  0.24280392947E+03  0.00000000000E+00 0.  1.
         21   -1    0    0  501  502 -0.00000000000E+00 -0.00000000000E+00 -0.20970380479E+03  0.20970380479E+03  0.00000000000E+00 0.  1.
      99926    2    1    2    0    0  0.00000000000E+00  0.71054273576E-14  0.33100124680E+02  0.45250773425E+03  0.45129550330E+03 0.  0.
      99925    2    3    3    0    0 -0.58218363570E+02 -0.61965350730E+02 -0.48063511770E+02  0.28085655736E+03  0.26332721488E+03 0.  0.
         25    1    4    4    0    0 -0.24350613904E+02 -0.43641845465E+02 -0.63768073440E+02  0.14903502395E+03  0.12509000000E+03 0.  0.
         25    1    4    4    0    0 -0.33867749666E+02 -0.18323505265E+02  0.15704561670E+02  0.13182153341E+03  0.12509000000E+03 0.  0.
         25    1    3    3    0    0  0.58218363570E+02  0.61965350730E+02  0.81163636449E+02  0.17165117690E+03  0.12509000000E+03 0.  0.
<mgrwt>
<rscale>  2 0.45129550E+03</rscale>
<asrwt>0</asrwt>
<pdfrwt beam="1">  1       21 0.35706461E-01 0.45129550E+03</pdfrwt>
<pdfrwt beam="2">  1       21 0.30838795E-01 0.45129550E+03</pdfrwt>
<totfact> 0.70798373E+04</totfact>
</mgrwt>
</event>
<event>
 7    0  0.4766352E-002  0.4515873E+03  0.7546771E-02  0.1027250E+00
         21   -1    0    0  502  501  0.00000000000E+00  0.00000000000E+00  0.38549419566E+02  0.38549419566E+02  0.00000000000E+00 0. -1.
         21   -1    0    0  501  502 -0.00000000000E+00 -0.00000000000E+00 -0.13225303976E+04  0.13225303976E+04  0.00000000000E+00 0. -1.
      99926    2    1    2    0    0 -0.14210854715E-13  0.00000000000E+00 -0.12839809781E+04  0.13610798172E+04  0.45158733015E+03 0.  0.
      99925    2    3    3    0    0  0.10130896310E+03 -0.27518639019E+02 -0.90881325213E+03  0.95191101073E+03  0.26300620452E+03 0.  0.
         25    1    4    4    0    0  0.85044433342E+02 -0.34050054927E+02 -0.44654588459E+03  0.47269725726E+03  0.12509000000E+03 0.  0.
         25    1    4    4    0    0  0.16264529756E+02  0.65314159088E+01 -0.46226736754E+03  0.47921375347E+03  0.12509000000E+03 0.  0.
         25    1    3    3    0    0 -0.10130896310E+03  0.27518639019E+02 -0.37516772594E+03  0.40916880646E+03  0.12509000000E+03 0.  0.
<mgrwt>
<rscale>  2 0.45158733E+03</rscale>
<asrwt>0</asrwt>
<pdfrwt beam="1">  1       21 0.56690337E-02 0.45158733E+03</pdfrwt>
<pdfrwt beam="2">  1       21 0.19448971E+00 0.45158733E+03</pdfrwt>
<totfact> 0.28126606E+04</totfact>
</mgrwt>
</event>
<event>
 7    0  0.4766352E-002  0.4475943E+03  0.7546771E-02  0.1028442E+00
         21   -1    0    0  502  501  0.00000000000E+00  0.00000000000E+00  0.82274932194E+02  0.82274932194E+02  0.00000000000E+00 0. -1.
         21   -1    0    0  501  502 -0.00000000000E+00 -0.00000000000E+00 -0.60875355648E+03  0.60875355648E+03  0.00000000000E+00 0. -1.
      99926    2    1    2    0    0  0.00000000000E+00  0.00000000000E+00 -0.52647862429E+03  0.69102848867E+03  0.44759426977E+03 0.  0.
      99925    2    3    3    0    0 -0.29945110542E+02  0.18731956302E+02 -0.48797617727E+03  0.55546469425E+03  0.26300699828E+03 0.  0.
         25    1    4    4    0    0 -0.28825840391E+02  0.18271557777E+01 -0.32414737222E+03  0.34864494058E+03  0.12509000000E+03 0.  0.
         25    1    4    4    0    0 -0.11192701504E+01  0.16904800524E+02 -0.16382880505E+03  0.20681975367E+03  0.12509000000E+03 0.  0.
         25    1    3    3    0    0  0.29945110542E+02 -0.18731956302E+02 -0.38502447019E+02  0.13556379442E+03  0.12509000000E+03 0.  0.
<mgrwt>
<rscale>  2 0.44759427E+03</rscale>
<asrwt>0</asrwt>
<pdfrwt beam="1">  1       21 0.12099255E-01 0.44759427E+03</pdfrwt>
<pdfrwt beam="2">  1       21 0.89522578E-01 0.44759427E+03</pdfrwt>
<totfact> 0.56622135E+04</totfact>
</mgrwt>
</event>
<event>
 7    0  0.4766352E-002  0.4533693E+03  0.7546771E-02  0.1026722E+00
         21   -1    0    0  502  501  0.00000000000E+00  0.00000000000E+00  0.85293112810E+03  0.85293112810E+03  0.00000000000E+00 0.  1.
         21   -1    0    0  501  502 -0.00000000000E+00 -0.00000000000E+00 -0.60246281691E+02  0.60246281691E+02  0.00000000000E+00 0.  1.
      99926    2    1    2    0    0  0.00000000000E+00 -0.88817841970E-15  0.79268484641E+03  0.91317740979E+03  0.45336929321E+03 0.  0.
      99925    2    3    3    0    0  0.10406379693E+02  0.35426350211E+01  0.27630383079E+03  0.38174754198E+03  0.26318536415E+03 0.  0.
         25    1    4    4    0    0  0.83171676230E+01 -0.15549848759E+02  0.19146997576E+03  0.22938882447E+03  0.12509000000E+03 0.  0.
         25    1    4    4    0    0  0.20892120699E+01  0.19092483780E+02  0.84833855022E+02  0.15235871751E+03  0.12509000000E+03 0.  0.
         25    1    3    3    0    0 -0.10406379693E+02 -0.35426350211E+01  0.51638101562E+03  0.53142986781E+03  0.12509000000E+03 0.  0.
<mgrwt>
<rscale>  2 0.45336929E+03</rscale>
<asrwt>0</asrwt>
<pdfrwt beam="1">  1       21 0.12543104E+00 0.45336929E+03</pdfrwt>
<pdfrwt beam="2">  1       21 0.88597478E-02 0.45336929E+03</pdfrwt>
<totfact> 0.43217763E+04</totfact>
</mgrwt>
</event>
<event>
 7    0  0.4766352E-002  0.4472335E+03  0.7546771E-02  0.1028550E+00
         21   -1    0    0  502  501  0.00000000000E+00  0.00000000000E+00  0.30343383657E+02  0.30343383657E+02  0.00000000000E+00 0. -1.
         21   -1    0    0  501  502 -0.00000000000E+00 -0.00000000000E+00 -0.16479524052E+04  0.16479524052E+04  0.00000000000E+00 0. -1.
      99926    2    1    2    0    0  0.00000000000E+00  0.00000000000E+00 -0.16176090216E+04  0.16782957889E+04  0.44723350536E+03 0.  0.
      99925    2    3    3    0    0 -0.84368808189E+02 -0.17178236737E+02 -0.12553727466E+04  0.12855161883E+04  0.26301701450E+03 0.  0.
         25    1    4    4    0    0 -0.71194184687E+02 -0.36986947642E+02 -0.72484071326E+03  0.73991770754E+03  0.12509000000E+03 0.  0.
         25    1    4    4    0    0 -0.13174623502E+02  0.19808710905E+02 -0.53053203335E+03  0.54559848079E+03  0.12509000000E+03 0.  0.
         25    1    3    3    0    0  0.84368808189E+02  0.17178236737E+02 -0.36223627494E+03  0.39277960053E+03  0.12509000000E+03 0.  0.
<mgrwt>
<rscale>  2 0.44723351E+03</rscale>
<asrwt>0</asrwt>
<pdfrwt beam="1">  1       21 0.44622619E-02 0.44723351E+03</pdfrwt>
<pdfrwt beam="2">  1       21 0.24234596E+00 0.44723351E+03</pdfrwt>
<totfact> 0.20952273E+04</totfact>
</mgrwt>
</event>
<event>
 7    0  0.4766352E-002  0.4535134E+03  0.7546771E-02  0.1026679E+00
         21   -1    0    0  502  501  0.00000000000E+00  0.00000000000E+00  0.20002444482E+03  0.20002444482E+03  0.00000000000E+00 0.  1.
         21   -1    0    0  501  502 -0.00000000000E+00 -0.00000000000E+00 -0.25706160716E+03  0.25706160716E+03  0.00000000000E+00 0.  1.
      99926    2    1    2    0    0  0.00000000000E+00 -0.14210854715E-13 -0.57037162336E+02  0.45708605198E+03  0.45351341880E+03 0.  0.
      99925    2    3    3    0    0 -0.62185811331E+02  0.89905927645E+02 -0.59657013856E+02  0.29093996362E+03  0.26293906551E+03 0.  0.
         25    1    4    4    0    0 -0.20304822044E+01  0.68613605262E+02 -0.45677759126E+02  0.14981960974E+03  0.12509000000E+03 0.  0.
         25    1    3    3    0    0  0.62185811331E+02 -0.89905927645E+02  0.26198515201E+01  0.16614608836E+03  0.12509000000E+03 0.  0.
         25    1    4    4    0    0 -0.60155329127E+02  0.21292322383E+02 -0.13979254730E+02  0.14112035387E+03  0.12509000000E+03 0.  0.
<mgrwt>
<rscale>  2 0.45351342E+03</rscale>
<asrwt>0</asrwt>
<pdfrwt beam="1">  1       21 0.29415360E-01 0.45351342E+03</pdfrwt>
<pdfrwt beam="2">  1       21 0.37803177E-01 0.45351342E+03</pdfrwt>
<totfact> 0.69210301E+04</totfact>
</mgrwt>
</event>
<event>
 7    0  0.4766352E-002  0.4432823E+03  0.7546771E-02  0.1029744E+00
         21   -1    0    0  502  501  0.00000000000E+00  0.00000000000E+00  0.51951244484E+03  0.51951244484E+03  0.00000000000E+00 0. -1.
         21   -1    0    0  501  502 -0.00000000000E+00 -0.00000000000E+00 -0.94559440084E+02  0.94559440084E+02  0.00000000000E+00 0. -1.
      99926    2    1    2    0    0  0.00000000000E+00  0.00000000000E+00  0.42495300475E+03  0.61407188492E+03  0.44328232945E+03 0.  0.
      99925    2    3    3    0    0 -0.67764541761E+02  0.67422172522E+02  0.22060784935E+03  0.35611407228E+03  0.26270064106E+03 0.  0.
         25    1    4    4    0    0 -0.57145844839E+02  0.60192605621E+02  0.14849334391E+03  0.21115534244E+03  0.12509000000E+03 0.  0.
         25    1    4    4    0    0 -0.10618696922E+02  0.72295669014E+01  0.72114505436E+02  0.14495872984E+03  0.12509000000E+03 0.  0.
         25    1    3    3    0    0  0.67764541761E+02 -0.67422172522E+02  0.20434515541E+03  0.25795781265E+03  0.12509000000E+03 0.  0.
<mgrwt>
<rscale>  2 0.44328233E+03</rscale>
<asrwt>0</asrwt>
<pdfrwt beam="1">  1       21 0.76398888E-01 0.44328233E+03</pdfrwt>
<pdfrwt beam="2">  1       21 0.13905800E-01 0.44328233E+03</pdfrwt>
<totfact> 0.63495309E+04</totfact>
</mgrwt>
</event>
<event>
 7    0  0.4766352E-002  0.4432949E+03  0.7546771E-02  0.1029741E+00
         21   -1    0    0  502  501  0.00000000000E+00  0.00000000000E+00  0.10693051054E+03  0.10693051054E+03  0.00000000000E+00 0. -1.
         21   -1    0    0  501  502 -0.00000000000E+00 -0.00000000000E+00 -0.45943472701E+03  0.45943472701E+03  0.00000000000E+00 0. -1.
      99926    2    1    2    0    0  0.00000000000E+00  0.00000000000E+00 -0.35250421647E+03  0.56636523755E+03  0.44329489020E+03 0.  0.
      99925    2    3    3    0    0  0.40160900995E+02 -0.72568540163E+02 -0.29966230529E+03  0.40724620454E+03  0.26300738185E+03 0.  0.
         25    1    4    4    0    0  0.31769065129E+02 -0.92015289733E+01 -0.10203721472E+03  0.16478180398E+03  0.12509000000E+03 0.  0.
         25    1    4    4    0    0  0.83918358668E+01 -0.63367011190E+02 -0.19762509057E+03  0.24246440056E+03  0.12509000000E+03 0.  0.
         25    1    3    3    0    0 -0.40160900995E+02  0.72568540163E+02 -0.52841911187E+02  0.15911903302E+03  0.12509000000E+03 0.  0.
<mgrwt>
<rscale>  2 0.44329489E+03</rscale>
<asrwt>0</asrwt>
<pdfrwt beam="1">  1       21 0.15725075E-01 0.44329489E+03</pdfrwt>
<pdfrwt beam="2">  1       21 0.67563931E-01 0.44329489E+03</pdfrwt>
<totfact> 0.66767049E+04</totfact>
</mgrwt>
</event>
<event>
 7    0  0.4766352E-002  0.4396198E+03  0.7546771E-02  0.1030864E+00
         21   -1    0    0  502  501  0.00000000000E+00  0.00000000000E+00  0.26910486112E+03  0.26910486112E+03  0.00000000000E+00 0. -1.
         21   -1    0    0  501  502 -0.00000000000E+00 -0.00000000000E+00 -0.17954482861E+03  0.17954482861E+03  0.00000000000E+00 0. -1.
      99926    2    1    2    0    0  0.71054273576E-14 -0.71054273576E-14  0.89560032504E+02  0.44864968973E+03  0.43961977284E+03 0.  0.
      99925    2    3    3    0    0 -0.36790368987E+02  0.61505402970E+02 -0.10935350122E+02  0.27291330797E+03  0.26310766986E+03 0.  0.
         25    1    4    4    0    0 -0.47281731926E+02  0.36287984375E+02  0.22990041208E+02  0.14045792992E+03  0.12509000000E+03 0.  0.
         25    1    4    4    0    0  0.10491362939E+02  0.25217418594E+02 -0.33925391330E+02  0.13245537805E+03  0.12509000000E+03 0.  0.
         25    1    3    3    0    0  0.36790368987E+02 -0.61505402970E+02  0.10049538263E+03  0.17573638176E+03  0.12509000000E+03 0.  0.
<mgrwt>
<rscale>  2 0.43961977E+03</rscale>
<asrwt>0</asrwt>
<pdfrwt beam="1">  1       21 0.39574245E-01 0.43961977E+03</pdfrwt>
<pdfrwt beam="2">  1       21 0.26403651E-01 0.43961977E+03</pdfrwt>
<totfact> 0.78166661E+04</totfact>
</mgrwt>
</event>
<event>
 7    0  0.4766352E-002  0.4635883E+03  0.7546771E-02  0.1023746E+00
         21   -1    0    0  502  501  0.00000000000E+00  0.00000000000E+00  0.97028931009E+03  0.97028931009E+03  0.00000000000E+00 0. -1.
         21   -1    0    0  501  502 -0.00000000000E+00 -0.00000000000E+00 -0.55373711127E+02  0.55373711127E+02  0.00000000000E+00 0. -1.
      99926    2    1    2    0    0  0.00000000000E+00  0.88817841970E-15  0.91491559896E+03  0.10256630212E+04  0.46358826545E+03 0.  0.
      99925    2    3    3    0    0  0.95755203572E+02 -0.54209273097E+01  0.40804279885E+03  0.49484667910E+03  0.26301305036E+03 0.  0.
         25    1    3    3    0    0 -0.95755203572E+02  0.54209273097E+01  0.50687280011E+03  0.53081634212E+03  0.12509000000E+03 0.  0.
         25    1    4    4    0    0  0.90742300540E+02 -0.63644360979E+01  0.21917985788E+03  0.26825731929E+03  0.12509000000E+03 0.  0.
         25    1    4    4    0    0  0.50129030320E+01  0.94350878819E+00  0.18886294097E+03  0.22658935981E+03  0.12509000000E+03 0.  0.
<mgrwt>
<rscale>  2 0.46358827E+03</rscale>
<asrwt>0</asrwt>
<pdfrwt beam="1">  1       21 0.14268959E+00 0.46358827E+03</pdfrwt>
<pdfrwt beam="2">  1       21 0.81431934E-02 0.46358827E+03</pdfrwt>
<totfact> 0.35726897E+04</totfact>
</mgrwt>
</event>
<event>
 7    0  0.4766352E-002  0.4304250E+03  0.7546771E-02  0.1033726E+00
         21   -1    0    0  502  501  0.00000000000E+00  0.00000000000E+00  0.28961152210E+03  0.28961152210E+03  0.00000000000E+00 0. -1.
         21   -1    0    0  501  502 -0.00000000000E+00 -0.00000000000E+00 -0.15992604642E+03  0.15992604642E+03  0.00000000000E+00 0. -1.
      99926    2    1    2    0    0  0.00000000000E+00  0.00000000000E+00  0.12968547567E+03  0.44953756852E+03  0.43042502589E+03 0.  0.
      99925    2    3    3    0    0 -0.38040740457E+02 -0.59923246240E+02  0.13818392365E+03  0.30546250096E+03  0.26301074001E+03 0.  0.
         25    1    3    3    0    0  0.38040740457E+02  0.59923246240E+02 -0.84984479778E+01  0.14407506756E+03  0.12509000000E+03 0.  0.
         25    1    4    4    0    0 -0.54730304360E+02 -0.50506071104E+02  0.80937426477E+02  0.16656723729E+03  0.12509000000E+03 0.  0.
         25    1    4    4    0    0  0.16689563902E+02 -0.94171751358E+01  0.57246497173E+02  0.13889526367E+03  0.12509000000E+03 0.  0.
<mgrwt>
<rscale>  2 0.43042503E+03</rscale>
<asrwt>0</asrwt>
<pdfrwt beam="1">  1       21 0.42589930E-01 0.43042503E+03</pdfrwt>
<pdfrwt beam="2">  1       21 0.23518536E-01 0.43042503E+03</pdfrwt>
<totfact> 0.84254141E+04</totfact>
</mgrwt>
</event>
<event>
 7    0  0.4766352E-002  0.4560459E+03  0.7546771E-02  0.1025934E+00
         21   -1    0    0  502  501  0.00000000000E+00  0.00000000000E+00  0.10688898849E+04  0.10688898849E+04  0.00000000000E+00 0. -1.
         21   -1    0    0  501  502 -0.00000000000E+00 -0.00000000000E+00 -0.48643432207E+02  0.48643432207E+02  0.00000000000E+00 0. -1.
      99926    2    1    2    0    0  0.00000000000E+00 -0.14210854715E-13  0.10202464527E+04  0.11175333171E+04  0.45604593038E+03 0.  0.
      99925    2    3    3    0    0 -0.46319506601E+02 -0.10048482710E+03  0.57262375285E+03  0.63977157033E+03  0.26299620283E+03 0.  0.
         25    1    4    4    0    0 -0.49073741004E+01 -0.70730097828E+02  0.36246517582E+03  0.38994274047E+03  0.12509000000E+03 0.  0.
         25    1    4    4    0    0 -0.41412132500E+02 -0.29754729275E+02  0.21015857703E+03  0.24982882986E+03  0.12509000000E+03 0.  0.
         25    1    3    3    0    0  0.46319506601E+02  0.10048482710E+03  0.44762269985E+03  0.47776174679E+03  0.12509000000E+03 0.  0.
<mgrwt>
<rscale>  2 0.45604593E+03</rscale>
<asrwt>0</asrwt>
<pdfrwt beam="1">  1       21 0.15718967E+00 0.45604593E+03</pdfrwt>
<pdfrwt beam="2">  1       21 0.71534466E-02 0.45604593E+03</pdfrwt>
<totfact> 0.34601983E+04</totfact>
</mgrwt>
</event>
<event>
 7    0  0.4766352E-002  0.4541056E+03  0.7546771E-02  0.1026505E+00
         21   -1    0    0  502  501  0.00000000000E+00  0.00000000000E+00  0.10801192400E+04  0.10801192400E+04  0.00000000000E+00 0. -1.
         21   -1    0    0  501  502 -0.00000000000E+00 -0.00000000000E+00 -0.47728959489E+02  0.47728959489E+02  0.00000000000E+00 0. -1.
      99926    2    1    2    0    0  0.00000000000E+00 -0.54400928207E-14  0.10323902805E+04  0.11278481995E+04  0.45410557120E+03 0.  0.
      99925    2    3    3    0    0 -0.11034454033E+03 -0.61220944398E+00  0.59838800468E+03  0.66289467933E+03  0.26303014914E+03 0.  0.
         25    1    4    4    0    0 -0.59044138181E+02 -0.39891377550E+02  0.32185075107E+03  0.35258041114E+03  0.12509000000E+03 0.  0.
         25    1    3    3    0    0  0.11034454033E+03  0.61220944398E+00  0.43400227582E+03  0.46495352015E+03  0.12509000000E+03 0.  0.
         25    1    4    4    0    0 -0.51300402147E+02  0.39279168106E+02  0.27653725361E+03  0.31031426819E+03  0.12509000000E+03 0.  0.
<mgrwt>
<rscale>  2 0.45410557E+03</rscale>
<asrwt>0</asrwt>
<pdfrwt beam="1">  1       21 0.15884105E+00 0.45410557E+03</pdfrwt>
<pdfrwt beam="2">  1       21 0.70189653E-02 0.45410557E+03</pdfrwt>
<totfact> 0.34772457E+04</totfact>
</mgrwt>
</event>
<event>
 7    0  0.4766352E-002  0.4583111E+03  0.7546771E-02  0.1025272E+00
         21   -1    0    0  502  501  0.00000000000E+00  0.00000000000E+00  0.17649011851E+03  0.17649011851E+03  0.00000000000E+00 0.  1.
         21   -1    0    0  501  502 -0.00000000000E+00 -0.00000000000E+00 -0.29753660571E+03  0.29753660571E+03  0.00000000000E+00 0.  1.
      99926    2    1    2    0    0  0.00000000000E+00  0.00000000000E+00 -0.12104648720E+03  0.47402672421E+03  0.45831112053E+03 0.  0.
      99925    2    3    3    0    0 -0.48136835703E+02  0.73022819585E+02 -0.15518414341E+03  0.31762220125E+03  0.26296816771E+03 0.  0.
         25    1    3    3    0    0  0.48136835703E+02 -0.73022819585E+02  0.34137656210E+02  0.15640452296E+03  0.12509000000E+03 0.  0.
         25    1    4    4    0    0 -0.29836183547E+02  0.13892706379E+01 -0.48879925265E+02  0.13758227762E+03  0.12509000000E+03 0.  0.
         25    1    4    4    0    0 -0.18300652156E+02  0.71633548948E+02 -0.10630421815E+03  0.18003992363E+03  0.12509000000E+03 0.  0.
<mgrwt>
<rscale>  2 0.45831112E+03</rscale>
<asrwt>0</asrwt>
<pdfrwt beam="1">  1       21 0.25954429E-01 0.45831112E+03</pdfrwt>
<pdfrwt beam="2">  1       21 0.43755383E-01 0.45831112E+03</pdfrwt>
<totfact> 0.65402402E+04</totfact>
</mgrwt>
</event>
<event>
 7    0  0.4766352E-002  0.4557032E+03  0.7546771E-02  0.1026035E+00
         21   -1    0    0  502  501  0.00000000000E+00  0.00000000000E+00  0.23037334983E+03  0.23037334983E+03  0.00000000000E+00 0. -1.
         21   -1    0    0  501  502 -0.00000000000E+00 -0.00000000000E+00 -0.22535749726E+03  0.22535749726E+03  0.00000000000E+00 0. -1.
      99926    2    1    2    0    0 -0.17763568394E-14  0.00000000000E+00  0.50158525684E+01  0.45573084709E+03  0.45570324358E+03 0.  0.
      99925    2    3    3    0    0 -0.15629122439E+02 -0.11267131213E+03  0.70525381264E+01  0.28664285156E+03  0.26301196172E+03 0.  0.
         25    1    3    3    0    0  0.15629122439E+02  0.11267131213E+03 -0.20366855580E+01  0.16908799553E+03  0.12509000000E+03 0.  0.
         25    1    4    4    0    0  0.26657633456E+02 -0.56743718583E+02  0.24956081993E+02  0.14212949429E+03  0.12509000000E+03 0.  0.
         25    1    4    4    0    0 -0.42286755895E+02 -0.55927593548E+02 -0.17903543867E+02  0.14451335726E+03  0.12509000000E+03 0.  0.
<mgrwt>
<rscale>  2 0.45570324E+03</rscale>
<asrwt>0</asrwt>
<pdfrwt beam="1">  1       21 0.33878434E-01 0.45570324E+03</pdfrwt>
<pdfrwt beam="2">  1       21 0.33140808E-01 0.45570324E+03</pdfrwt>
<totfact> 0.68109308E+04</totfact>
</mgrwt>
</event>
<event>
 7    0  0.4766352E-002  0.4491359E+03  0.7546771E-02  0.1027980E+00
         21   -1    0    0  502  501  0.00000000000E+00  0.00000000000E+00  0.46331235179E+02  0.46331235179E+02  0.00000000000E+00 0. -1.
         21   -1    0    0  501  502 -0.00000000000E+00 -0.00000000000E+00 -0.10884828956E+04  0.10884828956E+04  0.00000000000E+00 0. -1.
      99926    2    1    2    0    0  0.35527136788E-14 -0.71054273576E-14 -0.10421516604E+04  0.11348141307E+04  0.44913586819E+03 0.  0.
      99925    2    3    3    0    0  0.27177885883E+02 -0.63250928506E+02 -0.86798578762E+03  0.90960183806E+03  0.26312897762E+03 0.  0.
         25    1    3    3    0    0 -0.27177885883E+02  0.63250928506E+02 -0.17416587277E+03  0.22521229268E+03  0.12509000000E+03 0.  0.
         25    1    4    4    0    0 -0.28576263460E+01  0.69858984827E+01 -0.41225221518E+03  0.43087859755E+03  0.12509000000E+03 0.  0.
         25    1    4    4    0    0  0.30035512229E+02 -0.70236826988E+02 -0.45573357244E+03  0.47872324051E+03  0.12509000000E+03 0.  0.
<mgrwt>
<rscale>  2 0.44913587E+03</rscale>
<asrwt>0</asrwt>
<pdfrwt beam="1">  1       21 0.68134162E-02 0.44913587E+03</pdfrwt>
<pdfrwt beam="2">  1       21 0.16007103E+00 0.44913587E+03</pdfrwt>
<totfact> 0.35906902E+04</totfact>
</mgrwt>
</event>
<event>
 7    0  0.4766352E-002  0.4490103E+03  0.7546771E-02  0.1028018E+00
         21   -1    0    0  502  501  0.00000000000E+00  0.00000000000E+00  0.94315822341E+03  0.94315822341E+03  0.00000000000E+00 0.  1.
         21   -1    0    0  501  502 -0.00000000000E+00 -0.00000000000E+00 -0.53440188061E+02  0.53440188061E+02  0.00000000000E+00 0.  1.
      99926    2    1    2    0    0  0.00000000000E+00 -0.14210854715E-13  0.88971803535E+03  0.99659841147E+03  0.44901025748E+03 0.  0.
      99925    2    3    3    0    0 -0.59071326953E+02 -0.86816905427E+02  0.51127402047E+03  0.58441644045E+03  0.26289704283E+03 0.  0.
         25    1    4    4    0    0 -0.22049781805E+02 -0.84003135919E+02  0.28926634871E+03  0.32690250583E+03  0.12509000000E+03 0.  0.
         25    1    3    3    0    0  0.59071326953E+02  0.86816905427E+02  0.37844401488E+03  0.41218197102E+03  0.12509000000E+03 0.  0.
         25    1    4    4    0    0 -0.37021545148E+02 -0.28137695073E+01  0.22200767176E+03  0.25751393462E+03  0.12509000000E+03 0.  0.
<mgrwt>
<rscale>  2 0.44901026E+03</rscale>
<asrwt>0</asrwt>
<pdfrwt beam="1">  1       21 0.13869973E+00 0.44901026E+03</pdfrwt>
<pdfrwt beam="2">  1       21 0.78588518E-02 0.44901026E+03</pdfrwt>
<totfact> 0.41192903E+04</totfact>
</mgrwt>
</event>
<event>
 7    0  0.4766352E-002  0.4527182E+03  0.7546771E-02  0.1026915E+00
         21   -1    0    0  502  501  0.00000000000E+00  0.00000000000E+00  0.13141415083E+04  0.13141415083E+04  0.00000000000E+00 0.  1.
         21   -1    0    0  501  502 -0.00000000000E+00 -0.00000000000E+00 -0.38990048320E+02  0.38990048320E+02  0.00000000000E+00 0.  1.
      99926    2    1    2    0    0  0.00000000000E+00  0.00000000000E+00  0.12751514600E+04  0.13531315567E+04  0.45271819451E+03 0.  0.
      99925    2    3    3    0    0 -0.51518406355E+02  0.68735390200E+02  0.10141856150E+04  0.10512551243E+04  0.26303264929E+03 0.  0.
         25    1    4    4    0    0 -0.94231144806E+01  0.28700784387E+02  0.63139959285E+03  0.64437992215E+03  0.12509000000E+03 0.  0.
         25    1    4    4    0    0 -0.42095291874E+02  0.40034605813E+02  0.38278602215E+03  0.40687520214E+03  0.12509000000E+03 0.  0.
         25    1    3    3    0    0  0.51518406355E+02 -0.68735390200E+02  0.26096584503E+03  0.30187643239E+03  0.12509000000E+03 0.  0.
<mgrwt>
<rscale>  2 0.45271819E+03</rscale>
<asrwt>0</asrwt>
<pdfrwt beam="1">  1       21 0.19325607E+00 0.45271819E+03</pdfrwt>
<pdfrwt beam="2">  1       21 0.57338315E-02 0.45271819E+03</pdfrwt>
<totfact> 0.28103339E+04</totfact>
</mgrwt>
</event>
<event>
 7    0  0.4766352E-002  0.4559828E+03  0.7546771E-02  0.1025953E+00
         21   -1    0    0  502  501  0.00000000000E+00  0.00000000000E+00  0.12941647041E+04  0.12941647041E+04  0.00000000000E+00 0.  1.
         21   -1    0    0  501  502 -0.00000000000E+00 -0.00000000000E+00 -0.40164966616E+02  0.40164966616E+02  0.00000000000E+00 0.  1.
      99926    2    1    2    0    0  0.00000000000E+00  0.00000000000E+00  0.12539997375E+04  0.13343296707E+04  0.45598281606E+03 0.  0.
      99925    2    3    3    0    0  0.89110543675E+02 -0.62337788264E+02  0.68729530734E+03  0.74388229110E+03  0.26298162425E+03 0.  0.
         25    1    4    4    0    0  0.15244697766E+02  0.95376691316E+00  0.29461625482E+03  0.32043650882E+03  0.12509000000E+03 0.  0.
         25    1    4    4    0    0  0.73865845908E+02 -0.63291555177E+02  0.39267905252E+03  0.42344578229E+03  0.12509000000E+03 0.  0.
         25    1    3    3    0    0 -0.89110543675E+02  0.62337788264E+02  0.56670443012E+03  0.59044737958E+03  0.12509000000E+03 0.  0.
<mgrwt>
<rscale>  2 0.45598282E+03</rscale>
<asrwt>0</asrwt>
<pdfrwt beam="1">  1       21 0.19031831E+00 0.45598282E+03</pdfrwt>
<pdfrwt beam="2">  1       21 0.59066136E-02 0.45598282E+03</pdfrwt>
<totfact> 0.27919855E+04</totfact>
</mgrwt>
</event>
<event>
 7    0  0.4766352E-002  0.4587054E+03  0.7546771E-02  0.1025157E+00
         21   -1    0    0  502  501  0.00000000000E+00  0.00000000000E+00  0.41554058698E+03  0.41554058698E+03  0.00000000000E+00 0. -1.
         21   -1    0    0  501  502 -0.00000000000E+00 -0.00000000000E+00 -0.12658851987E+03  0.12658851987E+03  0.00000000000E+00 0. -1.
      99926    2    1    2    0    0 -0.14210854715E-13 -0.35527136788E-14  0.28895206711E+03  0.54212910684E+03  0.45870542988E+03 0.  0.
      99925    2    3    3    0    0 -0.83826378349E+02 -0.29181820669E+02  0.92555630367E+02  0.29293538937E+03  0.26337455698E+03 0.  0.
         25    1    3    3    0    0  0.83826378349E+02  0.29181820669E+02  0.19639643674E+03  0.24919371748E+03  0.12509000000E+03 0.  0.
         25    1    4    4    0    0 -0.41312385859E+02  0.67296006167E+01  0.82828674008E+01  0.13216699566E+03  0.12509000000E+03 0.  0.
         25    1    4    4    0    0 -0.42513992489E+02 -0.35911421286E+02  0.84272762966E+02  0.16076839370E+03  0.12509000000E+03 0.  0.
<mgrwt>
<rscale>  2 0.45870543E+03</rscale>
<asrwt>0</asrwt>
<pdfrwt beam="1">  1       21 0.61108910E-01 0.45870543E+03</pdfrwt>
<pdfrwt beam="2">  1       21 0.18615959E-01 0.45870543E+03</pdfrwt>
<totfact> 0.60593213E+04</totfact>
</mgrwt>
</event>
<event>
 7    0  0.4766352E-002  0.4561909E+03  0.7546771E-02  0.1025892E+00
         21   -1    0    0  502  501  0.00000000000E+00  0.00000000000E+00  0.14272661252E+03  0.14272661252E+03  0.00000000000E+00 0.  1.
         21   -1    0    0  501  502 -0.00000000000E+00 -0.00000000000E+00 -0.36452575046E+03  0.36452575046E+03  0.00000000000E+00 0.  1.
      99926    2    1    2    0    0  0.71054273576E-14 -0.71054273576E-14 -0.22179913793E+03  0.50725236298E+03  0.45619086155E+03 0.  0.
      99925    2    3    3    0    0  0.35955395053E+02 -0.51152567584E+02 -0.32895488713E+02  0.27221731795E+03  0.26288929117E+03 0.  0.
         25    1    4    4    0    0 -0.19384332535E+02 -0.14409347844E+02 -0.28520848297E+01  0.12743242971E+03  0.12509000000E+03 0.  0.
         25    1    3    3    0    0 -0.35955395053E+02  0.51152567584E+02 -0.18890364922E+03  0.23503504503E+03  0.12509000000E+03 0.  0.
         25    1    4    4    0    0  0.55339727588E+02 -0.36743219740E+02 -0.30043403884E+02  0.14478488824E+03  0.12509000000E+03 0.  0.
<mgrwt>
<rscale>  2 0.45619086E+03</rscale>
<asrwt>0</asrwt>
<pdfrwt beam="1">  1       21 0.20989208E-01 0.45619086E+03</pdfrwt>
<pdfrwt beam="2">  1       21 0.53606727E-01 0.45619086E+03</pdfrwt>
<totfact> 0.64155568E+04</totfact>
</mgrwt>
</event>
<event>
 7    0  0.4766352E-002  0.4581364E+03  0.7546771E-02  0.1025323E+00
         21   -1    0    0  502  501  0.00000000000E+00  0.00000000000E+00  0.15321168849E+03  0.15321168849E+03  0.00000000000E+00 0. -1.
         21   -1    0    0  501  502 -0.00000000000E+00 -0.00000000000E+00 -0.34248201540E+03  0.34248201540E+03  0.00000000000E+00 0. -1.
      99926    2    1    2    0    0 -0.14210854715E-13  0.35527136788E-14 -0.18927032691E+03  0.49569370389E+03  0.45813643320E+03 0.  0.
      99925    2    3    3    0    0 -0.78114405641E+02  0.18760834920E+02 -0.20950645550E+03  0.34565758058E+03  0.26293036877E+03 0.  0.
         25    1    4    4    0    0 -0.30244173769E+02  0.14007472755E+02 -0.53726524893E+02  0.14016050413E+03  0.12509000000E+03 0.  0.
         25    1    3    3    0    0  0.78114405641E+02 -0.18760834920E+02  0.20236128599E+02  0.15003612330E+03  0.12509000000E+03 0.  0.
         25    1    4    4    0    0 -0.47870231872E+02  0.47533621648E+01 -0.15577993061E+03  0.20549707646E+03  0.12509000000E+03 0.  0.
<mgrwt>
<rscale>  2 0.45813643E+03</rscale>
<asrwt>0</asrwt>
<pdfrwt beam="1">  1       21 0.22531131E-01 0.45813643E+03</pdfrwt>
<pdfrwt beam="2">  1       21 0.50365001E-01 0.45813643E+03</pdfrwt>
<totfact> 0.63966663E+04</totfact>
</mgrwt>
</event>
<event>
 7    0  0.4766352E-002  0.4600244E+03  0.7546771E-02  0.1024774E+00
         21   -1    0    0  502  501  0.00000000000E+00  0.00000000000E+00  0.11223952650E+04  0.11223952650E+04  0.00000000000E+00 0. -1.
         21   -1    0    0  501  502 -0.00000000000E+00 -0.00000000000E+00 -0.47136351320E+02  0.47136351320E+02  0.00000000000E+00 0. -1.
      99926    2    1    2    0    0  0.53290705182E-14  0.00000000000E+00  0.10752589137E+04  0.11695316163E+04  0.46002442340E+03 0.  0.
      99925    2    3    3    0    0 -0.13673883121E+02  0.11464575839E+03  0.73600992754E+03  0.78996869967E+03  0.26269622767E+03 0.  0.
         25    1    4    4    0    0  0.27900726024E+02  0.78206746031E+02  0.39229329239E+03  0.42004318944E+03  0.12509000000E+03 0.  0.
         25    1    3    3    0    0  0.13673883121E+02 -0.11464575839E+03  0.33924898614E+03  0.37956291665E+03  0.12509000000E+03 0.  0.
         25    1    4    4    0    0 -0.41574609145E+02  0.36439012355E+02  0.34371663514E+03  0.36992551023E+03  0.12509000000E+03 0.  0.
<mgrwt>
<rscale>  2 0.46002442E+03</rscale>
<asrwt>0</asrwt>
<pdfrwt beam="1">  1       21 0.16505811E+00 0.46002442E+03</pdfrwt>
<pdfrwt beam="2">  1       21 0.69318171E-02 0.46002442E+03</pdfrwt>
<totfact> 0.31870718E+04</totfact>
</mgrwt>
</event>
<event>
 7    0  0.4766352E-002  0.4519436E+03  0.7546771E-02  0.1027144E+00
         21   -1    0    0  502  501  0.00000000000E+00  0.00000000000E+00  0.28882779424E+03  0.28882779424E+03  0.00000000000E+00 0.  1.
         21   -1    0    0  501  502 -0.00000000000E+00 -0.00000000000E+00 -0.17679481137E+03  0.17679481137E+03  0.00000000000E+00 0.  1.
      99926    2    1    2    0    0  0.00000000000E+00  0.71054273576E-14  0.11203298287E+03  0.46562260561E+03  0.45194360445E+03 0.  0.
      99925    2    3    3    0    0  0.92255455737E+02  0.48649795738E+02  0.34807017108E+02  0.28537491595E+03  0.26334282310E+03 0.  0.
         25    1    4    4    0    0  0.11632364308E+02  0.14905208306E+02 -0.83649720087E+01  0.12678705766E+03  0.12509000000E+03 0.  0.
         25    1    4    4    0    0  0.80623091428E+02  0.33744587432E+02  0.43171989117E+02  0.15858785829E+03  0.12509000000E+03 0.  0.
         25    1    3    3    0    0 -0.92255455737E+02 -0.48649795738E+02  0.77225965759E+02  0.18024768966E+03  0.12509000000E+03 0.  0.
<mgrwt>
<rscale>  2 0.45194360E+03</rscale>
<asrwt>0</asrwt>
<pdfrwt beam="1">  1       21 0.42474676E-01 0.45194360E+03</pdfrwt>
<pdfrwt beam="2">  1       21 0.25999237E-01 0.45194360E+03</pdfrwt>
<totfact> 0.69430888E+04</totfact>
</mgrwt>
</event>
<event>
 7    0  0.4766352E-002  0.4561503E+03  0.7546771E-02  0.1025904E+00
         21   -1    0    0  502  501  0.00000000000E+00  0.00000000000E+00  0.99627060366E+02  0.99627060366E+02  0.00000000000E+00 0. -1.
         21   -1    0    0  501  502 -0.00000000000E+00 -0.00000000000E+00 -0.52212986037E+03  0.52212986037E+03  0.00000000000E+00 0. -1.
      99926    2    1    2    0    0  0.00000000000E+00  0.00000000000E+00 -0.42250280001E+03  0.62175692074E+03  0.45615025208E+03 0.  0.
      99925    2    3    3    0    0  0.81212293851E+01 -0.65654038013E+02 -0.39258948553E+03  0.47712386242E+03  0.26295297844E+03 0.  0.
         25    1    4    4    0    0  0.78217420927E+01 -0.56621767908E+02 -0.14663208083E+03  0.20103651280E+03  0.12509000000E+03 0.  0.
         25    1    4    4    0    0  0.29948729243E+00 -0.90322701048E+01 -0.24595740470E+03  0.27608734962E+03  0.12509000000E+03 0.  0.
         25    1    3    3    0    0 -0.81212293851E+01  0.65654038013E+02 -0.29913314475E+02  0.14463305831E+03  0.12509000000E+03 0.  0.
<mgrwt>
<rscale>  2 0.45615025E+03</rscale>
<asrwt>0</asrwt>
<pdfrwt beam="1">  1       21 0.14651039E-01 0.45615025E+03</pdfrwt>
<pdfrwt beam="2">  1       21 0.76783801E-01 0.45615025E+03</pdfrwt>
<totfact> 0.56840647E+04</totfact>
</mgrwt>
</event>
<event>
 7    0  0.4766352E-002  0.4490709E+03  0.7546771E-02  0.1027999E+00
         21   -1    0    0  502  501  0.00000000000E+00  0.00000000000E+00  0.21073618256E+03  0.21073618256E+03  0.00000000000E+00 0. -1.
         21   -1    0    0  501  502 -0.00000000000E+00 -0.00000000000E+00 -0.23923827535E+03  0.23923827535E+03  0.00000000000E+00 0. -1.
      99926    2    1    2    0    0 -0.35527136788E-14  0.00000000000E+00 -0.28502092792E+02  0.44997445790E+03  0.44907086687E+03 0.  0.
      99925    2    3    3    0    0 -0.26610181504E+02  0.10360395836E+03 -0.28868689220E+02  0.28538550189E+03  0.26300114358E+03 0.  0.
         25    1    3    3    0    0  0.26610181504E+02 -0.10360395836E+03  0.36659642847E+00  0.16458895601E+03  0.12509000000E+03 0.  0.
         25    1    4    4    0    0 -0.17658925100E+02  0.78457703640E+02  0.16607725110E+02  0.14963546882E+03  0.12509000000E+03 0.  0.
         25    1    4    4    0    0 -0.89512564047E+01  0.25146254725E+02 -0.45476414331E+02  0.13575003307E+03  0.12509000000E+03 0.  0.
<mgrwt>
<rscale>  2 0.44907087E+03</rscale>
<asrwt>0</asrwt>
<pdfrwt beam="1">  1       21 0.30990615E-01 0.44907087E+03</pdfrwt>
<pdfrwt beam="2">  1       21 0.35182099E-01 0.44907087E+03</pdfrwt>
<totfact> 0.72274655E+04</totfact>
</mgrwt>
</event>
<event>
 7    0  0.4766352E-002  0.4667310E+03  0.7546771E-02  0.1022847E+00
         21   -1    0    0  502  501  0.00000000000E+00  0.00000000000E+00  0.13830662557E+03  0.13830662557E+03  0.00000000000E+00 0.  1.
         21   -1    0    0  501  502 -0.00000000000E+00 -0.00000000000E+00 -0.39375884914E+03  0.39375884914E+03  0.00000000000E+00 0.  1.
      99926    2    1    2    0    0  0.00000000000E+00  0.00000000000E+00 -0.25545222357E+03  0.53206547471E+03  0.46673100481E+03 0.  0.
      99925    2    3    3    0    0  0.10232334473E+03 -0.67629364899E+02 -0.17809698076E+03  0.34055793030E+03  0.26309194488E+03 0.  0.
         25    1    4    4    0    0  0.47272898680E+02 -0.72190051595E+02 -0.76042132180E+02  0.16992952794E+03  0.12509000000E+03 0.  0.
         25    1    3    3    0    0 -0.10232334473E+03  0.67629364899E+02 -0.77355242808E+02  0.19150754440E+03  0.12509000000E+03 0.  0.
         25    1    4    4    0    0  0.55050446054E+02  0.45606866965E+01 -0.10205484858E+03  0.17062840236E+03  0.12509000000E+03 0.  0.
<mgrwt>
<rscale>  2 0.46673100E+03</rscale>
<asrwt>0</asrwt>
<pdfrwt beam="1">  1       21 0.20339210E-01 0.46673100E+03</pdfrwt>
<pdfrwt beam="2">  1       21 0.57905713E-01 0.46673100E+03</pdfrwt>
<totfact> 0.57528117E+04</totfact>
</mgrwt>
</event>
<event>
 7    0  0.4766352E-002  0.4516080E+03  0.7546771E-02  0.1027244E+00
         21   -1    0    0  502  501  0.00000000000E+00  0.00000000000E+00  0.33313088473E+03  0.33313088473E+03  0.00000000000E+00 0. -1.
         21   -1    0    0  501  502 -0.00000000000E+00 -0.00000000000E+00 -0.15305526972E+03  0.15305526972E+03  0.00000000000E+00 0. -1.
      99926    2    1    2    0    0 -0.14210854715E-13  0.00000000000E+00  0.18007561501E+03  0.48618615444E+03  0.45160796013E+03 0.  0.
      99925    2    3    3    0    0 -0.74016347913E+02  0.44189171117E+02  0.40104534715E+02  0.27961772989E+03  0.26295740827E+03 0.  0.
         25    1    4    4    0    0 -0.28851260300E+02  0.60940121458E+02  0.29661558513E+02  0.14516683429E+03  0.12509000000E+03 0.  0.
         25    1    3    3    0    0  0.74016347913E+02 -0.44189171117E+02  0.13997108030E+03  0.20656842455E+03  0.12509000000E+03 0.  0.
         25    1    4    4    0    0 -0.45165087614E+02 -0.16750950340E+02  0.10442976202E+02  0.13445089560E+03  0.12509000000E+03 0.  0.
<mgrwt>
<rscale>  2 0.45160796E+03</rscale>
<asrwt>0</asrwt>
<pdfrwt beam="1">  1       21 0.48989836E-01 0.45160796E+03</pdfrwt>
<pdfrwt beam="2">  1       21 0.22508128E-01 0.45160796E+03</pdfrwt>
<totfact> 0.68067011E+04</totfact>
</mgrwt>
</event>
<event>
 7    0  0.4766352E-002  0.4657696E+03  0.7546771E-02  0.1023121E+00
         21   -1    0    0  502  501  0.00000000000E+00  0.00000000000E+00  0.86251166895E+02  0.86251166895E+02  0.00000000000E+00 0. -1.
         21   -1    0    0  501  502 -0.00000000000E+00 -0.00000000000E+00 -0.62880698285E+03  0.62880698285E+03  0.00000000000E+00 0. -1.
      99926    2    1    2    0    0  0.00000000000E+00  0.00000000000E+00 -0.54255581596E+03  0.71505814975E+03  0.46576962556E+03 0.  0.
      99925    2    3    3    0    0 -0.10219257019E+03  0.26525517255E+02 -0.24127724812E+03  0.37218323377E+03  0.26298046424E+03 0.  0.
         25    1    4    4    0    0 -0.94033516945E+02  0.16225943177E+02 -0.14217586748E+03  0.21205440089E+03  0.12509000000E+03 0.  0.
         25    1    3    3    0    0  0.10219257019E+03 -0.26525517255E+02 -0.30127856784E+03  0.34287491598E+03  0.12509000000E+03 0.  0.
         25    1    4    4    0    0 -0.81590532463E+01  0.10299574078E+02 -0.99101380637E+02  0.16012883288E+03  0.12509000000E+03 0.  0.
<mgrwt>
<rscale>  2 0.46576963E+03</rscale>
<asrwt>0</asrwt>
<pdfrwt beam="1">  1       21 0.12683995E-01 0.46576963E+03</pdfrwt>
<pdfrwt beam="2">  1       21 0.92471616E-01 0.46576963E+03</pdfrwt>
<totfact> 0.47903630E+04</totfact>
</mgrwt>
</event>
<event>
 7    0  0.4766352E-002  0.4516773E+03  0.7546771E-02  0.1027223E+00
         21   -1    0    0  502  501  0.00000000000E+00  0.00000000000E+00  0.61094469484E+03  0.61094469484E+03  0.00000000000E+00 0.  1.
         21   -1    0    0  501  502 -0.00000000000E+00 -0.00000000000E+00 -0.83482337606E+02  0.83482337606E+02  0.00000000000E+00 0.  1.
      99926    2    1    2    0    0 -0.17763568394E-14  0.14210854715E-13  0.52746235724E+03  0.69442703245E+03  0.45167727981E+03 0.  0.
      99925    2    3    3    0    0  0.10659399126E+02 -0.84684079846E+02  0.22621830376E+03  0.35726163680E+03  0.26301357380E+03 0.  0.
         25    1    4    4    0    0 -0.78824357797E+01 -0.78892093180E+02  0.14228718189E+03  0.20537586370E+03  0.12509000000E+03 0.  0.
         25    1    4    4    0    0  0.18541834906E+02 -0.57919866658E+01  0.83931121866E+02  0.15188577310E+03  0.12509000000E+03 0.  0.
         25    1    3    3    0    0 -0.10659399126E+02  0.84684079846E+02  0.30124405348E+03  0.33716539565E+03  0.12509000000E+03 0.  0.
<mgrwt>
<rscale>  2 0.45167728E+03</rscale>
<asrwt>0</asrwt>
<pdfrwt beam="1">  1       21 0.89844805E-01 0.45167728E+03</pdfrwt>
<pdfrwt beam="2">  1       21 0.12276815E-01 0.45167728E+03</pdfrwt>
<totfact> 0.54621161E+04</totfact>
</mgrwt>
</event>
<event>
 7    0  0.4766352E-002  0.4577105E+03  0.7546771E-02  0.1025447E+00
         21   -1    0    0  502  501  0.00000000000E+00  0.00000000000E+00  0.13630154476E+03  0.13630154476E+03  0.00000000000E+00 0. -1.
         21   -1    0    0  501  502 -0.00000000000E+00 -0.00000000000E+00 -0.38425625109E+03  0.38425625109E+03  0.00000000000E+00 0. -1.
      99926    2    1    2    0    0  0.00000000000E+00  0.14210854715E-13 -0.24795470634E+03  0.52055779585E+03  0.45771047882E+03 0.  0.
      99925    2    3    3    0    0 -0.42682317348E+02 -0.10603293099E+03 -0.17610906294E+03  0.33650870663E+03  0.26298088318E+03 0.  0.
         25    1    4    4    0    0 -0.10463950519E+02 -0.35444190889E+02 -0.12507187982E+03  0.18071045390E+03  0.12509000000E+03 0.  0.
         25    1    3    3    0    0  0.42682317348E+02  0.10603293099E+03 -0.71845643396E+02  0.18404908922E+03  0.12509000000E+03 0.  0.
         25    1    4    4    0    0 -0.32218366829E+02 -0.70588740103E+02 -0.51037183119E+02  0.15579825272E+03  0.12509000000E+03 0.  0.
<mgrwt>
<rscale>  2 0.45771048E+03</rscale>
<asrwt>0</asrwt>
<pdfrwt beam="1">  1       21 0.20044345E-01 0.45771048E+03</pdfrwt>
<pdfrwt beam="2">  1       21 0.56508271E-01 0.45771048E+03</pdfrwt>
<totfact> 0.62494478E+04</totfact>
</mgrwt>
</event>
<event>
 7    0  0.4766352E-002  0.4506194E+03  0.7546771E-02  0.1027537E+00
         21   -1    0    0  502  501  0.00000000000E+00  0.00000000000E+00  0.83608711411E+03  0.83608711411E+03  0.00000000000E+00 0. -1.
         21   -1    0    0  501  502 -0.00000000000E+00 -0.00000000000E+00 -0.60716720346E+02  0.60716720346E+02  0.00000000000E+00 0. -1.
      99926    2    1    2    0    0  0.14210854715E-13 -0.35527136788E-14  0.77537039377E+03  0.89680383446E+03  0.45061942920E+03 0.  0.
      99925    2    3    3    0    0 -0.10667104743E+03  0.19255130050E+02  0.46563208276E+03  0.54561328532E+03  0.26292802862E+03 0.  0.
         25    1    4    4    0    0 -0.11419888971E+02 -0.26192360526E+01  0.20863164911E+03  0.24354044299E+03  0.12509000000E+03 0.  0.
         25    1    3    3    0    0  0.10667104743E+03 -0.19255130050E+02  0.30973831101E+03  0.35119054913E+03  0.12509000000E+03 0.  0.
         25    1    4    4    0    0 -0.95251158463E+02  0.21874366102E+02  0.25700043365E+03  0.30207284233E+03  0.12509000000E+03 0.  0.
<mgrwt>
<rscale>  2 0.45061943E+03</rscale>
<asrwt>0</asrwt>
<pdfrwt beam="1">  1       21 0.12295398E+00 0.45061943E+03</pdfrwt>
<pdfrwt beam="2">  1       21 0.89289299E-02 0.45061943E+03</pdfrwt>
<totfact> 0.44892228E+04</totfact>
</mgrwt>
</event>
<event>
 6    0  0.4766352E-002  0.4589456E+03  0.7546771E-02  0.1025087E+00
         21   -1    0    0  502  501  0.00000000000E+00  0.00000000000E+00  0.73306532345E+02  0.73306532345E+02  0.00000000000E+00 0.  1.
         21   -1    0    0  501  502 -0.00000000000E+00 -0.00000000000E+00 -0.71832306516E+03  0.71832306516E+03  0.00000000000E+00 0.  1.
      99926    2    1    2    0    0  0.00000000000E+00  0.14210854715E-13 -0.64501653282E+03  0.79162959751E+03  0.45894563081E+03 0.  0.
         25    1    3    3    0    0 -0.48870847790E+02 -0.58053495371E+02 -0.14293864999E+03  0.20454225443E+03  0.12509000000E+03 0.  0.
         25    1    3    3    0    0 -0.40108208305E+02 -0.17698953276E+02 -0.20167176876E+03  0.24133158048E+03  0.12509000000E+03 0.  0.
         25    1    3    3    0    0  0.88979056095E+02  0.75752448647E+02 -0.30040611407E+03  0.34575576260E+03  0.12509000000E+03 0.  0.
<mgrwt>
<rscale>  2 0.45894563E+03</rscale>
<asrwt>0</asrwt>
<pdfrwt beam="1">  1       21 0.10780372E-01 0.45894563E+03</pdfrwt>
<pdfrwt beam="2">  1       21 0.10563574E+00 0.45894563E+03</pdfrwt>
<totfact> 0.46709058E+04</totfact>
</mgrwt>
</event>
<event>
 7    0  0.4766352E-002  0.4546103E+03  0.7546771E-02  0.1026356E+00
         21   -1    0    0  502  501  0.00000000000E+00  0.00000000000E+00  0.98174050877E+02  0.98174050877E+02  0.00000000000E+00 0. -1.
         21   -1    0    0  501  502 -0.00000000000E+00 -0.00000000000E+00 -0.52628600226E+03  0.52628600226E+03  0.00000000000E+00 0. -1.
      99926    2    1    2    0    0  0.00000000000E+00  0.00000000000E+00 -0.42811195138E+03  0.62446005313E+03  0.45461028920E+03 0.  0.
      99925    2    3    3    0    0 -0.10080706589E+03 -0.34710770375E+02 -0.32006365853E+03  0.42776525452E+03  0.26301229126E+03 0.  0.
         25    1    3    3    0    0  0.10080706589E+03  0.34710770375E+02 -0.10804829285E+03  0.19669479861E+03  0.12509000000E+03 0.  0.
         25    1    4    4    0    0 -0.78505224744E+02 -0.44039980522E+02 -0.20193421446E+03  0.25402268652E+03  0.12509000000E+03 0.  0.
         25    1    4    4    0    0 -0.22301841144E+02  0.93292101461E+01 -0.11812944408E+03  0.17374256801E+03  0.12509000000E+03 0.  0.
<mgrwt>
<rscale>  2 0.45461029E+03</rscale>
<asrwt>0</asrwt>
<pdfrwt beam="1">  1       21 0.14437361E-01 0.45461029E+03</pdfrwt>
<pdfrwt beam="2">  1       21 0.77395000E-01 0.45461029E+03</pdfrwt>
<totfact> 0.57373723E+04</totfact>
</mgrwt>
</event>
<event>
 7    0  0.4766352E-002  0.4215939E+03  0.7546771E-02  0.1036549E+00
         21   -1    0    0  502  501  0.00000000000E+00  0.00000000000E+00  0.40288489681E+03  0.40288489681E+03  0.00000000000E+00 0.  1.
         21   -1    0    0  501  502 -0.00000000000E+00 -0.00000000000E+00 -0.11029291707E+03  0.11029291707E+03  0.00000000000E+00 0.  1.
      99926    2    1    2    0    0  0.00000000000E+00 -0.49960036108E-15  0.29259197975E+03  0.51317781388E+03  0.42159388284E+03 0.  0.
      99925    2    3    3    0    0  0.71703801211E+02  0.15974417787E+00  0.15372612955E+03  0.31299616368E+03  0.26304641215E+03 0.  0.
         25    1    3    3    0    0 -0.71703801211E+02 -0.15974417787E+00  0.13886585020E+03  0.20018165020E+03  0.12509000000E+03 0.  0.
         25    1    4    4    0    0  0.48596669488E+02 -0.28199962469E+02  0.48374828483E+02  0.14541150676E+03  0.12509000000E+03 0.  0.
         25    1    4    4    0    0  0.23107131723E+02  0.28359706647E+02  0.10535130107E+03  0.16758465692E+03  0.12509000000E+03 0.  0.
<mgrwt>
<rscale>  2 0.42159388E+03</rscale>
<asrwt>0</asrwt>
<pdfrwt beam="1">  1       21 0.59247778E-01 0.42159388E+03</pdfrwt>
<pdfrwt beam="2">  1       21 0.16219547E-01 0.42159388E+03</pdfrwt>
<totfact> 0.84631694E+04</totfact>
</mgrwt>
</event>
<event>
 7    0  0.4766352E-002  0.4025978E+03  0.7546771E-02  0.1042884E+00
         21   -1    0    0  502  501  0.00000000000E+00  0.00000000000E+00  0.23198912384E+04  0.23198912384E+04  0.00000000000E+00 0. -1.
         21   -1    0    0  501  502 -0.00000000000E+00 -0.00000000000E+00 -0.17466871229E+02  0.17466871229E+02  0.00000000000E+00 0. -1.
      99926    2    1    2    0    0  0.00000000000E+00  0.00000000000E+00  0.23024243671E+04  0.23373581096E+04  0.40259777211E+03 0.  0.
      99925    2    3    3    0    0  0.10472706496E+02  0.26050671401E+02  0.17730123292E+04  0.17926444884E+04  0.26308406902E+03 0.  0.
         25    1    4    4    0    0 -0.28323464596E+02  0.23180173874E+02  0.10242350944E+04  0.10324943466E+04  0.12509000000E+03 0.  0.
         25    1    4    4    0    0  0.38796171092E+02  0.28704975271E+01  0.74877723473E+03  0.76015014175E+03  0.12509000000E+03 0.  0.
         25    1    3    3    0    0 -0.10472706496E+02 -0.26050671401E+02  0.52941203798E+03  0.54471362120E+03  0.12509000000E+03 0.  0.
<mgrwt>
<rscale>  2 0.40259777E+03</rscale>
<asrwt>0</asrwt>
<pdfrwt beam="1">  1       21 0.34116026E+00 0.40259777E+03</pdfrwt>
<pdfrwt beam="2">  1       21 0.25686591E-02 0.40259777E+03</pdfrwt>
<totfact> 0.13747239E+04</totfact>
</mgrwt>
</event>
<event>
 7    0  0.4766352E-002  0.4409634E+03  0.7546771E-02  0.1030452E+00
         21   -1    0    0  502  501  0.00000000000E+00  0.00000000000E+00  0.51881216994E+03  0.51881216994E+03  0.00000000000E+00 0. -1.
         21   -1    0    0  501  502 -0.00000000000E+00 -0.00000000000E+00 -0.93698977483E+02  0.93698977483E+02  0.00000000000E+00 0. -1.
      99926    2    1    2    0    0 -0.53290705182E-14  0.00000000000E+00  0.42511319246E+03  0.61251114743E+03  0.44096335371E+03 0.  0.
      99925    2    3    3    0    0  0.40720051163E+01  0.90230742880E+02  0.32805224823E+03  0.43022976280E+03  0.26328920039E+03 0.  0.
         25    1    4    4    0    0 -0.34721157391E+02  0.62231803092E+02  0.18228116131E+03  0.23227631381E+03  0.12509000000E+03 0.  0.
         25    1    4    4    0    0  0.38793162508E+02  0.27998939789E+02  0.14577108692E+03  0.19795344899E+03  0.12509000000E+03 0.  0.
         25    1    3    3    0    0 -0.40720051163E+01 -0.90230742880E+02  0.97060944229E+02  0.18228138463E+03  0.12509000000E+03 0.  0.
<mgrwt>
<rscale>  2 0.44096335E+03</rscale>
<asrwt>0</asrwt>
<pdfrwt beam="1">  1       21 0.76295906E-01 0.44096335E+03</pdfrwt>
<pdfrwt beam="2">  1       21 0.13779262E-01 0.44096335E+03</pdfrwt>
<totfact> 0.64805568E+04</totfact>
</mgrwt>
</event>
<event>
 7    0  0.4766352E-002  0.4566497E+03  0.7546771E-02  0.1025757E+00
         21   -1    0    0  502  501  0.00000000000E+00  0.00000000000E+00  0.55960821780E+03  0.55960821780E+03  0.00000000000E+00 0.  1.
         21   -1    0    0  501  502 -0.00000000000E+00 -0.00000000000E+00 -0.93158465054E+02  0.93158465054E+02  0.00000000000E+00 0.  1.
      99926    2    1    2    0    0 -0.35527136788E-14 -0.71054273576E-14  0.46644975275E+03  0.65276668286E+03  0.45664972398E+03 0.  0.
      99925    2    3    3    0    0 -0.20041250060E+02 -0.39253624798E+02  0.44444918708E+03  0.51832698726E+03  0.26303096216E+03 0.  0.
         25    1    3    3    0    0  0.20041250060E+02  0.39253624798E+02  0.22000565666E+02  0.13443969560E+03  0.12509000000E+03 0.  0.
         25    1    4    4    0    0  0.34220603782E+01 -0.47816806894E+02  0.27825812539E+03  0.30882559797E+03  0.12509000000E+03 0.  0.
         25    1    4    4    0    0 -0.23463310438E+02  0.85631820952E+01  0.16619106169E+03  0.20950138928E+03  0.12509000000E+03 0.  0.
<mgrwt>
<rscale>  2 0.45664972E+03</rscale>
<asrwt>0</asrwt>
<pdfrwt beam="1">  1       21 0.82295325E-01 0.45664972E+03</pdfrwt>
<pdfrwt beam="2">  1       21 0.13699774E-01 0.45664972E+03</pdfrwt>
<totfact> 0.54825418E+04</totfact>
</mgrwt>
</event>
<event>
 7    0  0.4766352E-002  0.4543172E+03  0.7546771E-02  0.1026442E+00
         21   -1    0    0  502  501  0.00000000000E+00  0.00000000000E+00  0.10771981724E+04  0.10771981724E+04  0.00000000000E+00 0. -1.
         21   -1    0    0  501  502 -0.00000000000E+00 -0.00000000000E+00 -0.47902999291E+02  0.47902999291E+02  0.00000000000E+00 0. -1.
      99926    2    1    2    0    0  0.14210854715E-13  0.00000000000E+00  0.10292951731E+04  0.11251011717E+04  0.45431717241E+03 0.  0.
      99925    2    3    3    0    0  0.11120819289E+03 -0.16715746528E+02  0.65699238010E+03  0.71656285509E+03  0.26301456126E+03 0.  0.
         25    1    4    4    0    0  0.35963169186E+02 -0.21288550418E+02  0.39731179246E+03  0.41862957426E+03  0.12509000000E+03 0.  0.
         25    1    4    4    0    0  0.75245023708E+02  0.45728038897E+01  0.25968058765E+03  0.29793328084E+03  0.12509000000E+03 0.  0.
         25    1    3    3    0    0 -0.11120819289E+03  0.16715746528E+02  0.37230279297E+03  0.40853831656E+03  0.12509000000E+03 0.  0.
<mgrwt>
<rscale>  2 0.45431717E+03</rscale>
<asrwt>0</asrwt>
<pdfrwt beam="1">  1       21 0.15841148E+00 0.45431717E+03</pdfrwt>
<pdfrwt beam="2">  1       21 0.70445594E-02 0.45431717E+03</pdfrwt>
<totfact> 0.34809570E+04</totfact>
</mgrwt>
</event>
<event>
 7    0  0.4766352E-002  0.4608036E+03  0.7546771E-02  0.1024548E+00
         21   -1    0    0  502  501  0.00000000000E+00  0.00000000000E+00  0.21454751670E+04  0.21454751670E+04  0.00000000000E+00 0.  1.
         21   -1    0    0  501  502 -0.00000000000E+00 -0.00000000000E+00 -0.24742762035E+02  0.24742762035E+02  0.00000000000E+00 0.  1.
      99926    2    1    2    0    0  0.00000000000E+00  0.00000000000E+00  0.21207324049E+04  0.21702179290E+04  0.46080356556E+03 0.  0.
      99925    2    3    3    0    0 -0.91352220794E+02  0.14800275607E+02  0.97828466197E+03  0.10172224260E+04  0.26293784008E+03 0.  0.
         25    1    4    4    0    0 -0.15093981956E+02  0.27273451966E+02  0.38590357392E+03  0.40686698801E+03  0.12509000000E+03 0.  0.
         25    1    3    3    0    0  0.91352220794E+02 -0.14800275607E+02  0.11424477430E+04  0.11529955030E+04  0.12509000000E+03 0.  0.
         25    1    4    4    0    0 -0.76258238838E+02 -0.12473176359E+02  0.59238108805E+03  0.61035543800E+03  0.12509000000E+03 0.  0.
<mgrwt>
<rscale>  2 0.46080357E+03</rscale>
<asrwt>0</asrwt>
<pdfrwt beam="1">  1       21 0.31551093E+00 0.46080357E+03</pdfrwt>
<pdfrwt beam="2">  1       21 0.36386430E-02 0.46080357E+03</pdfrwt>
<totfact> 0.10636989E+04</totfact>
</mgrwt>
</event>
<event>
 7    0  0.4766352E-002  0.4756108E+03  0.7546771E-02  0.1020348E+00
         21   -1    0    0  502  501  0.00000000000E+00  0.00000000000E+00  0.18885318768E+03  0.18885318768E+03  0.00000000000E+00 0. -1.
         21   -1    0    0  501  502 -0.00000000000E+00 -0.00000000000E+00 -0.29944641240E+03  0.29944641240E+03  0.00000000000E+00 0. -1.
      99926    2    1    2    0    0  0.00000000000E+00 -0.71054273576E-14 -0.11059322472E+03  0.48829960008E+03  0.47561080526E+03 0.  0.
      99925    2    3    3    0    0 -0.30936591662E+02  0.41534140414E+02  0.55779763834E+02  0.27380102912E+03  0.26300848650E+03 0.  0.
         25    1    4    4    0    0 -0.29250755977E+02 -0.16840601701E+02  0.34887995521E+02  0.13417858593E+03  0.12509000000E+03 0.  0.
         25    1    3    3    0    0  0.30936591662E+02 -0.41534140414E+02 -0.16637298855E+03  0.21449857096E+03  0.12509000000E+03 0.  0.
         25    1    4    4    0    0 -0.16858356843E+01  0.58374742114E+02  0.20891768313E+02  0.13962244319E+03  0.12509000000E+03 0.  0.
<mgrwt>
<rscale>  2 0.47561081E+03</rscale>
<asrwt>0</asrwt>
<pdfrwt beam="1">  1       21 0.27772528E-01 0.47561081E+03</pdfrwt>
<pdfrwt beam="2">  1       21 0.44036237E-01 0.47561081E+03</pdfrwt>
<totfact> 0.56308837E+04</totfact>
</mgrwt>
</event>
<event>
 7    0  0.4766352E-002  0.4739378E+03  0.7546771E-02  0.1020815E+00
         21   -1    0    0  502  501  0.00000000000E+00  0.00000000000E+00  0.69379177987E+02  0.69379177987E+02  0.00000000000E+00 0. -1.
         21   -1    0    0  501  502 -0.00000000000E+00 -0.00000000000E+00 -0.80938189744E+03  0.80938189744E+03  0.00000000000E+00 0. -1.
      99926    2    1    2    0    0  0.71054273576E-14  0.14210854715E-13 -0.74000271945E+03  0.87876107543E+03  0.47393776267E+03 0.  0.
      99925    2    3    3    0    0 -0.54535957354E+02 -0.96363394848E+02 -0.33180798088E+03  0.43770492571E+03  0.26311402718E+03 0.  0.
         25    1    3    3    0    0  0.54535957354E+02  0.96363394848E+02 -0.40819473857E+03  0.44105614972E+03  0.12509000000E+03 0.  0.
         25    1    4    4    0    0 -0.21950573226E+02 -0.62904643502E+02 -0.22848977298E+03  0.26887526159E+03  0.12509000000E+03 0.  0.
         25    1    4    4    0    0 -0.32585384128E+02 -0.33458751346E+02 -0.10331820790E+03  0.16882966411E+03  0.12509000000E+03 0.  0.
<mgrwt>
<rscale>  2 0.47393776E+03</rscale>
<asrwt>0</asrwt>
<pdfrwt beam="1">  1       21 0.10202820E-01 0.47393776E+03</pdfrwt>
<pdfrwt beam="2">  1       21 0.11902675E+00 0.47393776E+03</pdfrwt>
<totfact> 0.38178932E+04</totfact>
</mgrwt>
</event>
<event>
 7    0  0.4766352E-002  0.4531753E+03  0.7546771E-02  0.1026779E+00
         21   -1    0    0  502  501  0.00000000000E+00  0.00000000000E+00  0.84028248846E+02  0.84028248846E+02  0.00000000000E+00 0.  1.
         21   -1    0    0  501  502 -0.00000000000E+00 -0.00000000000E+00 -0.61100846276E+03  0.61100846276E+03  0.00000000000E+00 0.  1.
      99926    2    1    2    0    0  0.00000000000E+00  0.00000000000E+00 -0.52698021392E+03  0.69503671161E+03  0.45317533541E+03 0.  0.
      99925    2    3    3    0    0  0.48089501239E+02 -0.49675527868E+02 -0.20070363410E+03  0.33882866449E+03  0.26408835063E+03 0.  0.
         25    1    3    3    0    0 -0.48089501239E+02  0.49675527868E+02 -0.32627657981E+03  0.35620804712E+03  0.12509000000E+03 0.  0.
         25    1    4    4    0    0  0.54514284879E+02 -0.67222754056E+01 -0.73142197798E+02  0.15496543305E+03  0.12509000000E+03 0.  0.
         25    1    4    4    0    0 -0.64247836404E+01 -0.42953252462E+02 -0.12756143630E+03  0.18386323144E+03  0.12509000000E+03 0.  0.
<mgrwt>
<rscale>  2 0.45317534E+03</rscale>
<asrwt>0</asrwt>
<pdfrwt beam="1">  1       21 0.12357096E-01 0.45317534E+03</pdfrwt>
<pdfrwt beam="2">  1       21 0.89854184E-01 0.45317534E+03</pdfrwt>
<totfact> 0.53943848E+04</totfact>
</mgrwt>
</event>
<event>
 7    0  0.4766352E-002  0.4541846E+03  0.7546771E-02  0.1026481E+00
         21   -1    0    0  502  501  0.00000000000E+00  0.00000000000E+00  0.26728992308E+04  0.26728992308E+04  0.00000000000E+00 0.  1.
         21   -1    0    0  501  502 -0.00000000000E+00 -0.00000000000E+00 -0.19294001663E+02  0.19294001663E+02  0.00000000000E+00 0.  1.
      99926    2    1    2    0    0  0.00000000000E+00 -0.35527136788E-14  0.26536052291E+04  0.26921932324E+04  0.45418464177E+03 0.  0.
      99925    2    3    3    0    0  0.11070967487E+03  0.16561993520E+02  0.17332855621E+04  0.17566897694E+04  0.26296230613E+03 0.  0.
         25    1    3    3    0    0 -0.11070967487E+03 -0.16561993520E+02  0.92031966700E+03  0.93550346302E+03  0.12509000000E+03 0.  0.
         25    1    4    4    0    0  0.81604928647E+02  0.41264716145E+02  0.95805262346E+03  0.97050217856E+03  0.12509000000E+03 0.  0.
         25    1    4    4    0    0  0.29104746219E+02 -0.24702722625E+02  0.77523293863E+03  0.78618759084E+03  0.12509000000E+03 0.  0.
<mgrwt>
<rscale>  2 0.45418464E+03</rscale>
<asrwt>0</asrwt>
<pdfrwt beam="1">  1       21 0.39307316E+00 0.45418464E+03</pdfrwt>
<pdfrwt beam="2">  1       21 0.28373550E-02 0.45418464E+03</pdfrwt>
<totfact> 0.53927605E+03</totfact>
</mgrwt>
</event>
<event>
 7    0  0.4766352E-002  0.4335066E+03  0.7546771E-02  0.1032758E+00
         21   -1    0    0  502  501  0.00000000000E+00  0.00000000000E+00  0.57916256587E+03  0.57916256587E+03  0.00000000000E+00 0. -1.
         21   -1    0    0  501  502 -0.00000000000E+00 -0.00000000000E+00 -0.81120548657E+02  0.81120548657E+02  0.00000000000E+00 0. -1.
      99926    2    1    2    0    0  0.00000000000E+00  0.00000000000E+00  0.49804201721E+03  0.66028311453E+03  0.43350656330E+03 0.  0.
      99925    2    3    3    0    0 -0.51824347519E+02  0.71660831176E+02  0.35620451200E+03  0.45150949621E+03  0.26297933964E+03 0.  0.
         25    1    4    4    0    0  0.17955798733E+01  0.37508974187E+02  0.12335767202E+03  0.17965180377E+03  0.12509000000E+03 0.  0.
         25    1    3    3    0    0  0.51824347519E+02 -0.71660831176E+02  0.14183750522E+03  0.20877361832E+03  0.12509000000E+03 0.  0.
         25    1    4    4    0    0 -0.53619927392E+02  0.34151856989E+02  0.23284683998E+03  0.27185769244E+03  0.12509000000E+03 0.  0.
<mgrwt>
<rscale>  2 0.43350656E+03</rscale>
<asrwt>0</asrwt>
<pdfrwt beam="1">  1       21 0.85170963E-01 0.43350656E+03</pdfrwt>
<pdfrwt beam="2">  1       21 0.11929493E-01 0.43350656E+03</pdfrwt>
<totfact> 0.65525094E+04</totfact>
</mgrwt>
</event>
<event>
 7    0  0.4766352E-002  0.4570949E+03  0.7546771E-02  0.1025627E+00
         21   -1    0    0  502  501  0.00000000000E+00  0.00000000000E+00  0.93657777225E+02  0.93657777225E+02  0.00000000000E+00 0. -1.
         21   -1    0    0  501  502 -0.00000000000E+00 -0.00000000000E+00 -0.55771059548E+03  0.55771059548E+03  0.00000000000E+00 0. -1.
      99926    2    1    2    0    0 -0.17763568394E-14 -0.88817841970E-15 -0.46405281826E+03  0.65136837271E+03  0.45709489040E+03 0.  0.
      99925    2    3    3    0    0  0.10052059661E+02 -0.39290645535E+01 -0.12932776147E+03  0.29387032629E+03  0.26366193759E+03 0.  0.
         25    1    3    3    0    0 -0.10052059661E+02  0.39290645535E+01 -0.33472505679E+03  0.35749804642E+03  0.12509000000E+03 0.  0.
         25    1    4    4    0    0 -0.28848025741E+02  0.19110871328E+02 -0.77187677782E+02  0.15100622402E+03  0.12509000000E+03 0.  0.
         25    1    4    4    0    0  0.38900085402E+02 -0.23039935881E+02 -0.52140083688E+02  0.14286410227E+03  0.12509000000E+03 0.  0.
<mgrwt>
<rscale>  2 0.45709489E+03</rscale>
<asrwt>0</asrwt>
<pdfrwt beam="1">  1       21 0.13773202E-01 0.45709489E+03</pdfrwt>
<pdfrwt beam="2">  1       21 0.82016266E-01 0.45709489E+03</pdfrwt>
<totfact> 0.54712917E+04</totfact>
</mgrwt>
</event>
<event>
 7    0  0.4766352E-002  0.4615823E+03  0.7546771E-02  0.1024323E+00
         21   -1    0    0  502  501  0.00000000000E+00  0.00000000000E+00  0.18395035460E+03  0.18395035460E+03  0.00000000000E+00 0. -1.
         21   -1    0    0  501  502 -0.00000000000E+00 -0.00000000000E+00 -0.28955943398E+03  0.28955943398E+03  0.00000000000E+00 0. -1.
      99926    2    1    2    0    0  0.00000000000E+00  0.00000000000E+00 -0.10560907938E+03  0.47350978858E+03  0.46158232444E+03 0.  0.
      99925    2    3    3    0    0 -0.62327147135E+02  0.60991353809E+02 -0.14958257821E+03  0.31480945711E+03  0.26291715059E+03 0.  0.
         25    1    3    3    0    0  0.62327147135E+02 -0.60991353809E+02  0.43973498833E+02  0.15870033147E+03  0.12509000000E+03 0.  0.
         25    1    4    4    0    0 -0.39575522510E+02 -0.83595727889E+01 -0.82429616978E+02  0.15517169295E+03  0.12509000000E+03 0.  0.
         25    1    4    4    0    0 -0.22751624625E+02  0.69350926598E+02 -0.67152961234E+02  0.15963776416E+03  0.12509000000E+03 0.  0.
<mgrwt>
<rscale>  2 0.46158232E+03</rscale>
<asrwt>0</asrwt>
<pdfrwt beam="1">  1       21 0.27051523E-01 0.46158232E+03</pdfrwt>
<pdfrwt beam="2">  1       21 0.42582270E-01 0.46158232E+03</pdfrwt>
<totfact> 0.63779811E+04</totfact>
</mgrwt>
</event>
<event>
 7    0  0.4766352E-002  0.4574369E+03  0.7546771E-02  0.1025527E+00
         21   -1    0    0  502  501  0.00000000000E+00  0.00000000000E+00  0.37900485200E+03  0.37900485200E+03  0.00000000000E+00 0.  1.
         21   -1    0    0  501  502 -0.00000000000E+00 -0.00000000000E+00 -0.13802493396E+03  0.13802493396E+03  0.00000000000E+00 0.  1.
      99926    2    1    2    0    0  0.00000000000E+00  0.00000000000E+00  0.24097991804E+03  0.51702978596E+03  0.45743685758E+03 0.  0.
      99925    2    3    3    0    0  0.63547875573E+02 -0.17027113784E+02  0.44320875590E+02  0.27485104583E+03  0.26315490169E+03 0.  0.
         25    1    4    4    0    0  0.37243308062E+02 -0.78091826219E+01  0.63349408094E+02  0.14528834411E+03  0.12509000000E+03 0.  0.
         25    1    4    4    0    0  0.26304567511E+02 -0.92179311620E+01 -0.19028532504E+02  0.12956270172E+03  0.12509000000E+03 0.  0.
         25    1    3    3    0    0 -0.63547875573E+02  0.17027113784E+02  0.19665904245E+03  0.24217874013E+03  0.12509000000E+03 0.  0.
<mgrwt>
<rscale>  2 0.45743686E+03</rscale>
<asrwt>0</asrwt>
<pdfrwt beam="1">  1       21 0.55736007E-01 0.45743686E+03</pdfrwt>
<pdfrwt beam="2">  1       21 0.20297784E-01 0.45743686E+03</pdfrwt>
<totfact> 0.62865676E+04</totfact>
</mgrwt>
</event>
<event>
 7    0  0.4766352E-002  0.4447308E+03  0.7546771E-02  0.1029305E+00
         21   -1    0    0  502  501  0.00000000000E+00  0.00000000000E+00  0.12434509851E+04  0.12434509851E+04  0.00000000000E+00 0.  1.
         21   -1    0    0  501  502 -0.00000000000E+00 -0.00000000000E+00 -0.39765435706E+02  0.39765435706E+02  0.00000000000E+00 0.  1.
      99926    2    1    2    0    0  0.71054273576E-14  0.71054273576E-14  0.12036855494E+04  0.12832164209E+04  0.44473079589E+03 0.  0.
      99925    2    3    3    0    0 -0.62015308310E+02 -0.61595156423E+02  0.92353112760E+03  0.96419624917E+03  0.26291595905E+03 0.  0.
         25    1    4    4    0    0 -0.44134463756E+02 -0.78876721617E+01  0.34782041610E+03  0.37233938311E+03  0.12509000000E+03 0.  0.
         25    1    3    3    0    0  0.62015308310E+02  0.61595156423E+02  0.28015442185E+03  0.31902017168E+03  0.12509000000E+03 0.  0.
         25    1    4    4    0    0 -0.17880844554E+02 -0.53707484262E+02  0.57571071150E+03  0.59185686606E+03  0.12509000000E+03 0.  0.
<mgrwt>
<rscale>  2 0.44473080E+03</rscale>
<asrwt>0</asrwt>
<pdfrwt beam="1">  1       21 0.18286041E+00 0.44473080E+03</pdfrwt>
<pdfrwt beam="2">  1       21 0.58478590E-02 0.44473080E+03</pdfrwt>
<totfact> 0.32094087E+04</totfact>
</mgrwt>
</event>
<event>
 7    0  0.4766352E-002  0.4579149E+03  0.7546771E-02  0.1025388E+00
         21   -1    0    0  502  501  0.00000000000E+00  0.00000000000E+00  0.55786263449E+02  0.55786263449E+02  0.00000000000E+00 0.  1.
         21   -1    0    0  501  502 -0.00000000000E+00 -0.00000000000E+00 -0.93968501283E+03  0.93968501283E+03  0.00000000000E+00 0.  1.
      99926    2    1    2    0    0  0.00000000000E+00  0.00000000000E+00 -0.88389874938E+03  0.99547127628E+03  0.45791490775E+03 0.  0.
      99925    2    3    3    0    0  0.67379326613E+02  0.93344672780E+02 -0.53009833689E+03  0.60294682918E+03  0.26322505666E+03 0.  0.
         25    1    4    4    0    0  0.46186047485E+02  0.65124487294E+01 -0.25221820825E+03  0.28537185503E+03  0.12509000000E+03 0.  0.
         25    1    3    3    0    0 -0.67379326613E+02 -0.93344672780E+02 -0.35380041249E+03  0.39252444710E+03  0.12509000000E+03 0.  0.
         25    1    4    4    0    0  0.21193279128E+02  0.86832224051E+02 -0.27788012864E+03  0.31757497415E+03  0.12509000000E+03 0.  0.
<mgrwt>
<rscale>  2 0.45791491E+03</rscale>
<asrwt>0</asrwt>
<pdfrwt beam="1">  1       21 0.82038624E-02 0.45791491E+03</pdfrwt>
<pdfrwt beam="2">  1       21 0.13818897E+00 0.45791491E+03</pdfrwt>
<totfact> 0.38460308E+04</totfact>
</mgrwt>
</event>
<event>
 7    0  0.4766352E-002  0.4684352E+03  0.7546771E-02  0.1022363E+00
         21   -1    0    0  502  501  0.00000000000E+00  0.00000000000E+00  0.31596504032E+02  0.31596504032E+02  0.00000000000E+00 0. -1.
         21   -1    0    0  501  502 -0.00000000000E+00 -0.00000000000E+00 -0.17362007791E+04  0.17362007791E+04  0.00000000000E+00 0. -1.
      99926    2    1    2    0    0  0.00000000000E+00  0.00000000000E+00 -0.17046042751E+04  0.17677972832E+04  0.46843516059E+03 0.  0.
      99925    2    3    3    0    0 -0.75185218515E+02  0.63004301739E+02 -0.13554201911E+04  0.13841315540E+04  0.26274304027E+03 0.  0.
         25    1    4    4    0    0 -0.64672775673E+02  0.95177550895E+01 -0.59025777689E+03  0.60689777299E+03  0.12509000000E+03 0.  0.
         25    1    3    3    0    0  0.75185218515E+02 -0.63004301739E+02 -0.34918408404E+03  0.38366572921E+03  0.12509000000E+03 0.  0.
         25    1    4    4    0    0 -0.10512442842E+02  0.53486546650E+02 -0.76516241416E+03  0.77723378097E+03  0.12509000000E+03 0.  0.
<mgrwt>
<rscale>  2 0.46843516E+03</rscale>
<asrwt>0</asrwt>
<pdfrwt beam="1">  1       21 0.46465439E-02 0.46843516E+03</pdfrwt>
<pdfrwt beam="2">  1       21 0.25532369E+00 0.46843516E+03</pdfrwt>
<totfact> 0.16136649E+04</totfact>
</mgrwt>
</event>
<event>
 7    0  0.4766352E-002  0.4481931E+03  0.7546771E-02  0.1028262E+00
         21   -1    0    0  502  501  0.00000000000E+00  0.00000000000E+00  0.84233485879E+03  0.84233485879E+03  0.00000000000E+00 0. -1.
         21   -1    0    0  501  502 -0.00000000000E+00 -0.00000000000E+00 -0.59619127766E+02  0.59619127766E+02  0.00000000000E+00 0. -1.
      99926    2    1    2    0    0  0.00000000000E+00  0.00000000000E+00  0.78271573102E+03  0.90195398655E+03  0.44819312609E+03 0.  0.
      99925    2    3    3    0    0  0.15125451975E+02  0.86210004472E+02  0.61832398065E+03  0.67760359128E+03  0.26298505224E+03 0.  0.
         25    1    4    4    0    0 -0.13014860851E-01  0.83790994096E+02  0.35832236192E+03  0.38866869440E+03  0.12509000000E+03 0.  0.
         25    1    4    4    0    0  0.15138466836E+02  0.24190103760E+01  0.26000161873E+03  0.28893489687E+03  0.12509000000E+03 0.  0.
         25    1    3    3    0    0 -0.15125451975E+02 -0.86210004472E+02  0.16439175037E+03  0.22435039527E+03  0.12509000000E+03 0.  0.
<mgrwt>
<rscale>  2 0.44819313E+03</rscale>
<asrwt>0</asrwt>
<pdfrwt beam="1">  1       21 0.12387277E+00 0.44819313E+03</pdfrwt>
<pdfrwt beam="2">  1       21 0.87675193E-02 0.44819313E+03</pdfrwt>
<totfact> 0.45526800E+04</totfact>
</mgrwt>
</event>
<event>
 7    0  0.4766352E-002  0.4356324E+03  0.7546771E-02  0.1032095E+00
         21   -1    0    0  502  501  0.00000000000E+00  0.00000000000E+00  0.97023793807E+02  0.97023793807E+02  0.00000000000E+00 0.  1.
         21   -1    0    0  501  502 -0.00000000000E+00 -0.00000000000E+00 -0.48899235339E+03  0.48899235339E+03  0.00000000000E+00 0.  1.
      99926    2    1    2    0    0  0.35527136788E-14  0.71054273576E-14 -0.39196855958E+03  0.58601614720E+03  0.43563238295E+03 0.  0.
      99925    2    3    3    0    0  0.74953318953E+01 -0.34323660916E+02 -0.36862803852E+03  0.45400636831E+03  0.26268014387E+03 0.  0.
         25    1    3    3    0    0 -0.74953318953E+01  0.34323660916E+02 -0.23340521063E+02  0.13200977889E+03  0.12509000000E+03 0.  0.
         25    1    4    4    0    0 -0.30402337080E+02 -0.66315558761E-01 -0.15860837774E+03  0.20427538297E+03  0.12509000000E+03 0.  0.
         25    1    4    4    0    0  0.37897668975E+02 -0.34257345357E+02 -0.21001966078E+03  0.24973098534E+03  0.12509000000E+03 0.  0.
<mgrwt>
<rscale>  2 0.43563238E+03</rscale>
<asrwt>0</asrwt>
<pdfrwt beam="1">  1       21 0.14268205E-01 0.43563238E+03</pdfrwt>
<pdfrwt beam="2">  1       21 0.71910638E-01 0.43563238E+03</pdfrwt>
<totfact> 0.69606187E+04</totfact>
</mgrwt>
</event>
<event>
 7    0  0.4766352E-002  0.4573147E+03  0.7546771E-02  0.1025563E+00
         21   -1    0    0  502  501  0.00000000000E+00  0.00000000000E+00  0.62388938628E+03  0.62388938628E+03  0.00000000000E+00 0. -1.
         21   -1    0    0  501  502 -0.00000000000E+00 -0.00000000000E+00 -0.83803620940E+02  0.83803620940E+02  0.00000000000E+00 0. -1.
      99926    2    1    2    0    0  0.00000000000E+00 -0.35527136788E-14  0.54008576534E+03  0.70769300722E+03  0.45731472592E+03 0.  0.
      99925    2    3    3    0    0 -0.50467145495E+02  0.29226451283E+02  0.49315068718E+03  0.56191396932E+03  0.26296119566E+03 0.  0.
         25    1    4    4    0    0 -0.52007620906E+02  0.21786798335E+02  0.19442926428E+03  0.23796996475E+03  0.12509000000E+03 0.  0.
         25    1    4    4    0    0  0.15404754105E+01  0.74396529484E+01  0.29872142290E+03  0.32394400457E+03  0.12509000000E+03 0.  0.
         25    1    3    3    0    0  0.50467145495E+02 -0.29226451283E+02  0.46935078165E+02  0.14577903790E+03  0.12509000000E+03 0.  0.
<mgrwt>
<rscale>  2 0.45731473E+03</rscale>
<asrwt>0</asrwt>
<pdfrwt beam="1">  1       21 0.91748437E-01 0.45731473E+03</pdfrwt>
<pdfrwt beam="2">  1       21 0.12324062E-01 0.45731473E+03</pdfrwt>
<totfact> 0.51542113E+04</totfact>
</mgrwt>
</event>
<event>
 7    0  0.4766352E-002  0.4537900E+03  0.7546771E-02  0.1026598E+00
         21   -1    0    0  502  501  0.00000000000E+00  0.00000000000E+00  0.16780064581E+03  0.16780064581E+03  0.00000000000E+00 0.  1.
         21   -1    0    0  501  502 -0.00000000000E+00 -0.00000000000E+00 -0.30680061322E+03  0.30680061322E+03  0.00000000000E+00 0.  1.
      99926    2    1    2    0    0  0.00000000000E+00  0.00000000000E+00 -0.13899996741E+03  0.47460125904E+03  0.45379000004E+03 0.  0.
      99925    2    3    3    0    0  0.84386560363E+02 -0.24659501881E+02 -0.16019776825E+03  0.32024440799E+03  0.26299044336E+03 0.  0.
         25    1    4    4    0    0  0.48862329011E+02  0.14445452892E+02 -0.45593234132E+02  0.14255682868E+03  0.12509000000E+03 0.  0.
         25    1    4    4    0    0  0.35524231352E+02 -0.39104954772E+02 -0.11460453412E+03  0.17768757931E+03  0.12509000000E+03 0.  0.
         25    1    3    3    0    0 -0.84386560363E+02  0.24659501881E+02  0.21197800844E+02  0.15435685104E+03  0.12509000000E+03 0.  0.
<mgrwt>
<rscale>  2 0.45379000E+03</rscale>
<asrwt>0</asrwt>
<pdfrwt beam="1">  1       21 0.24676566E-01 0.45379000E+03</pdfrwt>
<pdfrwt beam="2">  1       21 0.45117736E-01 0.45379000E+03</pdfrwt>
<totfact> 0.67743414E+04</totfact>
</mgrwt>
</event>
<event>
 7    0  0.4766352E-002  0.4550825E+03  0.7546771E-02  0.1026217E+00
         21   -1    0    0  502  501  0.00000000000E+00  0.00000000000E+00  0.24299945369E+03  0.24299945369E+03  0.00000000000E+00 0. -1.
         21   -1    0    0  501  502 -0.00000000000E+00 -0.00000000000E+00 -0.21306638960E+03  0.21306638960E+03  0.00000000000E+00 0. -1.
      99926    2    1    2    0    0  0.00000000000E+00  0.00000000000E+00  0.29933064096E+02  0.45606584329E+03  0.45508248163E+03 0.  0.
      99925    2    3    3    0    0 -0.84386682676E+02 -0.43259734243E+02  0.80959754542E+02  0.29100904077E+03  0.26294345996E+03 0.  0.
         25    1    4    4    0    0 -0.27688075888E+02 -0.35851182294E+02  0.76352948617E+02  0.15339236513E+03  0.12509000000E+03 0.  0.
         25    1    3    3    0    0  0.84386682676E+02  0.43259734243E+02 -0.51026690445E+02  0.16505680252E+03  0.12509000000E+03 0.  0.
         25    1    4    4    0    0 -0.56698606788E+02 -0.74085519489E+01  0.46068059250E+01  0.13761667564E+03  0.12509000000E+03 0.  0.
<mgrwt>
<rscale>  2 0.45508248E+03</rscale>
<asrwt>0</asrwt>
<pdfrwt beam="1">  1       21 0.35735214E-01 0.45508248E+03</pdfrwt>
<pdfrwt beam="2">  1       21 0.31333293E-01 0.45508248E+03</pdfrwt>
<totfact> 0.68422776E+04</totfact>
</mgrwt>
</event>
<event>
 7    0  0.4766352E-002  0.4561605E+03  0.7546771E-02  0.1025901E+00
         21   -1    0    0  502  501  0.00000000000E+00  0.00000000000E+00  0.11889587878E+03  0.11889587878E+03  0.00000000000E+00 0.  1.
         21   -1    0    0  501  502 -0.00000000000E+00 -0.00000000000E+00 -0.43753078629E+03  0.43753078629E+03  0.00000000000E+00 0.  1.
      99926    2    1    2    0    0 -0.17763568394E-14  0.00000000000E+00 -0.31863490752E+03  0.55642666507E+03  0.45616053020E+03 0.  0.
      99925    2    3    3    0    0 -0.11517288395E+02 -0.11341406670E+03 -0.19109273105E+03  0.34450707339E+03  0.26300816204E+03 0.  0.
         25    1    3    3    0    0  0.11517288395E+02  0.11341406670E+03 -0.12754217647E+03  0.21191959167E+03  0.12509000000E+03 0.  0.
         25    1    4    4    0    0  0.64839506737E+01 -0.59390517346E+02 -0.49549445161E+02  0.14721389467E+03  0.12509000000E+03 0.  0.
         25    1    4    4    0    0 -0.18001239069E+02 -0.54023549352E+02 -0.14154328589E+03  0.19729317873E+03  0.12509000000E+03 0.  0.
<mgrwt>
<rscale>  2 0.45616053E+03</rscale>
<asrwt>0</asrwt>
<pdfrwt beam="1">  1       21 0.17484688E-01 0.45616053E+03</pdfrwt>
<pdfrwt beam="2">  1       21 0.64342763E-01 0.45616053E+03</pdfrwt>
<totfact> 0.60882955E+04</totfact>
</mgrwt>
</event>
<event>
 7    0  0.4766352E-002  0.4571767E+03  0.7546771E-02  0.1025603E+00
         21   -1    0    0  502  501  0.00000000000E+00  0.00000000000E+00  0.18623697210E+03  0.18623697210E+03  0.00000000000E+00 0.  1.
         21   -1    0    0  501  502 -0.00000000000E+00 -0.00000000000E+00 -0.28057061827E+03  0.28057061827E+03  0.00000000000E+00 0.  1.
      99926    2    1    2    0    0  0.71054273576E-14  0.00000000000E+00 -0.94333646165E+02  0.46680759037E+03  0.45717665035E+03 0.  0.
      99925    2    3    3    0    0  0.60557083751E+02  0.64896211990E+02 -0.13413224460E+03  0.30834587493E+03  0.26307231101E+03 0.  0.
         25    1    4    4    0    0  0.34084765631E+02  0.39823009098E+02 -0.23989254921E+02  0.13773393102E+03  0.12509000000E+03 0.  0.
         25    1    4    4    0    0  0.26472318120E+02  0.25073202892E+02 -0.11014298967E+03  0.17061194391E+03  0.12509000000E+03 0.  0.
         25    1    3    3    0    0 -0.60557083751E+02 -0.64896211990E+02  0.39798598431E+02  0.15846171544E+03  0.12509000000E+03 0.  0.
<mgrwt>
<rscale>  2 0.45717665E+03</rscale>
<asrwt>0</asrwt>
<pdfrwt beam="1">  1       21 0.27387790E-01 0.45717665E+03</pdfrwt>
<pdfrwt beam="2">  1       21 0.41260385E-01 0.45717665E+03</pdfrwt>
<totfact> 0.66517913E+04</totfact>
</mgrwt>
</event>
<event>
 7    0  0.4766352E-002  0.4573216E+03  0.7546771E-02  0.1025561E+00
         21   -1    0    0  502  501  0.00000000000E+00  0.00000000000E+00  0.38248176933E+03  0.38248176933E+03  0.00000000000E+00 0.  1.
         21   -1    0    0  501  502 -0.00000000000E+00 -0.00000000000E+00 -0.13670133042E+03  0.13670133042E+03  0.00000000000E+00 0.  1.
      99926    2    1    2    0    0  0.00000000000E+00  0.35527136788E-14  0.24578043891E+03  0.51918309975E+03  0.45732162306E+03 0.  0.
      99925    2    3    3    0    0 -0.11209458855E+03 -0.24353167214E+02  0.14137524178E+03  0.31991888615E+03  0.26306436701E+03 0.  0.
         25    1    4    4    0    0 -0.24902524421E+02 -0.16167170514E+00  0.93952265625E+02  0.15841306189E+03  0.12509000000E+03 0.  0.
         25    1    4    4    0    0 -0.87192064131E+02 -0.24191495509E+02  0.47422976157E+02  0.16150582426E+03  0.12509000000E+03 0.  0.
         25    1    3    3    0    0  0.11209458855E+03  0.24353167214E+02  0.10440519713E+03  0.19926421361E+03  0.12509000000E+03 0.  0.
<mgrwt>
<rscale>  2 0.45732162E+03</rscale>
<asrwt>0</asrwt>
<pdfrwt beam="1">  1       21 0.56247319E-01 0.45732162E+03</pdfrwt>
<pdfrwt beam="2">  1       21 0.20103137E-01 0.45732162E+03</pdfrwt>
<totfact> 0.62778551E+04</totfact>
</mgrwt>
</event>
<event>
 7    0  0.4766352E-002  0.4475218E+03  0.7546771E-02  0.1028464E+00
         21   -1    0    0  502  501  0.00000000000E+00  0.00000000000E+00  0.32660659817E+02  0.32660659817E+02  0.00000000000E+00 0.  1.
         21   -1    0    0  501  502 -0.00000000000E+00 -0.00000000000E+00 -0.15330043294E+04  0.15330043294E+04  0.00000000000E+00 0.  1.
      99926    2    1    2    0    0  0.17763568394E-14  0.00000000000E+00 -0.15003436696E+04  0.15656649892E+04  0.44752176662E+03 0.  0.
      99925    2    3    3    0    0 -0.15994075323E+02  0.42292840170E+02 -0.12860932168E+04  0.13134839840E+04  0.26298273542E+03 0.  0.
         25    1    3    3    0    0  0.15994075323E+02 -0.42292840170E+02 -0.21425045274E+03  0.25218100519E+03  0.12509000000E+03 0.  0.
         25    1    4    4    0    0  0.86963459884E+01 -0.82026146698E+00 -0.47366253820E+03  0.48997959902E+03  0.12509000000E+03 0.  0.
         25    1    4    4    0    0 -0.24690421311E+02  0.43113101637E+02 -0.81243067861E+03  0.82350438498E+03  0.12509000000E+03 0.  0.
<mgrwt>
<rscale>  2 0.44752177E+03</rscale>
<asrwt>0</asrwt>
<pdfrwt beam="1">  1       21 0.48030394E-02 0.44752177E+03</pdfrwt>
<pdfrwt beam="2">  1       21 0.22544176E+00 0.44752177E+03</pdfrwt>
<totfact> 0.23553228E+04</totfact>
</mgrwt>
</event>
<event>
 7    0  0.4766352E-002  0.4546942E+03  0.7546771E-02  0.1026331E+00
         21   -1    0    0  502  501  0.00000000000E+00  0.00000000000E+00  0.13755141843E+03  0.13755141843E+03  0.00000000000E+00 0.  1.
         21   -1    0    0  501  502 -0.00000000000E+00 -0.00000000000E+00 -0.37576270618E+03  0.37576270618E+03  0.00000000000E+00 0.  1.
      99926    2    1    2    0    0  0.00000000000E+00  0.00000000000E+00 -0.23821128775E+03  0.51331412460E+03  0.45469415315E+03 0.  0.
      99925    2    3    3    0    0 -0.87027956636E+02  0.51838901102E+02 -0.93444358806E+02  0.29682830817E+03  0.26289552950E+03 0.  0.
         25    1    4    4    0    0 -0.26727552762E+02 -0.47538931506E+01 -0.18975456801E+02  0.12940068639E+03  0.12509000000E+03 0.  0.
         25    1    4    4    0    0 -0.60300403874E+02  0.56592794253E+02 -0.74468902005E+02  0.16742762178E+03  0.12509000000E+03 0.  0.
         25    1    3    3    0    0  0.87027956636E+02 -0.51838901102E+02 -0.14476692894E+03  0.21648581644E+03  0.12509000000E+03 0.  0.
<mgrwt>
<rscale>  2 0.45469415E+03</rscale>
<asrwt>0</asrwt>
<pdfrwt beam="1">  1       21 0.20228150E-01 0.45469415E+03</pdfrwt>
<pdfrwt beam="2">  1       21 0.55259221E-01 0.45469415E+03</pdfrwt>
<totfact> 0.64501471E+04</totfact>
</mgrwt>
</event>
<event>
 7    0  0.4766352E-002  0.4619318E+03  0.7546771E-02  0.1024222E+00
         21   -1    0    0  502  501  0.00000000000E+00  0.00000000000E+00  0.86292636794E+02  0.86292636794E+02  0.00000000000E+00 0.  1.
         21   -1    0    0  501  502 -0.00000000000E+00 -0.00000000000E+00 -0.61819015042E+03  0.61819015042E+03  0.00000000000E+00 0.  1.
      99926    2    1    2    0    0  0.00000000000E+00  0.00000000000E+00 -0.53189751363E+03  0.70448278721E+03  0.46193184831E+03 0.  0.
      99925    2    3    3    0    0  0.87948794423E+02 -0.27027719945E+02 -0.21623316492E+03  0.35269168837E+03  0.26300029913E+03 0.  0.
         25    1    4    4    0    0  0.84751875094E+02 -0.39478627247E+01 -0.11010123082E+03  0.18699800823E+03  0.12509000000E+03 0.  0.
         25    1    4    4    0    0  0.31969193285E+01 -0.23079857220E+02 -0.10613193410E+03  0.16569368014E+03  0.12509000000E+03 0.  0.
         25    1    3    3    0    0 -0.87948794423E+02  0.27027719945E+02 -0.31566434870E+03  0.35179109885E+03  0.12509000000E+03 0.  0.
<mgrwt>
<rscale>  2 0.46193185E+03</rscale>
<asrwt>0</asrwt>
<pdfrwt beam="1">  1       21 0.12690094E-01 0.46193185E+03</pdfrwt>
<pdfrwt beam="2">  1       21 0.90910315E-01 0.46193185E+03</pdfrwt>
<totfact> 0.49883081E+04</totfact>
</mgrwt>
</event>
<event>
 7    0  0.4766352E-002  0.4558188E+03  0.7546771E-02  0.1026001E+00
         21   -1    0    0  502  501  0.00000000000E+00  0.00000000000E+00  0.30103959547E+03  0.30103959547E+03  0.00000000000E+00 0. -1.
         21   -1    0    0  501  502 -0.00000000000E+00 -0.00000000000E+00 -0.17254440058E+03  0.17254440058E+03  0.00000000000E+00 0. -1.
      99926    2    1    2    0    0  0.00000000000E+00  0.00000000000E+00  0.12849519490E+03  0.47358399605E+03  0.45581880852E+03 0.  0.
      99925    2    3    3    0    0  0.75085659046E+02 -0.65392319008E+02  0.13838927959E+03  0.31339843930E+03  0.26296953715E+03 0.  0.
         25    1    4    4    0    0  0.56103066992E+02 -0.35310169060E+01  0.91912207195E+02  0.16509204747E+03  0.12509000000E+03 0.  0.
         25    1    3    3    0    0 -0.75085659046E+02  0.65392319008E+02 -0.98940846955E+01  0.16018555675E+03  0.12509000000E+03 0.  0.
         25    1    4    4    0    0  0.18982592054E+02 -0.61861302102E+02  0.46477072398E+02  0.14830639183E+03  0.12509000000E+03 0.  0.
<mgrwt>
<rscale>  2 0.45581881E+03</rscale>
<asrwt>0</asrwt>
<pdfrwt beam="1">  1       21 0.44270529E-01 0.45581881E+03</pdfrwt>
<pdfrwt beam="2">  1       21 0.25374177E-01 0.45581881E+03</pdfrwt>
<totfact> 0.66735571E+04</totfact>
</mgrwt>
</event>
<event>
 7    0  0.4766352E-002  0.4572879E+03  0.7546771E-02  0.1025571E+00
         21   -1    0    0  502  501  0.00000000000E+00  0.00000000000E+00  0.31507865710E+03  0.31507865710E+03  0.00000000000E+00 0.  1.
         21   -1    0    0  501  502 -0.00000000000E+00 -0.00000000000E+00 -0.16592063262E+03  0.16592063262E+03  0.00000000000E+00 0.  1.
      99926    2    1    2    0    0  0.00000000000E+00  0.00000000000E+00  0.14915802448E+03  0.48099928972E+03  0.45728787481E+03 0.  0.
      99925    2    3    3    0    0 -0.71481669789E+02 -0.43264080673E+02  0.17706758273E+03  0.32800301090E+03  0.26315705674E+03 0.  0.
         25    1    4    4    0    0 -0.75874399407E+01 -0.26540175589E+02  0.48888088700E+02  0.13711128138E+03  0.12509000000E+03 0.  0.
         25    1    4    4    0    0 -0.63894229848E+02 -0.16723905083E+02  0.12817949403E+03  0.19089172952E+03  0.12509000000E+03 0.  0.
         25    1    3    3    0    0  0.71481669789E+02  0.43264080673E+02 -0.27909558248E+02  0.15299627882E+03  0.12509000000E+03 0.  0.
<mgrwt>
<rscale>  2 0.45728787E+03</rscale>
<asrwt>0</asrwt>
<pdfrwt beam="1">  1       21 0.46335097E-01 0.45728787E+03</pdfrwt>
<pdfrwt beam="2">  1       21 0.24400093E-01 0.45728787E+03</pdfrwt>
<totfact> 0.65431122E+04</totfact>
</mgrwt>
</event>
<event>
 7    0  0.4766352E-002  0.4553013E+03  0.7546771E-02  0.1026153E+00
         21   -1    0    0  502  501  0.00000000000E+00  0.00000000000E+00  0.77835470635E+02  0.77835470635E+02  0.00000000000E+00 0.  1.
         21   -1    0    0  501  502 -0.00000000000E+00 -0.00000000000E+00 -0.66582517201E+03  0.66582517201E+03  0.00000000000E+00 0.  1.
      99926    2    1    2    0    0 -0.35527136788E-14  0.00000000000E+00 -0.58798970138E+03  0.74366064264E+03  0.45530128761E+03 0.  0.
      99925    2    3    3    0    0 -0.26687412479E+02  0.32861433998E+02 -0.54186437099E+03  0.60377802746E+03  0.26294261362E+03 0.  0.
         25    1    4    4    0    0 -0.21024943604E+02  0.55185709154E+02 -0.25876959177E+03  0.29342242667E+03  0.12509000000E+03 0.  0.
         25    1    3    3    0    0  0.26687412479E+02 -0.32861433998E+02 -0.46125330380E+02  0.13988261519E+03  0.12509000000E+03 0.  0.
         25    1    4    4    0    0 -0.56624688748E+01 -0.22324275157E+02 -0.28309477922E+03  0.31035560078E+03  0.12509000000E+03 0.  0.
<mgrwt>
<rscale>  2 0.45530129E+03</rscale>
<asrwt>0</asrwt>
<pdfrwt beam="1">  1       21 0.11446393E-01 0.45530129E+03</pdfrwt>
<pdfrwt beam="2">  1       21 0.97915467E-01 0.45530129E+03</pdfrwt>
<totfact> 0.50476086E+04</totfact>
</mgrwt>
</event>
<event>
 7    0  0.4766352E-002  0.4522027E+03  0.7546771E-02  0.1027067E+00
         21   -1    0    0  502  501  0.00000000000E+00  0.00000000000E+00  0.22080014620E+02  0.22080014620E+02  0.00000000000E+00 0.  1.
         21   -1    0    0  501  502 -0.00000000000E+00 -0.00000000000E+00 -0.23152982206E+04  0.23152982206E+04  0.00000000000E+00 0.  1.
      99926    2    1    2    0    0  0.00000000000E+00  0.00000000000E+00 -0.22932182060E+04  0.23373782352E+04  0.45220269155E+03 0.  0.
      99925    2    3    3    0    0  0.80430294992E+02  0.51816013640E+02 -0.11606217601E+04  0.11938852755E+04  0.26299286949E+03 0.  0.
         25    1    4    4    0    0  0.13277166197E+02  0.36825815068E+02 -0.43355836989E+03  0.45293795601E+03  0.12509000000E+03 0.  0.
         25    1    3    3    0    0 -0.80430294992E+02 -0.51816013640E+02 -0.11325964459E+04  0.11434929598E+04  0.12509000000E+03 0.  0.
         25    1    4    4    0    0  0.67153128795E+02  0.14990198572E+02 -0.72706339018E+03  0.74094731945E+03  0.12509000000E+03 0.  0.
<mgrwt>
<rscale>  2 0.45220269E+03</rscale>
<asrwt>0</asrwt>
<pdfrwt beam="1">  1       21 0.32470626E-02 0.45220269E+03</pdfrwt>
<pdfrwt beam="2">  1       21 0.34048487E+00 0.45220269E+03</pdfrwt>
<totfact> 0.91393196E+03</totfact>
</mgrwt>
</event>
<event>
 7    0  0.4766352E-002  0.4508158E+03  0.7546771E-02  0.1027479E+00
         21   -1    0    0  502  501  0.00000000000E+00  0.00000000000E+00  0.46338466470E+03  0.46338466470E+03  0.00000000000E+00 0.  1.
         21   -1    0    0  501  502 -0.00000000000E+00 -0.00000000000E+00 -0.10964697196E+03  0.10964697196E+03  0.00000000000E+00 0.  1.
      99926    2    1    2    0    0  0.00000000000E+00  0.00000000000E+00  0.35373769274E+03  0.57303163666E+03  0.45081581755E+03 0.  0.
      99925    2    3    3    0    0 -0.62144298549E+02 -0.46938142099E+02  0.32067175811E+03  0.42201519001E+03  0.26306147785E+03 0.  0.
         25    1    3    3    0    0  0.62144298549E+02  0.46938142099E+02  0.33065934629E+02  0.15101644665E+03  0.12509000000E+03 0.  0.
         25    1    4    4    0    0  0.62366343713E+01 -0.30783445825E+02  0.12715436867E+03  0.18111393574E+03  0.12509000000E+03 0.  0.
         25    1    4    4    0    0 -0.68380932920E+02 -0.16154696274E+02  0.19351738943E+03  0.24090125428E+03  0.12509000000E+03 0.  0.
<mgrwt>
<rscale>  2 0.45081582E+03</rscale>
<asrwt>0</asrwt>
<pdfrwt beam="1">  1       21 0.68144803E-01 0.45081582E+03</pdfrwt>
<pdfrwt beam="2">  1       21 0.16124555E-01 0.45081582E+03</pdfrwt>
<totfact> 0.62409025E+04</totfact>
</mgrwt>
</event>
<event>
 7    0  0.4766352E-002  0.4550276E+03  0.7546771E-02  0.1026233E+00
         21   -1    0    0  502  501  0.00000000000E+00  0.00000000000E+00  0.62640425834E+02  0.62640425834E+02  0.00000000000E+00 0. -1.
         21   -1    0    0  501  502 -0.00000000000E+00 -0.00000000000E+00 -0.82634391587E+03  0.82634391587E+03  0.00000000000E+00 0. -1.
      99926    2    1    2    0    0  0.14210854715E-13  0.00000000000E+00 -0.76370349004E+03  0.88898434171E+03  0.45502762455E+03 0.  0.
      99925    2    3    3    0    0  0.10478616678E+03 -0.36608193727E+02 -0.52401755055E+03  0.59672220203E+03  0.26298800833E+03 0.  0.
         25    1    4    4    0    0  0.15684209485E+02 -0.12763275219E+02 -0.28110141825E+03  0.30834138721E+03  0.12509000000E+03 0.  0.
         25    1    3    3    0    0 -0.10478616678E+03  0.36608193727E+02 -0.23968593949E+03  0.29226213967E+03  0.12509000000E+03 0.  0.
         25    1    4    4    0    0  0.89101957292E+02 -0.23844918508E+02 -0.24291613229E+03  0.28838081483E+03  0.12509000000E+03 0.  0.
<mgrwt>
<rscale>  2 0.45502762E+03</rscale>
<asrwt>0</asrwt>
<pdfrwt beam="1">  1       21 0.92118274E-02 0.45502762E+03</pdfrwt>
<pdfrwt beam="2">  1       21 0.12152116E+00 0.45502762E+03</pdfrwt>
<totfact> 0.43703944E+04</totfact>
</mgrwt>
</event>
<event>
 7    0  0.4766352E-002  0.4610555E+03  0.7546771E-02  0.1024476E+00
         21   -1    0    0  502  501  0.00000000000E+00  0.00000000000E+00  0.73129068949E+02  0.73129068949E+02  0.00000000000E+00 0. -1.
         21   -1    0    0  501  502 -0.00000000000E+00 -0.00000000000E+00 -0.72670219534E+03  0.72670219534E+03  0.00000000000E+00 0. -1.
      99926    2    1    2    0    0  0.00000000000E+00 -0.14210854715E-13 -0.65357312639E+03  0.79983126429E+03  0.46105554958E+03 0.  0.
      99925    2    3    3    0    0  0.32395875917E+01  0.94720807675E+02 -0.28490949017E+03  0.39915320012E+03  0.26299683124E+03 0.  0.
         25    1    3    3    0    0 -0.32395875917E+01 -0.94720807675E+02 -0.36866363623E+03  0.40067806417E+03  0.12509000000E+03 0.  0.
         25    1    4    4    0    0  0.11501976184E+02  0.95285951024E+01 -0.15326309825E+03  0.19839398924E+03  0.12509000000E+03 0.  0.
         25    1    4    4    0    0 -0.82623885927E+01  0.85192212573E+02 -0.13164639192E+03  0.20075921088E+03  0.12509000000E+03 0.  0.
<mgrwt>
<rscale>  2 0.46105555E+03</rscale>
<asrwt>0</asrwt>
<pdfrwt beam="1">  1       21 0.10754275E-01 0.46105555E+03</pdfrwt>
<pdfrwt beam="2">  1       21 0.10686797E+00 0.46105555E+03</pdfrwt>
<totfact> 0.45568535E+04</totfact>
</mgrwt>
</event>
<event>
 7    0  0.4766352E-002  0.4431573E+03  0.7546771E-02  0.1029782E+00
         21   -1    0    0  502  501  0.00000000000E+00  0.00000000000E+00  0.89065530473E+03  0.89065530473E+03  0.00000000000E+00 0. -1.
         21   -1    0    0  501  502 -0.00000000000E+00 -0.00000000000E+00 -0.55124697636E+02  0.55124697636E+02  0.00000000000E+00 0. -1.
      99926    2    1    2    0    0  0.00000000000E+00 -0.35527136788E-14  0.83553060710E+03  0.94578000237E+03  0.44315732814E+03 0.  0.
      99925    2    3    3    0    0 -0.11586402181E+02  0.83641732472E+01  0.31690115010E+03  0.41208699523E+03  0.26303069895E+03 0.  0.
         25    1    4    4    0    0 -0.78644739802E+01 -0.36346711828E+02  0.15415502577E+03  0.20197577449E+03  0.12509000000E+03 0.  0.
         25    1    4    4    0    0 -0.37219282008E+01  0.44710885075E+02  0.16274612433E+03  0.21011122073E+03  0.12509000000E+03 0.  0.
         25    1    3    3    0    0  0.11586402181E+02 -0.83641732472E+01  0.51862945700E+03  0.53369300714E+03  0.12509000000E+03 0.  0.
<mgrwt>
<rscale>  2 0.44315733E+03</rscale>
<asrwt>0</asrwt>
<pdfrwt beam="1">  1       21 0.13097871E+00 0.44315733E+03</pdfrwt>
<pdfrwt beam="2">  1       21 0.81065737E-02 0.44315733E+03</pdfrwt>
<totfact> 0.45370425E+04</totfact>
</mgrwt>
</event>
<event>
 7    0  0.4766352E-002  0.4472822E+03  0.7546771E-02  0.1028536E+00
         21   -1    0    0  502  501  0.00000000000E+00  0.00000000000E+00  0.29201378680E+03  0.29201378680E+03  0.00000000000E+00 0. -1.
         21   -1    0    0  501  502 -0.00000000000E+00 -0.00000000000E+00 -0.17127735488E+03  0.17127735488E+03  0.00000000000E+00 0. -1.
      99926    2    1    2    0    0  0.00000000000E+00 -0.14210854715E-13  0.12073643192E+03  0.46329114168E+03  0.44728223301E+03 0.  0.
      99925    2    3    3    0    0 -0.74310294896E+01 -0.77079492046E+02  0.15105455886E+03  0.31308073853E+03  0.26306957405E+03 0.  0.
         25    1    4    4    0    0 -0.11306464475E+02 -0.48904602718E+01  0.97195672988E+02  0.15889071618E+03  0.12509000000E+03 0.  0.
         25    1    4    4    0    0  0.38754349858E+01 -0.72189031774E+02  0.53858885869E+02  0.15419002235E+03  0.12509000000E+03 0.  0.
         25    1    3    3    0    0  0.74310294896E+01  0.77079492046E+02 -0.30318126936E+02  0.15021040315E+03  0.12509000000E+03 0.  0.
<mgrwt>
<rscale>  2 0.44728223E+03</rscale>
<asrwt>0</asrwt>
<pdfrwt beam="1">  1       21 0.42943204E-01 0.44728223E+03</pdfrwt>
<pdfrwt beam="2">  1       21 0.25187846E-01 0.44728223E+03</pdfrwt>
<totfact> 0.72261773E+04</totfact>
</mgrwt>
</event>
<event>
 7    0  0.4766352E-002  0.4484755E+03  0.7546771E-02  0.1028178E+00
         21   -1    0    0  502  501  0.00000000000E+00  0.00000000000E+00  0.18923269195E+04  0.18923269195E+04  0.00000000000E+00 0. -1.
         21   -1    0    0  501  502 -0.00000000000E+00 -0.00000000000E+00 -0.26571818136E+02  0.26571818136E+02  0.00000000000E+00 0. -1.
      99926    2    1    2    0    0  0.00000000000E+00  0.17763568394E-14  0.18657551014E+04  0.19188987376E+04  0.44847549212E+03 0.  0.
      99925    2    3    3    0    0 -0.74675032422E+02 -0.12857146743E+02  0.85841128158E+03  0.90099366050E+03  0.26301707404E+03 0.  0.
         25    1    3    3    0    0  0.74675032422E+02  0.12857146743E+02  0.10073438198E+04  0.10179050771E+04  0.12509000000E+03 0.  0.
         25    1    4    4    0    0 -0.71720459321E+02 -0.15539528798E+02  0.38799882088E+03  0.41421720672E+03  0.12509000000E+03 0.  0.
         25    1    4    4    0    0 -0.29545731004E+01  0.26823820553E+01  0.47041246070E+03  0.48677645378E+03  0.12509000000E+03 0.  0.
<mgrwt>
<rscale>  2 0.44847549E+03</rscale>
<asrwt>0</asrwt>
<pdfrwt beam="1">  1       21 0.27828328E+00 0.44847549E+03</pdfrwt>
<pdfrwt beam="2">  1       21 0.39076216E-02 0.44847549E+03</pdfrwt>
<totfact> 0.15867799E+04</totfact>
</mgrwt>
</event>
<event>
 7    0  0.4766352E-002  0.4483964E+03  0.7546771E-02  0.1028201E+00
         21   -1    0    0  502  501  0.00000000000E+00  0.00000000000E+00  0.68089358209E+02  0.68089358209E+02  0.00000000000E+00 0. -1.
         21   -1    0    0  501  502 -0.00000000000E+00 -0.00000000000E+00 -0.73821852586E+03  0.73821852586E+03  0.00000000000E+00 0. -1.
      99926    2    1    2    0    0 -0.35527136788E-14  0.00000000000E+00 -0.67012916765E+03  0.80630788407E+03  0.44839636771E+03 0.  0.
      99925    2    3    3    0    0  0.93775846137E+01 -0.92577024936E+02 -0.33106558302E+03  0.43311883390E+03  0.26330411957E+03 0.  0.
         25    1    4    4    0    0  0.36805176692E+02 -0.73187166181E+02 -0.16893486430E+03  0.22560469588E+03  0.12509000000E+03 0.  0.
         25    1    3    3    0    0 -0.93775846137E+01  0.92577024936E+02 -0.33906358463E+03  0.37318905017E+03  0.12509000000E+03 0.  0.
         25    1    4    4    0    0 -0.27427592079E+02 -0.19389858755E+02 -0.16213071871E+03  0.20751413803E+03  0.12509000000E+03 0.  0.
<mgrwt>
<rscale>  2 0.44839637E+03</rscale>
<asrwt>0</asrwt>
<pdfrwt beam="1">  1       21 0.10013142E-01 0.44839637E+03</pdfrwt>
<pdfrwt beam="2">  1       21 0.10856154E+00 0.44839637E+03</pdfrwt>
<totfact> 0.50002516E+04</totfact>
</mgrwt>
</event>
<event>
 7    0  0.4766352E-002  0.4503199E+03  0.7546771E-02  0.1027627E+00
         21   -1    0    0  502  501  0.00000000000E+00  0.00000000000E+00  0.12188558214E+03  0.12188558214E+03  0.00000000000E+00 0.  1.
         21   -1    0    0  501  502 -0.00000000000E+00 -0.00000000000E+00 -0.41593928371E+03  0.41593928371E+03  0.00000000000E+00 0.  1.
      99926    2    1    2    0    0 -0.14210854715E-13  0.71054273576E-14 -0.29405370156E+03  0.53782486585E+03  0.45031989399E+03 0.  0.
      99925    2    3    3    0    0 -0.80801879430E+02  0.47666367326E+02 -0.25163993327E+03  0.37581418060E+03  0.26289278429E+03 0.  0.
         25    1    3    3    0    0  0.80801879430E+02 -0.47666367326E+02 -0.42413768293E+02  0.16201068525E+03  0.12509000000E+03 0.  0.
         25    1    4    4    0    0 -0.72062880980E+02  0.41925125674E+02 -0.10827427385E+03  0.18526090105E+03  0.12509000000E+03 0.  0.
         25    1    4    4    0    0 -0.87389984501E+01  0.57412416520E+01 -0.14336565942E+03  0.19055327956E+03  0.12509000000E+03 0.  0.
<mgrwt>
<rscale>  2 0.45031989E+03</rscale>
<asrwt>0</asrwt>
<pdfrwt beam="1">  1       21 0.17924350E-01 0.45031989E+03</pdfrwt>
<pdfrwt beam="2">  1       21 0.61167543E-01 0.45031989E+03</pdfrwt>
<totfact> 0.65054622E+04</totfact>
</mgrwt>
</event>
<event>
 7    0  0.4766352E-002  0.4250502E+03  0.7546771E-02  0.1035435E+00
         21   -1    0    0  502  501  0.00000000000E+00  0.00000000000E+00  0.85437166890E+03  0.85437166890E+03  0.00000000000E+00 0.  1.
         21   -1    0    0  501  502 -0.00000000000E+00 -0.00000000000E+00 -0.52865658007E+02  0.52865658007E+02  0.00000000000E+00 0.  1.
      99926    2    1    2    0    0  0.00000000000E+00 -0.14210854715E-13  0.80150601089E+03  0.90723732691E+03  0.42505021096E+03 0.  0.
      99925    2    3    3    0    0  0.23868318150E+02  0.69345789918E+02  0.44290350402E+03  0.52042755295E+03  0.26325422847E+03 0.  0.
         25    1    4    4    0    0  0.31771874569E+00  0.64031619704E+02  0.28307810501E+03  0.31603935025E+03  0.12509000000E+03 0.  0.
         25    1    3    3    0    0 -0.23868318150E+02 -0.69345789918E+02  0.35860250688E+03  0.38680977396E+03  0.12509000000E+03 0.  0.
         25    1    4    4    0    0  0.23550599404E+02  0.53141702145E+01  0.15982539900E+03  0.20438820270E+03  0.12509000000E+03 0.  0.
<mgrwt>
<rscale>  2 0.42505021E+03</rscale>
<asrwt>0</asrwt>
<pdfrwt beam="1">  1       21 0.12564288E+00 0.42505021E+03</pdfrwt>
<pdfrwt beam="2">  1       21 0.77743620E-02 0.42505021E+03</pdfrwt>
<totfact> 0.54646941E+04</totfact>
</mgrwt>
</event>
<event>
 7    0  0.4766352E-002  0.4527192E+03  0.7546771E-02  0.1026914E+00
         21   -1    0    0  502  501  0.00000000000E+00  0.00000000000E+00  0.52206059312E+02  0.52206059312E+02  0.00000000000E+00 0.  1.
         21   -1    0    0  501  502 -0.00000000000E+00 -0.00000000000E+00 -0.98146997253E+03  0.98146997253E+03  0.00000000000E+00 0.  1.
      99926    2    1    2    0    0  0.14210854715E-13  0.00000000000E+00 -0.92926391322E+03  0.10336760318E+04  0.45271924898E+03 0.  0.
      99925    2    3    3    0    0 -0.87040342712E+02  0.63029651650E+02 -0.64841154170E+03  0.70798550245E+03  0.26316760064E+03 0.  0.
         25    1    4    4    0    0 -0.75568163593E+02  0.41509743170E+02 -0.41680645035E+03  0.44363130106E+03  0.12509000000E+03 0.  0.
         25    1    4    4    0    0 -0.11472179120E+02  0.21519908480E+02 -0.23160509135E+03  0.26435420139E+03  0.12509000000E+03 0.  0.
         25    1    3    3    0    0  0.87040342712E+02 -0.63029651650E+02 -0.28085237152E+03  0.32569052939E+03  0.12509000000E+03 0.  0.
<mgrwt>
<rscale>  2 0.45271925E+03</rscale>
<asrwt>0</asrwt>
<pdfrwt beam="1">  1       21 0.76773615E-02 0.45271925E+03</pdfrwt>
<pdfrwt beam="2">  1       21 0.14433382E+00 0.45271925E+03</pdfrwt>
<totfact> 0.38564200E+04</totfact>
</mgrwt>
</event>
<event>
 7    0  0.4766352E-002  0.4549611E+03  0.7546771E-02  0.1026253E+00
         21   -1    0    0  502  501  0.00000000000E+00  0.00000000000E+00  0.29391793005E+03  0.29391793005E+03  0.00000000000E+00 0. -1.
         21   -1    0    0  501  502 -0.00000000000E+00 -0.00000000000E+00 -0.17606068182E+03  0.17606068182E+03  0.00000000000E+00 0. -1.
      99926    2    1    2    0    0  0.00000000000E+00  0.00000000000E+00  0.11785724823E+03  0.46997861187E+03  0.45496105839E+03 0.  0.
      99925    2    3    3    0    0 -0.48330662166E+02 -0.90599372084E+02  0.24923328832E+02  0.28335513906E+03  0.26291607670E+03 0.  0.
         25    1    3    3    0    0  0.48330662166E+02  0.90599372084E+02  0.92933919395E+02  0.18662347280E+03  0.12509000000E+03 0.  0.
         25    1    4    4    0    0 -0.71497227100E+01 -0.72754721352E+02 -0.12118661166E+02  0.14539167123E+03  0.12509000000E+03 0.  0.
         25    1    4    4    0    0 -0.41180939456E+02 -0.17844650732E+02  0.37041989998E+02  0.13796346784E+03  0.12509000000E+03 0.  0.
<mgrwt>
<rscale>  2 0.45496106E+03</rscale>
<asrwt>0</asrwt>
<pdfrwt beam="1">  1       21 0.43223225E-01 0.45496106E+03</pdfrwt>
<pdfrwt beam="2">  1       21 0.25891277E-01 0.45496106E+03</pdfrwt>
<totfact> 0.67458142E+04</totfact>
</mgrwt>
</event>
<event>
 7    0  0.4766352E-002  0.3985829E+03  0.7546771E-02  0.1044271E+00
         21   -1    0    0  502  501  0.00000000000E+00  0.00000000000E+00  0.63859345565E+03  0.63859345565E+03  0.00000000000E+00 0. -1.
         21   -1    0    0  501  502 -0.00000000000E+00 -0.00000000000E+00 -0.62194626108E+02  0.62194626108E+02  0.00000000000E+00 0. -1.
      99926    2    1    2    0    0  0.44408920985E-15  0.00000000000E+00  0.57639882955E+03  0.70078808176E+03  0.39858289582E+03 0.  0.
      99925    2    3    3    0    0  0.28728325281E+01 -0.33722763411E+02  0.43132941878E+03  0.50626785150E+03  0.26290034619E+03 0.  0.
         25    1    4    4    0    0 -0.21454640625E+02 -0.60331597610E+01  0.15283252025E+03  0.19875107036E+03  0.12509000000E+03 0.  0.
         25    1    3    3    0    0 -0.28728325281E+01  0.33722763411E+02  0.14506941077E+03  0.19452023026E+03  0.12509000000E+03 0.  0.
         25    1    4    4    0    0  0.24327473154E+02 -0.27689603650E+02  0.27849689852E+03  0.30751678115E+03  0.12509000000E+03 0.  0.
<mgrwt>
<rscale>  2 0.39858290E+03</rscale>
<asrwt>0</asrwt>
<pdfrwt beam="1">  1       21 0.93910799E-01 0.39858290E+03</pdfrwt>
<pdfrwt beam="2">  1       21 0.91462689E-02 0.39858290E+03</pdfrwt>
<totfact> 0.84632693E+04</totfact>
</mgrwt>
</event>
<event>
 7    0  0.4766352E-002  0.4550756E+03  0.7546771E-02  0.1026219E+00
         21   -1    0    0  502  501  0.00000000000E+00  0.00000000000E+00  0.80266140460E+02  0.80266140460E+02  0.00000000000E+00 0.  1.
         21   -1    0    0  501  502 -0.00000000000E+00 -0.00000000000E+00 -0.64502226899E+03  0.64502226899E+03  0.00000000000E+00 0.  1.
      99926    2    1    2    0    0  0.14210854715E-13  0.00000000000E+00 -0.56475612853E+03  0.72528840944E+03  0.45507558951E+03 0.  0.
      99925    2    3    3    0    0  0.96446689338E+02  0.73283068600E+01 -0.44920601151E+03  0.52944406920E+03  0.26300059632E+03 0.  0.
         25    1    3    3    0    0 -0.96446689338E+02 -0.73283068600E+01 -0.11555011701E+03  0.19584434025E+03  0.12509000000E+03 0.  0.
         25    1    4    4    0    0  0.38017897594E+02 -0.55170731785E+01 -0.14613684138E+03  0.19616137016E+03  0.12509000000E+03 0.  0.
         25    1    4    4    0    0  0.58428791744E+02  0.12845380039E+02 -0.30306917013E+03  0.33328269904E+03  0.12509000000E+03 0.  0.
<mgrwt>
<rscale>  2 0.45507559E+03</rscale>
<asrwt>0</asrwt>
<pdfrwt beam="1">  1       21 0.11803844E-01 0.45507559E+03</pdfrwt>
<pdfrwt beam="2">  1       21 0.94856218E-01 0.45507559E+03</pdfrwt>
<totfact> 0.51520782E+04</totfact>
</mgrwt>
</event>
<event>
 7    0  0.4766352E-002  0.4513330E+03  0.7546771E-02  0.1027325E+00
         21   -1    0    0  502  501  0.00000000000E+00  0.00000000000E+00  0.31237366017E+03  0.31237366017E+03  0.00000000000E+00 0.  1.
         21   -1    0    0  501  502 -0.00000000000E+00 -0.00000000000E+00 -0.16302705908E+03  0.16302705908E+03  0.00000000000E+00 0.  1.
      99926    2    1    2    0    0  0.00000000000E+00  0.00000000000E+00  0.14934660108E+03  0.47540071925E+03  0.45133295538E+03 0.  0.
      99925    2    3    3    0    0 -0.87615351119E+02  0.61164674914E+02  0.12111927114E+03  0.30848200411E+03  0.26281876228E+03 0.  0.
         25    1    4    4    0    0 -0.61187151697E+02  0.15590872559E+02  0.97511773024E+02  0.17071320048E+03  0.12509000000E+03 0.  0.
         25    1    4    4    0    0 -0.26428199422E+02  0.45573802354E+02  0.23607498112E+02  0.13776880363E+03  0.12509000000E+03 0.  0.
         25    1    3    3    0    0  0.87615351119E+02 -0.61164674914E+02  0.28227329946E+02  0.16691871514E+03  0.12509000000E+03 0.  0.
<mgrwt>
<rscale>  2 0.45133296E+03</rscale>
<asrwt>0</asrwt>
<pdfrwt beam="1">  1       21 0.45937303E-01 0.45133296E+03</pdfrwt>
<pdfrwt beam="2">  1       21 0.23974567E-01 0.45133296E+03</pdfrwt>
<totfact> 0.69023559E+04</totfact>
</mgrwt>
</event>
<event>
 7    0  0.4766352E-002  0.4601279E+03  0.7546771E-02  0.1024744E+00
         21   -1    0    0  502  501  0.00000000000E+00  0.00000000000E+00  0.67847866433E+02  0.67847866433E+02  0.00000000000E+00 0. -1.
         21   -1    0    0  501  502 -0.00000000000E+00 -0.00000000000E+00 -0.78011912429E+03  0.78011912429E+03  0.00000000000E+00 0. -1.
      99926    2    1    2    0    0 -0.14210854715E-13  0.00000000000E+00 -0.71227125786E+03  0.84796699072E+03  0.46012788721E+03 0.  0.
      99925    2    3    3    0    0  0.93835061615E+02  0.70928554655E+02 -0.43124393930E+03  0.51863472609E+03  0.26301096036E+03 0.  0.
         25    1    4    4    0    0  0.89878339360E+02  0.36789511839E+02 -0.24056159777E+03  0.28800863614E+03  0.12509000000E+03 0.  0.
         25    1    3    3    0    0 -0.93835061615E+02 -0.70928554655E+02 -0.28102731855E+03  0.32933226463E+03  0.12509000000E+03 0.  0.
         25    1    4    4    0    0  0.39567222551E+01  0.34139042816E+02 -0.19068234153E+03  0.23062608995E+03  0.12509000000E+03 0.  0.
<mgrwt>
<rscale>  2 0.46012789E+03</rscale>
<asrwt>0</asrwt>
<pdfrwt beam="1">  1       21 0.99776274E-02 0.46012789E+03</pdfrwt>
<pdfrwt beam="2">  1       21 0.11472340E+00 0.46012789E+03</pdfrwt>
<totfact> 0.43744021E+04</totfact>
</mgrwt>
</event>
<event>
 7    0  0.4766352E-002  0.4595528E+03  0.7546771E-02  0.1024911E+00
         21   -1    0    0  502  501  0.00000000000E+00  0.00000000000E+00  0.40049506317E+02  0.40049506317E+02  0.00000000000E+00 0. -1.
         21   -1    0    0  501  502 -0.00000000000E+00 -0.00000000000E+00 -0.13182981889E+04  0.13182981889E+04  0.00000000000E+00 0. -1.
      99926    2    1    2    0    0  0.00000000000E+00  0.88817841970E-15 -0.12782486826E+04  0.13583476952E+04  0.45955278976E+03 0.  0.
      99925    2    3    3    0    0 -0.64577130029E+02  0.15033609842E+01 -0.10905417601E+04  0.11237120997E+04  0.26320160861E+03 0.  0.
         25    1    3    3    0    0  0.64577130029E+02 -0.15033609842E+01 -0.18770692251E+03  0.23463559550E+03  0.12509000000E+03 0.  0.
         25    1    4    4    0    0  0.46076579270E+01 -0.12479914219E+02 -0.57017564524E+03  0.58388762043E+03  0.12509000000E+03 0.  0.
         25    1    4    4    0    0 -0.69184787956E+02  0.13983275203E+02 -0.52036611482E+03  0.53982447927E+03  0.12509000000E+03 0.  0.
<mgrwt>
<rscale>  2 0.45955279E+03</rscale>
<asrwt>0</asrwt>
<pdfrwt beam="1">  1       21 0.58896333E-02 0.45955279E+03</pdfrwt>
<pdfrwt beam="2">  1       21 0.19386738E+00 0.45955279E+03</pdfrwt>
<totfact> 0.26512692E+04</totfact>
</mgrwt>
</event>
<event>
 7    0  0.4766352E-002  0.4519413E+03  0.7546771E-02  0.1027145E+00
         21   -1    0    0  502  501  0.00000000000E+00  0.00000000000E+00  0.91356679133E+03  0.91356679133E+03  0.00000000000E+00 0. -1.
         21   -1    0    0  501  502 -0.00000000000E+00 -0.00000000000E+00 -0.55893826156E+02  0.55893826156E+02  0.00000000000E+00 0. -1.
      99926    2    1    2    0    0  0.00000000000E+00  0.00000000000E+00  0.85767296517E+03  0.96946061749E+03  0.45194133874E+03 0.  0.
      99925    2    3    3    0    0 -0.17977830381E+02  0.50775833933E+02  0.33489211531E+03  0.42923037696E+03  0.26302965595E+03 0.  0.
         25    1    4    4    0    0 -0.86539840997E+01  0.72963485853E+01  0.10477987673E+03  0.16356790275E+03  0.12509000000E+03 0.  0.
         25    1    3    3    0    0  0.17977830381E+02 -0.50775833933E+02  0.52278084986E+03  0.54023024053E+03  0.12509000000E+03 0.  0.
         25    1    4    4    0    0 -0.93238462809E+01  0.43479485348E+02  0.23011223858E+03  0.26566247421E+03  0.12509000000E+03 0.  0.
<mgrwt>
<rscale>  2 0.45194134E+03</rscale>
<asrwt>0</asrwt>
<pdfrwt beam="1">  1       21 0.13434805E+00 0.45194134E+03</pdfrwt>
<pdfrwt beam="2">  1       21 0.82196808E-02 0.45194134E+03</pdfrwt>
<totfact> 0.41342476E+04</totfact>
</mgrwt>
</event>
<event>
 7    0  0.4766352E-002  0.4675269E+03  0.7546771E-02  0.1022621E+00
         21   -1    0    0  502  501  0.00000000000E+00  0.00000000000E+00  0.78395548828E+02  0.78395548828E+02  0.00000000000E+00 0.  1.
         21   -1    0    0  501  502 -0.00000000000E+00 -0.00000000000E+00 -0.69704657160E+03  0.69704657160E+03  0.00000000000E+00 0.  1.
      99926    2    1    2    0    0  0.00000000000E+00  0.00000000000E+00 -0.61865102278E+03  0.77544212043E+03  0.46752689137E+03 0.  0.
      99925    2    3    3    0    0 -0.78084411588E+02 -0.97019822597E+02 -0.38451752138E+03  0.48222543284E+03  0.26301639210E+03 0.  0.
         25    1    4    4    0    0 -0.45867930618E+02 -0.90419321276E+01 -0.19895397293E+03  0.23961597410E+03  0.12509000000E+03 0.  0.
         25    1    3    3    0    0  0.78084411588E+02  0.97019822597E+02 -0.23413350139E+03  0.29321668760E+03  0.12509000000E+03 0.  0.
         25    1    4    4    0    0 -0.32216480970E+02 -0.87977890469E+02 -0.18556354845E+03  0.24260945874E+03  0.12509000000E+03 0.  0.
<mgrwt>
<rscale>  2 0.46752689E+03</rscale>
<asrwt>0</asrwt>
<pdfrwt beam="1">  1       21 0.11528757E-01 0.46752689E+03</pdfrwt>
<pdfrwt beam="2">  1       21 0.10250685E+00 0.46752689E+03</pdfrwt>
<totfact> 0.44441842E+04</totfact>
</mgrwt>
</event>
<event>
 7    0  0.4766352E-002  0.4521692E+03  0.7546771E-02  0.1027077E+00
         21   -1    0    0  502  501  0.00000000000E+00  0.00000000000E+00  0.72527223380E+03  0.72527223380E+03  0.00000000000E+00 0. -1.
         21   -1    0    0  501  502 -0.00000000000E+00 -0.00000000000E+00 -0.70475942086E+02  0.70475942086E+02  0.00000000000E+00 0. -1.
      99926    2    1    2    0    0  0.14210854715E-13  0.00000000000E+00  0.65479629172E+03  0.79574817589E+03  0.45216918933E+03 0.  0.
      99925    2    3    3    0    0  0.86497043540E+02 -0.33012676197E+02  0.30699650756E+03  0.41471829085E+03  0.26300728085E+03 0.  0.
         25    1    4    4    0    0  0.50493345788E+02  0.58270878618E+01  0.10385247737E+03  0.17034194457E+03  0.12509000000E+03 0.  0.
         25    1    3    3    0    0 -0.86497043540E+02  0.33012676197E+02  0.34779978416E+03  0.38102988504E+03  0.12509000000E+03 0.  0.
         25    1    4    4    0    0  0.36003697752E+02 -0.38839764058E+02  0.20314403018E+03  0.24437634628E+03  0.12509000000E+03 0.  0.
<mgrwt>
<rscale>  2 0.45216919E+03</rscale>
<asrwt>0</asrwt>
<pdfrwt beam="1">  1       21 0.10665768E+00 0.45216919E+03</pdfrwt>
<pdfrwt beam="2">  1       21 0.10364110E-01 0.45216919E+03</pdfrwt>
<totfact> 0.49051871E+04</totfact>
</mgrwt>
</event>
<event>
 7    0  0.4766352E-002  0.4562800E+03  0.7546771E-02  0.1025866E+00
         21   -1    0    0  502  501  0.00000000000E+00  0.00000000000E+00  0.65376909602E+02  0.65376909602E+02  0.00000000000E+00 0.  1.
         21   -1    0    0  501  502 -0.00000000000E+00 -0.00000000000E+00 -0.79611995964E+03  0.79611995964E+03  0.00000000000E+00 0.  1.
      99926    2    1    2    0    0  0.71054273576E-14  0.00000000000E+00 -0.73074305004E+03  0.86149686924E+03  0.45628001330E+03 0.  0.
      99925    2    3    3    0    0 -0.40531303386E+02  0.61666778871E+02 -0.62435213955E+03  0.68146322765E+03  0.26292766744E+03 0.  0.
         25    1    4    4    0    0 -0.33754003877E+02  0.62931027995E+02 -0.27704732050E+03  0.31225369967E+03  0.12509000000E+03 0.  0.
         25    1    4    4    0    0 -0.67772995088E+01 -0.12642491242E+01 -0.34730481905E+03  0.36920952798E+03  0.12509000000E+03 0.  0.
         25    1    3    3    0    0  0.40531303386E+02 -0.61666778871E+02 -0.10639091049E+03  0.18003364159E+03  0.12509000000E+03 0.  0.
<mgrwt>
<rscale>  2 0.45628001E+03</rscale>
<asrwt>0</asrwt>
<pdfrwt beam="1">  1       21 0.96142523E-02 0.45628001E+03</pdfrwt>
<pdfrwt beam="2">  1       21 0.11707645E+00 0.45628001E+03</pdfrwt>
<totfact> 0.44481082E+04</totfact>
</mgrwt>
</event>
<event>
 7    0  0.4766352E-002  0.4603975E+03  0.7546771E-02  0.1024666E+00
         21   -1    0    0  502  501  0.00000000000E+00  0.00000000000E+00  0.17948821854E+03  0.17948821854E+03  0.00000000000E+00 0.  1.
         21   -1    0    0  501  502 -0.00000000000E+00 -0.00000000000E+00 -0.29523647191E+03  0.29523647191E+03  0.00000000000E+00 0.  1.
      99926    2    1    2    0    0  0.00000000000E+00  0.00000000000E+00 -0.11574825337E+03  0.47472469045E+03  0.46039751690E+03 0.  0.
      99925    2    3    3    0    0 -0.66651215625E+02 -0.89933873592E+02 -0.11124099713E+03  0.30680116732E+03  0.26310057138E+03 0.  0.
         25    1    3    3    0    0  0.66651215625E+02  0.89933873592E+02 -0.45072562443E+01  0.16792352314E+03  0.12509000000E+03 0.  0.
         25    1    4    4    0    0 -0.32198921659E+02 -0.78350667225E+02 -0.32309291860E+02  0.15448946906E+03  0.12509000000E+03 0.  0.
         25    1    4    4    0    0 -0.34452293966E+02 -0.11583206367E+02 -0.78931705267E+02  0.15231169826E+03  0.12509000000E+03 0.  0.
<mgrwt>
<rscale>  2 0.46039752E+03</rscale>
<asrwt>0</asrwt>
<pdfrwt beam="1">  1       21 0.26395326E-01 0.46039752E+03</pdfrwt>
<pdfrwt beam="2">  1       21 0.43417128E-01 0.46039752E+03</pdfrwt>
<totfact> 0.64288674E+04</totfact>
</mgrwt>
</event>
<event>
 7    0  0.4766352E-002  0.4415034E+03  0.7546771E-02  0.1030287E+00
         21   -1    0    0  502  501  0.00000000000E+00  0.00000000000E+00  0.50043868361E+03  0.50043868361E+03  0.00000000000E+00 0.  1.
         21   -1    0    0  501  502 -0.00000000000E+00 -0.00000000000E+00 -0.97377196172E+02  0.97377196172E+02  0.00000000000E+00 0.  1.
      99926    2    1    2    0    0  0.00000000000E+00  0.00000000000E+00  0.40306148744E+03  0.59781587978E+03  0.44150341274E+03 0.  0.
      99925    2    3    3    0    0  0.40874266011E+02 -0.84577752568E+02  0.21053898077E+03  0.34975031279E+03  0.26301048843E+03 0.  0.
         25    1    3    3    0    0 -0.40874266011E+02  0.84577752568E+02  0.19252250666E+03  0.24806556698E+03  0.12509000000E+03 0.  0.
         25    1    4    4    0    0  0.59599290992E+02 -0.36526942892E+02  0.96059768131E+02  0.17251457967E+03  0.12509000000E+03 0.  0.
         25    1    4    4    0    0 -0.18725024981E+02 -0.48050809675E+02  0.11447921264E+03  0.17723573313E+03  0.12509000000E+03 0.  0.
<mgrwt>
<rscale>  2 0.44150341E+03</rscale>
<asrwt>0</asrwt>
<pdfrwt beam="1">  1       21 0.73593923E-01 0.44150341E+03</pdfrwt>
<pdfrwt beam="2">  1       21 0.14320176E-01 0.44150341E+03</pdfrwt>
<totfact> 0.65525996E+04</totfact>
</mgrwt>
</event>
<event>
 7    0  0.4766352E-002  0.4519917E+03  0.7546771E-02  0.1027130E+00
         21   -1    0    0  502  501  0.00000000000E+00  0.00000000000E+00  0.37283786488E+03  0.37283786488E+03  0.00000000000E+00 0. -1.
         21   -1    0    0  501  502 -0.00000000000E+00 -0.00000000000E+00 -0.13698748296E+03  0.13698748296E+03  0.00000000000E+00 0. -1.
      99926    2    1    2    0    0  0.00000000000E+00  0.71054273576E-14  0.23585038192E+03  0.50982534784E+03  0.45199168426E+03 0.  0.
      99925    2    3    3    0    0  0.16590899844E+02  0.39509611894E+02  0.26343551899E+03  0.37475234803E+03  0.26306801839E+03 0.  0.
         25    1    4    4    0    0 -0.11513529630E+02 -0.16438610015E+01  0.87033301722E+02  0.15283182703E+03  0.12509000000E+03 0.  0.
         25    1    3    3    0    0 -0.16590899844E+02 -0.39509611894E+02 -0.27585137065E+02  0.13507299981E+03  0.12509000000E+03 0.  0.
         25    1    4    4    0    0  0.28104429473E+02  0.41153472896E+02  0.17640221726E+03  0.22192052100E+03  0.12509000000E+03 0.  0.
<mgrwt>
<rscale>  2 0.45199168E+03</rscale>
<asrwt>0</asrwt>
<pdfrwt beam="1">  1       21 0.54829097E-01 0.45199168E+03</pdfrwt>
<pdfrwt beam="2">  1       21 0.20145218E-01 0.45199168E+03</pdfrwt>
<totfact> 0.66150990E+04</totfact>
</mgrwt>
</event>
<event>
 7    0  0.4766352E-002  0.4330161E+03  0.7546771E-02  0.1032911E+00
         21   -1    0    0  502  501  0.00000000000E+00  0.00000000000E+00  0.17930272618E+03  0.17930272618E+03  0.00000000000E+00 0. -1.
         21   -1    0    0  501  502 -0.00000000000E+00 -0.00000000000E+00 -0.26143348441E+03  0.26143348441E+03  0.00000000000E+00 0. -1.
      99926    2    1    2    0    0  0.00000000000E+00 -0.14210854715E-13 -0.82130758230E+02  0.44073621059E+03  0.43301610349E+03 0.  0.
      99925    2    3    3    0    0  0.21996442667E+02  0.65673712568E+02 -0.11287171924E+03  0.29448507454E+03  0.26302956889E+03 0.  0.
         25    1    4    4    0    0  0.82985467714E+01 -0.16921094755E+01 -0.28142315874E+02  0.12849602000E+03  0.12509000000E+03 0.  0.
         25    1    4    4    0    0  0.13697895896E+02  0.67365822043E+02 -0.84729403369E+02  0.16598905454E+03  0.12509000000E+03 0.  0.
         25    1    3    3    0    0 -0.21996442667E+02 -0.65673712568E+02  0.30740961014E+02  0.14625113605E+03  0.12509000000E+03 0.  0.
<mgrwt>
<rscale>  2 0.43301610E+03</rscale>
<asrwt>0</asrwt>
<pdfrwt beam="1">  1       21 0.26368048E-01 0.43301610E+03</pdfrwt>
<pdfrwt beam="2">  1       21 0.38446100E-01 0.43301610E+03</pdfrwt>
<totfact> 0.83271862E+04</totfact>
</mgrwt>
</event>
<event>
 7    0  0.4766352E-002  0.4491315E+03  0.7546771E-02  0.1027981E+00
         21   -1    0    0  502  501  0.00000000000E+00  0.00000000000E+00  0.67498792041E+02  0.67498792041E+02  0.00000000000E+00 0. -1.
         21   -1    0    0  501  502 -0.00000000000E+00 -0.00000000000E+00 -0.74712112695E+03  0.74712112695E+03  0.00000000000E+00 0. -1.
      99926    2    1    2    0    0  0.00000000000E+00  0.00000000000E+00 -0.67962233491E+03  0.81461991899E+03  0.44913148889E+03 0.  0.
      99925    2    3    3    0    0 -0.50481058433E+02 -0.39514549493E+02 -0.27303711271E+03  0.38442369877E+03  0.26291173115E+03 0.  0.
         25    1    4    4    0    0 -0.16042034176E+02 -0.19463984105E+02 -0.19069909827E+03  0.22945554628E+03  0.12509000000E+03 0.  0.
         25    1    3    3    0    0  0.50481058433E+02  0.39514549493E+02 -0.40658522219E+03  0.43019622022E+03  0.12509000000E+03 0.  0.
         25    1    4    4    0    0 -0.34439024257E+02 -0.20050565388E+02 -0.82338014439E+02  0.15496815249E+03  0.12509000000E+03 0.  0.
<mgrwt>
<rscale>  2 0.44913149E+03</rscale>
<asrwt>0</asrwt>
<pdfrwt beam="1">  1       21 0.99262928E-02 0.44913149E+03</pdfrwt>
<pdfrwt beam="2">  1       21 0.10987076E+00 0.44913149E+03</pdfrwt>
<totfact> 0.49297009E+04</totfact>
</mgrwt>
</event>
<event>
 7    0  0.4766352E-002  0.4397468E+03  0.7546771E-02  0.1030825E+00
         21   -1    0    0  502  501  0.00000000000E+00  0.00000000000E+00  0.29995936068E+03  0.29995936068E+03  0.00000000000E+00 0.  1.
         21   -1    0    0  501  502 -0.00000000000E+00 -0.00000000000E+00 -0.16116953008E+03  0.16116953008E+03  0.00000000000E+00 0.  1.
      99926    2    1    2    0    0  0.00000000000E+00  0.00000000000E+00  0.13878983060E+03  0.46112889077E+03  0.43974678716E+03 0.  0.
      99925    2    3    3    0    0  0.30121029221E+02  0.74924626520E+02  0.30396551157E+02  0.27696161032E+03  0.26317828027E+03 0.  0.
         25    1    3    3    0    0 -0.30121029221E+02 -0.74924626520E+02  0.10839327944E+03  0.18416728045E+03  0.12509000000E+03 0.  0.
         25    1    4    4    0    0  0.41358375879E+02  0.98014717896E+01 -0.67651598634E+00  0.13211566856E+03  0.12509000000E+03 0.  0.
         25    1    4    4    0    0 -0.11237346658E+02  0.65123154730E+02  0.31073067143E+02  0.14484594176E+03  0.12509000000E+03 0.  0.
<mgrwt>
<rscale>  2 0.43974679E+03</rscale>
<asrwt>0</asrwt>
<pdfrwt beam="1">  1       21 0.44111671E-01 0.43974679E+03</pdfrwt>
<pdfrwt beam="2">  1       21 0.23701401E-01 0.43974679E+03</pdfrwt>
<totfact> 0.77006930E+04</totfact>
</mgrwt>
</event>
<event>
 7    0  0.4766352E-002  0.4596855E+03  0.7546771E-02  0.1024872E+00
         21   -1    0    0  502  501  0.00000000000E+00  0.00000000000E+00  0.37142598972E+03  0.37142598972E+03  0.00000000000E+00 0. -1.
         21   -1    0    0  501  502 -0.00000000000E+00 -0.00000000000E+00 -0.14222940835E+03  0.14222940835E+03  0.00000000000E+00 0. -1.
      99926    2    1    2    0    0  0.00000000000E+00  0.71054273576E-14  0.22919658137E+03  0.51365539807E+03  0.45968553932E+03 0.  0.
      99925    2    3    3    0    0  0.11148739707E+03 -0.37652334878E+02  0.14007863077E+03  0.32016985534E+03  0.26275383050E+03 0.  0.
         25    1    4    4    0    0  0.97803044362E+02 -0.17965401993E+02  0.89265126169E+02  0.18304087523E+03  0.12509000000E+03 0.  0.
         25    1    4    4    0    0  0.13684352710E+02 -0.19686932885E+02  0.50813504598E+02  0.13712898011E+03  0.12509000000E+03 0.  0.
         25    1    3    3    0    0 -0.11148739707E+03  0.37652334878E+02  0.89117950603E+02  0.19348554273E+03  0.12509000000E+03 0.  0.
<mgrwt>
<rscale>  2 0.45968554E+03</rscale>
<asrwt>0</asrwt>
<pdfrwt beam="1">  1       21 0.54621469E-01 0.45968554E+03</pdfrwt>
<pdfrwt beam="2">  1       21 0.20916089E-01 0.45968554E+03</pdfrwt>
<totfact> 0.61984444E+04</totfact>
</mgrwt>
</event>
<event>
 7    0  0.4766352E-002  0.4529843E+03  0.7546771E-02  0.1026836E+00
         21   -1    0    0  502  501  0.00000000000E+00  0.00000000000E+00  0.66458510976E+02  0.66458510976E+02  0.00000000000E+00 0. -1.
         21   -1    0    0  501  502 -0.00000000000E+00 -0.00000000000E+00 -0.77189049191E+03  0.77189049191E+03  0.00000000000E+00 0. -1.
      99926    2    1    2    0    0  0.00000000000E+00  0.00000000000E+00 -0.70543198093E+03  0.83834900289E+03  0.45298429434E+03 0.  0.
      99925    2    3    3    0    0 -0.10788626493E+03 -0.24558964900E+02 -0.42757242824E+03  0.51416382734E+03  0.26325590409E+03 0.  0.
         25    1    4    4    0    0 -0.51989934513E+02 -0.19607689141E+02 -0.14113498235E+03  0.19660622093E+03  0.12509000000E+03 0.  0.
         25    1    4    4    0    0 -0.55896330419E+02 -0.49512757588E+01 -0.28643744589E+03  0.31755760642E+03  0.12509000000E+03 0.  0.
         25    1    3    3    0    0  0.10788626493E+03  0.24558964900E+02 -0.27785955269E+03  0.32418517554E+03  0.12509000000E+03 0.  0.
<mgrwt>
<rscale>  2 0.45298429E+03</rscale>
<asrwt>0</asrwt>
<pdfrwt beam="1">  1       21 0.97733107E-02 0.45298429E+03</pdfrwt>
<pdfrwt beam="2">  1       21 0.11351330E+00 0.45298429E+03</pdfrwt>
<totfact> 0.46699291E+04</totfact>
</mgrwt>
</event>
<event>
 7    0  0.4766352E-002  0.4543281E+03  0.7546771E-02  0.1026439E+00
         21   -1    0    0  502  501  0.00000000000E+00  0.00000000000E+00  0.42084868680E+03  0.42084868680E+03  0.00000000000E+00 0. -1.
         21   -1    0    0  501  502 -0.00000000000E+00 -0.00000000000E+00 -0.12261769478E+03  0.12261769478E+03  0.00000000000E+00 0. -1.
      99926    2    1    2    0    0  0.36082248300E-15  0.35527136788E-14  0.29823099201E+03  0.54346638158E+03  0.45432805692E+03 0.  0.
      99925    2    3    3    0    0 -0.37536952758E-01  0.16905722667E+02  0.32083253410E+03  0.41523166447E+03  0.26305515652E+03 0.  0.
         25    1    4    4    0    0 -0.19683326700E+02 -0.26986844618E+02  0.15165871335E+03  0.19940811560E+03  0.12509000000E+03 0.  0.
         25    1    4    4    0    0  0.19645789747E+02  0.43892567285E+02  0.16917382075E+03  0.21582354887E+03  0.12509000000E+03 0.  0.
         25    1    3    3    0    0  0.37536952758E-01 -0.16905722667E+02 -0.22601542086E+02  0.12823471711E+03  0.12509000000E+03 0.  0.
<mgrwt>
<rscale>  2 0.45432806E+03</rscale>
<asrwt>0</asrwt>
<pdfrwt beam="1">  1       21 0.61889513E-01 0.45432806E+03</pdfrwt>
<pdfrwt beam="2">  1       21 0.18032014E-01 0.45432806E+03</pdfrwt>
<totfact> 0.62632703E+04</totfact>
</mgrwt>
</event>
<event>
 7    0  0.4766352E-002  0.5234505E+03  0.7546771E-02  0.1007833E+00
         21   -1    0    0  502  501  0.00000000000E+00  0.00000000000E+00  0.42814554982E+02  0.42814554982E+02  0.00000000000E+00 0. -1.
         21   -1    0    0  501  502 -0.00000000000E+00 -0.00000000000E+00 -0.15999256352E+04  0.15999256352E+04  0.00000000000E+00 0. -1.
      99926    2    1    2    0    0  0.00000000000E+00 -0.35527136788E-14 -0.15571110802E+04  0.16427401902E+04  0.52345049078E+03 0.  0.
      99925    2    3    3    0    0 -0.16065217167E+03 -0.16372830759E+02 -0.10905286868E+04  0.11334035355E+04  0.26319872284E+03 0.  0.
         25    1    3    3    0    0  0.16065217167E+03  0.16372830759E+02 -0.46658239342E+03  0.50933665468E+03  0.12509000000E+03 0.  0.
         25    1    4    4    0    0 -0.76343798795E+02  0.11320894471E+02 -0.66582557604E+03  0.68185610218E+03  0.12509000000E+03 0.  0.
         25    1    4    4    0    0 -0.84308372878E+02 -0.27693725230E+02 -0.42470311074E+03  0.45154743330E+03  0.12509000000E+03 0.  0.
<mgrwt>
<rscale>  2 0.52345049E+03</rscale>
<asrwt>0</asrwt>
<pdfrwt beam="1">  1       21 0.62962599E-02 0.52345049E+03</pdfrwt>
<pdfrwt beam="2">  1       21 0.23528311E+00 0.52345049E+03</pdfrwt>
<totfact> 0.12442969E+04</totfact>
</mgrwt>
</event>
<event>
 7    0  0.4766352E-002  0.4554357E+03  0.7546771E-02  0.1026113E+00
         21   -1    0    0  502  501  0.00000000000E+00  0.00000000000E+00  0.55142731669E+03  0.55142731669E+03  0.00000000000E+00 0.  1.
         21   -1    0    0  501  502 -0.00000000000E+00 -0.00000000000E+00 -0.94038537676E+02  0.94038537676E+02  0.00000000000E+00 0.  1.
      99926    2    1    2    0    0  0.00000000000E+00  0.00000000000E+00  0.45738877901E+03  0.64546585437E+03  0.45543569687E+03 0.  0.
      99925    2    3    3    0    0 -0.10864103997E+03 -0.28060388051E+02  0.31281208001E+03  0.42378998528E+03  0.26297584162E+03 0.  0.
         25    1    4    4    0    0 -0.97243281481E+02 -0.15503114589E+02  0.18661097217E+03  0.24529118490E+03  0.12509000000E+03 0.  0.
         25    1    4    4    0    0 -0.11397758485E+02 -0.12557273462E+02  0.12620110784E+03  0.17849880038E+03  0.12509000000E+03 0.  0.
         25    1    3    3    0    0  0.10864103997E+03  0.28060388051E+02  0.14457669900E+03  0.22167586909E+03  0.12509000000E+03 0.  0.
<mgrwt>
<rscale>  2 0.45543570E+03</rscale>
<asrwt>0</asrwt>
<pdfrwt beam="1">  1       21 0.81092251E-01 0.45543570E+03</pdfrwt>
<pdfrwt beam="2">  1       21 0.13829197E-01 0.45543570E+03</pdfrwt>
<totfact> 0.55771485E+04</totfact>
</mgrwt>
</event>
<event>
 7    0  0.4766352E-002  0.4481849E+03  0.7546771E-02  0.1028265E+00
         21   -1    0    0  502  501  0.00000000000E+00  0.00000000000E+00  0.93595125005E+02  0.93595125005E+02  0.00000000000E+00 0. -1.
         21   -1    0    0  501  502 -0.00000000000E+00 -0.00000000000E+00 -0.53653898644E+03  0.53653898644E+03  0.00000000000E+00 0. -1.
      99926    2    1    2    0    0  0.00000000000E+00 -0.71054273576E-14 -0.44294386143E+03  0.63013411144E+03  0.44818493284E+03 0.  0.
      99925    2    3    3    0    0 -0.97380492179E+02 -0.42054475981E+02 -0.29557590167E+03  0.40964292597E+03  0.26304120198E+03 0.  0.
         25    1    4    4    0    0 -0.75692777023E+02 -0.23617267072E+02 -0.11200480724E+03  0.18568725520E+03  0.12509000000E+03 0.  0.
         25    1    4    4    0    0 -0.21687715156E+02 -0.18437208909E+02 -0.18357109443E+03  0.22395567077E+03  0.12509000000E+03 0.  0.
         25    1    3    3    0    0  0.97380492179E+02  0.42054475981E+02 -0.14736795976E+03  0.22049118547E+03  0.12509000000E+03 0.  0.
<mgrwt>
<rscale>  2 0.44818493E+03</rscale>
<asrwt>0</asrwt>
<pdfrwt beam="1">  1       21 0.13763989E-01 0.44818493E+03</pdfrwt>
<pdfrwt beam="2">  1       21 0.78902792E-01 0.44818493E+03</pdfrwt>
<totfact> 0.60025244E+04</totfact>
</mgrwt>
</event>
<event>
 7    0  0.4766352E-002  0.4545754E+03  0.7546771E-02  0.1026366E+00
         21   -1    0    0  502  501  0.00000000000E+00  0.00000000000E+00  0.57290105155E+02  0.57290105155E+02  0.00000000000E+00 0. -1.
         21   -1    0    0  501  502 -0.00000000000E+00 -0.00000000000E+00 -0.90172096320E+03  0.90172096320E+03  0.00000000000E+00 0. -1.
      99926    2    1    2    0    0 -0.14210854715E-13  0.00000000000E+00 -0.84443085804E+03  0.95901106835E+03  0.45457535702E+03 0.  0.
      99925    2    3    3    0    0 -0.76984860514E+02 -0.41700605956E+02 -0.68185092661E+03  0.73597440883E+03  0.26281559134E+03 0.  0.
         25    1    4    4    0    0 -0.41706646319E+02  0.26879457651E+01 -0.24777529424E+03  0.28068981801E+03  0.12509000000E+03 0.  0.
         25    1    4    4    0    0 -0.35278214195E+02 -0.44388551721E+02 -0.43407563237E+03  0.45528459082E+03  0.12509000000E+03 0.  0.
         25    1    3    3    0    0  0.76984860514E+02  0.41700605956E+02 -0.16257993143E+03  0.22303665952E+03  0.12509000000E+03 0.  0.
<mgrwt>
<rscale>  2 0.45457536E+03</rscale>
<asrwt>0</asrwt>
<pdfrwt beam="1">  1       21 0.84250151E-02 0.45457536E+03</pdfrwt>
<pdfrwt beam="2">  1       21 0.13260603E+00 0.45457536E+03</pdfrwt>
<totfact> 0.40913759E+04</totfact>
</mgrwt>
</event>
<event>
 7    0  0.4766352E-002  0.4524502E+03  0.7546771E-02  0.1026994E+00
         21   -1    0    0  502  501  0.00000000000E+00  0.00000000000E+00  0.27141510704E+03  0.27141510704E+03  0.00000000000E+00 0.  1.
         21   -1    0    0  501  502 -0.00000000000E+00 -0.00000000000E+00 -0.18855909737E+03  0.18855909737E+03  0.00000000000E+00 0.  1.
      99926    2    1    2    0    0  0.00000000000E+00  0.00000000000E+00  0.82856009679E+02  0.45997420441E+03  0.45245016342E+03 0.  0.
      99925    2    3    3    0    0  0.97110509290E+02 -0.43476241574E+02  0.21010390576E+02  0.28449479451E+03  0.26301181912E+03 0.  0.
         25    1    4    4    0    0  0.56086924771E+02  0.58209754216E+01  0.39320188513E+02  0.14273476174E+03  0.12509000000E+03 0.  0.
         25    1    4    4    0    0  0.41023584519E+02 -0.49297216996E+02 -0.18309797937E+02  0.14176003277E+03  0.12509000000E+03 0.  0.
         25    1    3    3    0    0 -0.97110509290E+02  0.43476241574E+02  0.61845619103E+02  0.17547940990E+03  0.12509000000E+03 0.  0.
<mgrwt>
<rscale>  2 0.45245016E+03</rscale>
<asrwt>0</asrwt>
<pdfrwt beam="1">  1       21 0.39913987E-01 0.45245016E+03</pdfrwt>
<pdfrwt beam="2">  1       21 0.27729279E-01 0.45245016E+03</pdfrwt>
<totfact> 0.69584627E+04</totfact>
</mgrwt>
</event>
<event>
 7    0  0.4766352E-002  0.4540889E+03  0.7546771E-02  0.1026510E+00
         21   -1    0    0  502  501  0.00000000000E+00  0.00000000000E+00  0.16095186161E+03  0.16095186161E+03  0.00000000000E+00 0.  1.
         21   -1    0    0  501  502 -0.00000000000E+00 -0.00000000000E+00 -0.32027695106E+03  0.32027695106E+03  0.00000000000E+00 0.  1.
      99926    2    1    2    0    0  0.14210854715E-13  0.71054273576E-14 -0.15932508946E+03  0.48122881267E+03  0.45408885255E+03 0.  0.
      99925    2    3    3    0    0 -0.98048589316E+02 -0.54763788666E+02 -0.10326779688E+03  0.30402123223E+03  0.26296781810E+03 0.  0.
         25    1    3    3    0    0  0.98048589316E+02  0.54763788666E+02 -0.56057292576E+02  0.17720758044E+03  0.12509000000E+03 0.  0.
         25    1    4    4    0    0 -0.91769541228E+02 -0.27879185332E+02 -0.62856150703E+02  0.16969767663E+03  0.12509000000E+03 0.  0.
         25    1    4    4    0    0 -0.62790480884E+01 -0.26884603333E+02 -0.40411646180E+02  0.13432355560E+03  0.12509000000E+03 0.  0.
<mgrwt>
<rscale>  2 0.45408885E+03</rscale>
<asrwt>0</asrwt>
<pdfrwt beam="1">  1       21 0.23669392E-01 0.45408885E+03</pdfrwt>
<pdfrwt beam="2">  1       21 0.47099551E-01 0.45408885E+03</pdfrwt>
<totfact> 0.67094714E+04</totfact>
</mgrwt>
</event>
<event>
 7    0  0.4766352E-002  0.4702084E+03  0.7546771E-02  0.1021861E+00
         21   -1    0    0  502  501  0.00000000000E+00  0.00000000000E+00  0.74177930485E+02  0.74177930485E+02  0.00000000000E+00 0. -1.
         21   -1    0    0  501  502 -0.00000000000E+00 -0.00000000000E+00 -0.74515409926E+03  0.74515409926E+03  0.00000000000E+00 0. -1.
      99926    2    1    2    0    0  0.00000000000E+00  0.35527136788E-14 -0.67097616878E+03  0.81933202975E+03  0.47020841752E+03 0.  0.
      99925    2    3    3    0    0 -0.11075121464E+03  0.17814452598E+02 -0.31319374720E+03  0.42406129271E+03  0.26297237579E+03 0.  0.
         25    1    4    4    0    0 -0.44545970323E+02  0.35435943593E+02 -0.11116938585E+03  0.17676591872E+03  0.12509000000E+03 0.  0.
         25    1    3    3    0    0  0.11075121464E+03 -0.17814452598E+02 -0.35778242158E+03  0.39527073704E+03  0.12509000000E+03 0.  0.
         25    1    4    4    0    0 -0.66205244318E+02 -0.17621490995E+02 -0.20202436135E+03  0.24729537399E+03  0.12509000000E+03 0.  0.
<mgrwt>
<rscale>  2 0.47020842E+03</rscale>
<asrwt>0</asrwt>
<pdfrwt beam="1">  1       21 0.10908519E-01 0.47020842E+03</pdfrwt>
<pdfrwt beam="2">  1       21 0.10958149E+00 0.47020842E+03</pdfrwt>
<totfact> 0.41646981E+04</totfact>
</mgrwt>
</event>
<event>
 7    0  0.4766352E-002  0.4550476E+03  0.7546771E-02  0.1026227E+00
         21   -1    0    0  502  501  0.00000000000E+00  0.00000000000E+00  0.16103982525E+03  0.16103982525E+03  0.00000000000E+00 0. -1.
         21   -1    0    0  501  502 -0.00000000000E+00 -0.00000000000E+00 -0.32145508398E+03  0.32145508398E+03  0.00000000000E+00 0. -1.
      99926    2    1    2    0    0  0.00000000000E+00  0.00000000000E+00 -0.16041525874E+03  0.48249490923E+03  0.45504756037E+03 0.  0.
      99925    2    3    3    0    0  0.89362774134E+02  0.69123989309E+02 -0.10846633738E+03  0.30611455367E+03  0.26301585945E+03 0.  0.
         25    1    4    4    0    0  0.21801357840E+02 -0.25559626695E+01 -0.45742049648E+02  0.13498768594E+03  0.12509000000E+03 0.  0.
         25    1    3    3    0    0 -0.89362774134E+02 -0.69123989309E+02 -0.51948921355E+02  0.17638035556E+03  0.12509000000E+03 0.  0.
         25    1    4    4    0    0  0.67561416293E+02  0.71679951979E+02 -0.62724287734E+02  0.17112686773E+03  0.12509000000E+03 0.  0.
<mgrwt>
<rscale>  2 0.45504756E+03</rscale>
<asrwt>0</asrwt>
<pdfrwt beam="1">  1       21 0.23682327E-01 0.45504756E+03</pdfrwt>
<pdfrwt beam="2">  1       21 0.47272806E-01 0.45504756E+03</pdfrwt>
<totfact> 0.66493828E+04</totfact>
</mgrwt>
</event>
<event>
 6    0  0.4766352E-002  0.4510934E+03  0.7546771E-02  0.1027396E+00
         21   -1    0    0  502  501  0.00000000000E+00  0.00000000000E+00  0.95184871381E+02  0.95184871381E+02  0.00000000000E+00 0. -1.
         21   -1    0    0  501  502 -0.00000000000E+00 -0.00000000000E+00 -0.53444736631E+03  0.53444736631E+03  0.00000000000E+00 0. -1.
      99926    2    1    2    0    0  0.14210854715E-13 -0.66613381478E-15 -0.43926249493E+03  0.62963223769E+03  0.45109335540E+03 0.  0.
         25    1    3    3    0    0  0.65664147354E+02  0.17303424763E+01 -0.73438101893E+02  0.15923390733E+03  0.12509000000E+03 0.  0.
         25    1    3    3    0    0  0.38461393302E+02 -0.10901149156E+02 -0.18594489636E+03  0.22764254086E+03  0.12509000000E+03 0.  0.
         25    1    3    3    0    0 -0.10412554066E+03  0.91708066794E+01 -0.17987949667E+03  0.24275578950E+03  0.12509000000E+03 0.  0.
<mgrwt>
<rscale>  2 0.45109336E+03</rscale>
<asrwt>0</asrwt>
<pdfrwt beam="1">  1       21 0.13997776E-01 0.45109336E+03</pdfrwt>
<pdfrwt beam="2">  1       21 0.78595199E-01 0.45109336E+03</pdfrwt>
<totfact> 0.58679176E+04</totfact>
</mgrwt>
</event>
<event>
 7    0  0.4766352E-002  0.4490914E+03  0.7546771E-02  0.1027993E+00
         21   -1    0    0  502  501  0.00000000000E+00  0.00000000000E+00  0.30857187328E+03  0.30857187328E+03  0.00000000000E+00 0.  1.
         21   -1    0    0  501  502 -0.00000000000E+00 -0.00000000000E+00 -0.16340039051E+03  0.16340039051E+03  0.00000000000E+00 0.  1.
      99926    2    1    2    0    0  0.00000000000E+00  0.00000000000E+00  0.14517148277E+03  0.47197226380E+03  0.44909136975E+03 0.  0.
      99925    2    3    3    0    0  0.89267625337E+02  0.14688355196E+02  0.30731786517E+02  0.27980460551E+03  0.26298615525E+03 0.  0.
         25    1    4    4    0    0  0.96324320512E+01  0.27672679969E+02  0.37961005649E+01  0.12853201719E+03  0.12509000000E+03 0.  0.
         25    1    3    3    0    0 -0.89267625337E+02 -0.14688355196E+02  0.11443969625E+03  0.19216765828E+03  0.12509000000E+03 0.  0.
         25    1    4    4    0    0  0.79635193286E+02 -0.12984324773E+02  0.26935685952E+02  0.15127258832E+03  0.12509000000E+03 0.  0.
<mgrwt>
<rscale>  2 0.44909137E+03</rscale>
<asrwt>0</asrwt>
<pdfrwt beam="1">  1       21 0.45378217E-01 0.44909137E+03</pdfrwt>
<pdfrwt beam="2">  1       21 0.24029469E-01 0.44909137E+03</pdfrwt>
<totfact> 0.70539338E+04</totfact>
</mgrwt>
</event>
<event>
 7    0  0.4766352E-002  0.4566305E+03  0.7546771E-02  0.1025763E+00
         21   -1    0    0  502  501  0.00000000000E+00  0.00000000000E+00  0.19461989516E+03  0.19461989516E+03  0.00000000000E+00 0. -1.
         21   -1    0    0  501  502 -0.00000000000E+00 -0.00000000000E+00 -0.26784447424E+03  0.26784447424E+03  0.00000000000E+00 0. -1.
      99926    2    1    2    0    0 -0.14210854715E-13  0.14210854715E-13 -0.73224579077E+02  0.46246436940E+03  0.45663054429E+03 0.  0.
      99925    2    3    3    0    0 -0.73806542638E+02  0.87559408348E+02 -0.51659571227E+02  0.29150644068E+03  0.26304607569E+03 0.  0.
         25    1    3    3    0    0  0.73806542638E+02 -0.87559408348E+02 -0.21565007851E+02  0.17095792871E+03  0.12509000000E+03 0.  0.
         25    1    4    4    0    0 -0.75652976402E+02  0.30436473874E+02 -0.24405054742E+02  0.15130388818E+03  0.12509000000E+03 0.  0.
         25    1    4    4    0    0  0.18464337647E+01  0.57122934474E+02 -0.27254516485E+02  0.14020255251E+03  0.12509000000E+03 0.  0.
<mgrwt>
<rscale>  2 0.45663054E+03</rscale>
<asrwt>0</asrwt>
<pdfrwt beam="1">  1       21 0.28620573E-01 0.45663054E+03</pdfrwt>
<pdfrwt beam="2">  1       21 0.39388893E-01 0.45663054E+03</pdfrwt>
<totfact> 0.67124241E+04</totfact>
</mgrwt>
</event>
<event>
 7    0  0.4766352E-002  0.4389638E+03  0.7546771E-02  0.1031065E+00
         21   -1    0    0  502  501  0.00000000000E+00  0.00000000000E+00  0.42420936863E+03  0.42420936863E+03  0.00000000000E+00 0.  1.
         21   -1    0    0  501  502 -0.00000000000E+00 -0.00000000000E+00 -0.11355785150E+03  0.11355785150E+03  0.00000000000E+00 0.  1.
      99926    2    1    2    0    0 -0.14210854715E-13  0.00000000000E+00  0.31065151713E+03  0.53776722013E+03  0.43896380027E+03 0.  0.
      99925    2    3    3    0    0  0.94862426525E+02 -0.21265411737E+02  0.20546489586E+03  0.34760194702E+03  0.26298325505E+03 0.  0.
         25    1    4    4    0    0  0.83328892962E+02 -0.84935388034E+01  0.13903908989E+03  0.20492735596E+03  0.12509000000E+03 0.  0.
         25    1    4    4    0    0  0.11533533563E+02 -0.12771872934E+02  0.66425805969E+02  0.14267459106E+03  0.12509000000E+03 0.  0.
         25    1    3    3    0    0 -0.94862426525E+02  0.21265411737E+02  0.10518662127E+03  0.19016527311E+03  0.12509000000E+03 0.  0.
<mgrwt>
<rscale>  2 0.43896380E+03</rscale>
<asrwt>0</asrwt>
<pdfrwt beam="1">  1       21 0.62383730E-01 0.43896380E+03</pdfrwt>
<pdfrwt beam="2">  1       21 0.16699684E-01 0.43896380E+03</pdfrwt>
<totfact> 0.71310677E+04</totfact>
</mgrwt>
</event>
<event>
 7    0  0.4766352E-002  0.4514546E+03  0.7546771E-02  0.1027289E+00
         21   -1    0    0  502  501  0.00000000000E+00  0.00000000000E+00  0.13005967535E+04  0.13005967535E+04  0.00000000000E+00 0.  1.
         21   -1    0    0  501  502 -0.00000000000E+00 -0.00000000000E+00 -0.39176496445E+02  0.39176496445E+02  0.00000000000E+00 0.  1.
      99926    2    1    2    0    0 -0.71054273576E-14  0.00000000000E+00  0.12614202571E+04  0.13397732500E+04  0.45145464486E+03 0.  0.
      99925    2    3    3    0    0 -0.31271385553E+02  0.77473693045E+02  0.58429610122E+03  0.64614171723E+03  0.26290133543E+03 0.  0.
         25    1    4    4    0    0  0.21695264345E+02  0.42598467903E+02  0.24971537458E+03  0.28335594288E+03  0.12509000000E+03 0.  0.
         25    1    3    3    0    0  0.31271385553E+02 -0.77473693045E+02  0.67712415585E+03  0.69363153273E+03  0.12509000000E+03 0.  0.
         25    1    4    4    0    0 -0.52966649898E+02  0.34875225142E+02  0.33458072664E+03  0.36278577435E+03  0.12509000000E+03 0.  0.
<mgrwt>
<rscale>  2 0.45145464E+03</rscale>
<asrwt>0</asrwt>
<pdfrwt beam="1">  1       21 0.19126420E+00 0.45145464E+03</pdfrwt>
<pdfrwt beam="2">  1       21 0.57612503E-02 0.45145464E+03</pdfrwt>
<totfact> 0.28765982E+04</totfact>
</mgrwt>
</event>
<event>
 7    0  0.4766352E-002  0.4409587E+03  0.7546771E-02  0.1030453E+00
         21   -1    0    0  502  501  0.00000000000E+00  0.00000000000E+00  0.20025276437E+04  0.20025276437E+04  0.00000000000E+00 0. -1.
         21   -1    0    0  501  502 -0.00000000000E+00 -0.00000000000E+00 -0.24274896396E+02  0.24274896396E+02  0.00000000000E+00 0. -1.
      99926    2    1    2    0    0  0.00000000000E+00  0.00000000000E+00  0.19782527473E+04  0.20268025401E+04  0.44095873313E+03 0.  0.
      99925    2    3    3    0    0  0.79896035840E+02  0.47477262966E+02  0.14242823410E+04  0.14513303981E+04  0.26294917865E+03 0.  0.
         25    1    4    4    0    0  0.69793931469E+02  0.51386512996E+02  0.71430263896E+03  0.73033385155E+03  0.12509000000E+03 0.  0.
         25    1    3    3    0    0 -0.79896035840E+02 -0.47477262966E+02  0.55397040629E+03  0.57547214197E+03  0.12509000000E+03 0.  0.
         25    1    4    4    0    0  0.10102104371E+02 -0.39092500296E+01  0.70997970208E+03  0.72099654660E+03  0.12509000000E+03 0.  0.
<mgrwt>
<rscale>  2 0.44095873E+03</rscale>
<asrwt>0</asrwt>
<pdfrwt beam="1">  1       21 0.29448925E+00 0.44095873E+03</pdfrwt>
<pdfrwt beam="2">  1       21 0.35698391E-02 0.44095873E+03</pdfrwt>
<totfact> 0.14828724E+04</totfact>
</mgrwt>
</event>
<event>
 7    0  0.4766352E-002  0.4636528E+03  0.7546771E-02  0.1023727E+00
         21   -1    0    0  502  501  0.00000000000E+00  0.00000000000E+00  0.10376731648E+03  0.10376731648E+03  0.00000000000E+00 0.  1.
         21   -1    0    0  501  502 -0.00000000000E+00 -0.00000000000E+00 -0.51792296894E+03  0.51792296894E+03  0.00000000000E+00 0.  1.
      99926    2    1    2    0    0  0.00000000000E+00  0.00000000000E+00 -0.41415565246E+03  0.62169028542E+03  0.46365278660E+03 0.  0.
      99925    2    3    3    0    0  0.30471091755E+02 -0.30655761952E+02 -0.10694375459E+03  0.28718330273E+03  0.26300003717E+03 0.  0.
         25    1    3    3    0    0 -0.30471091755E+02  0.30655761952E+02 -0.30721189788E+03  0.33450698269E+03  0.12509000000E+03 0.  0.
         25    1    4    4    0    0  0.27872384115E+02  0.21681113454E+02 -0.64308091469E+02  0.14501716866E+03  0.12509000000E+03 0.  0.
         25    1    4    4    0    0  0.25987076396E+01 -0.52336875405E+02 -0.42635663116E+02  0.14216613408E+03  0.12509000000E+03 0.  0.
<mgrwt>
<rscale>  2 0.46365279E+03</rscale>
<asrwt>0</asrwt>
<pdfrwt beam="1">  1       21 0.15259899E-01 0.46365279E+03</pdfrwt>
<pdfrwt beam="2">  1       21 0.76165143E-01 0.46365279E+03</pdfrwt>
<totfact> 0.53604994E+04</totfact>
</mgrwt>
</event>
<event>
 7    0  0.4766352E-002  0.4453587E+03  0.7546771E-02  0.1029115E+00
         21   -1    0    0  502  501  0.00000000000E+00  0.00000000000E+00  0.70153207084E+02  0.70153207084E+02  0.00000000000E+00 0. -1.
         21   -1    0    0  501  502 -0.00000000000E+00 -0.00000000000E+00 -0.70682584017E+03  0.70682584017E+03  0.00000000000E+00 0. -1.
      99926    2    1    2    0    0 -0.33306690739E-15  0.00000000000E+00 -0.63667263309E+03  0.77697904726E+03  0.44535872973E+03 0.  0.
      99925    2    3    3    0    0  0.96066106070E+00  0.29546415175E+02 -0.23056659492E+03  0.35101715242E+03  0.26301743873E+03 0.  0.
         25    1    4    4    0    0 -0.28132957540E+02 -0.32062502973E+00 -0.14631054108E+03  0.19454009518E+03  0.12509000000E+03 0.  0.
         25    1    4    4    0    0  0.29093618601E+02  0.29867040205E+02 -0.84256053846E+02  0.15647705724E+03  0.12509000000E+03 0.  0.
         25    1    3    3    0    0 -0.96066106070E+00 -0.29546415175E+02 -0.40610603816E+03  0.42596189484E+03  0.12509000000E+03 0.  0.
<mgrwt>
<rscale>  2 0.44535873E+03</rscale>
<asrwt>0</asrwt>
<pdfrwt beam="1">  1       21 0.10316649E-01 0.44535873E+03</pdfrwt>
<pdfrwt beam="2">  1       21 0.10394497E+00 0.44535873E+03</pdfrwt>
<totfact> 0.52781036E+04</totfact>
</mgrwt>
</event>
<event>
 7    0  0.4766352E-002  0.4530083E+03  0.7546771E-02  0.1026829E+00
         21   -1    0    0  502  501  0.00000000000E+00  0.00000000000E+00  0.76776515569E+02  0.76776515569E+02  0.00000000000E+00 0. -1.
         21   -1    0    0  501  502 -0.00000000000E+00 -0.00000000000E+00 -0.66822689047E+03  0.66822689047E+03  0.00000000000E+00 0. -1.
      99926    2    1    2    0    0  0.00000000000E+00  0.00000000000E+00 -0.59145037490E+03  0.74500340604E+03  0.45300831012E+03 0.  0.
      99925    2    3    3    0    0  0.65183249551E+02  0.80319097324E+02 -0.44042776397E+03  0.52329334644E+03  0.26298155398E+03 0.  0.
         25    1    4    4    0    0  0.57996582822E+02  0.56380391752E+02 -0.18275413244E+03  0.23577305448E+03  0.12509000000E+03 0.  0.
         25    1    3    3    0    0 -0.65183249551E+02 -0.80319097324E+02 -0.15102261093E+03  0.22171005960E+03  0.12509000000E+03 0.  0.
         25    1    4    4    0    0  0.71866667290E+01  0.23938705572E+02 -0.25767363153E+03  0.28752029196E+03  0.12509000000E+03 0.  0.
<mgrwt>
<rscale>  2 0.45300831E+03</rscale>
<asrwt>0</asrwt>
<pdfrwt beam="1">  1       21 0.11290664E-01 0.45300831E+03</pdfrwt>
<pdfrwt beam="2">  1       21 0.98268662E-01 0.45300831E+03</pdfrwt>
<totfact> 0.51325553E+04</totfact>
</mgrwt>
</event>
<event>
 7    0  0.4766352E-002  0.4707744E+03  0.7546771E-02  0.1021702E+00
         21   -1    0    0  502  501  0.00000000000E+00  0.00000000000E+00  0.26713047558E+03  0.26713047558E+03  0.00000000000E+00 0.  1.
         21   -1    0    0  501  502 -0.00000000000E+00 -0.00000000000E+00 -0.20741595634E+03  0.20741595634E+03  0.00000000000E+00 0.  1.
      99926    2    1    2    0    0  0.00000000000E+00  0.00000000000E+00  0.59714519239E+02  0.47454643192E+03  0.47077435384E+03 0.  0.
      99925    2    3    3    0    0  0.57123538222E+02 -0.96054767621E+02 -0.24611974952E+02  0.28680170436E+03  0.26298260648E+03 0.  0.
         25    1    3    3    0    0 -0.57123538222E+02  0.96054767621E+02  0.84326494192E+02  0.18774472755E+03  0.12509000000E+03 0.  0.
         25    1    4    4    0    0  0.16996258098E+02 -0.88028052772E+02 -0.18997181560E+02  0.15506841029E+03  0.12509000000E+03 0.  0.
         25    1    4    4    0    0  0.40127280124E+02 -0.80267148498E+01 -0.56147933926E+01  0.13173329407E+03  0.12509000000E+03 0.  0.
<mgrwt>
<rscale>  2 0.47077435E+03</rscale>
<asrwt>0</asrwt>
<pdfrwt beam="1">  1       21 0.39283893E-01 0.47077435E+03</pdfrwt>
<pdfrwt beam="2">  1       21 0.30502347E-01 0.47077435E+03</pdfrwt>
<totfact> 0.59313037E+04</totfact>
</mgrwt>
</event>
<event>
 7    0  0.4766352E-002  0.4600676E+03  0.7546771E-02  0.1024762E+00
         21   -1    0    0  502  501  0.00000000000E+00  0.00000000000E+00  0.62271114626E+02  0.62271114626E+02  0.00000000000E+00 0. -1.
         21   -1    0    0  501  502 -0.00000000000E+00 -0.00000000000E+00 -0.84976078384E+03  0.84976078384E+03  0.00000000000E+00 0. -1.
      99926    2    1    2    0    0 -0.35527136788E-14  0.00000000000E+00 -0.78748966922E+03  0.91203189847E+03  0.46006760884E+03 0.  0.
      99925    2    3    3    0    0 -0.27081556854E+02  0.11413621126E+03 -0.46884038727E+03  0.55016816938E+03  0.26289393379E+03 0.  0.
         25    1    4    4    0    0 -0.22692778477E+02  0.63239595912E+02 -0.31431367400E+03  0.34489824941E+03  0.12509000000E+03 0.  0.
         25    1    4    4    0    0 -0.43887783772E+01  0.50896615349E+02 -0.15452671327E+03  0.20526991997E+03  0.12509000000E+03 0.  0.
         25    1    3    3    0    0  0.27081556854E+02 -0.11413621126E+03 -0.31864928195E+03  0.36186372909E+03  0.12509000000E+03 0.  0.
<mgrwt>
<rscale>  2 0.46006761E+03</rscale>
<asrwt>0</asrwt>
<pdfrwt beam="1">  1       21 0.91575173E-02 0.46006761E+03</pdfrwt>
<pdfrwt beam="2">  1       21 0.12496482E+00 0.46006761E+03</pdfrwt>
<totfact> 0.41064195E+04</totfact>
</mgrwt>
</event>
<event>
 7    0  0.4766352E-002  0.4558386E+03  0.7546771E-02  0.1025995E+00
         21   -1    0    0  502  501  0.00000000000E+00  0.00000000000E+00  0.71039025234E+02  0.71039025234E+02  0.00000000000E+00 0.  1.
         21   -1    0    0  501  502 -0.00000000000E+00 -0.00000000000E+00 -0.73124871867E+03  0.73124871867E+03  0.00000000000E+00 0.  1.
      99926    2    1    2    0    0  0.00000000000E+00  0.00000000000E+00 -0.66020969344E+03  0.80228774391E+03  0.45583855115E+03 0.  0.
      99925    2    3    3    0    0 -0.22457848153E+02 -0.38654506515E+02 -0.23056314099E+03  0.35257428630E+03  0.26296528205E+03 0.  0.
         25    1    4    4    0    0 -0.50473459589E+02 -0.98195222760E+01 -0.12177749612E+03  0.18199247183E+03  0.12509000000E+03 0.  0.
         25    1    4    4    0    0  0.28015611436E+02 -0.28834984239E+02 -0.10878564486E+03  0.17058181447E+03  0.12509000000E+03 0.  0.
         25    1    3    3    0    0  0.22457848153E+02  0.38654506515E+02 -0.42964655245E+03  0.44971345760E+03  0.12509000000E+03 0.  0.
<mgrwt>
<rscale>  2 0.45583855E+03</rscale>
<asrwt>0</asrwt>
<pdfrwt beam="1">  1       21 0.10446915E-01 0.45583855E+03</pdfrwt>
<pdfrwt beam="2">  1       21 0.10753658E+00 0.45583855E+03</pdfrwt>
<totfact> 0.47342038E+04</totfact>
</mgrwt>
</event>
<event>
 7    0  0.4766352E-002  0.4574035E+03  0.7546771E-02  0.1025537E+00
         21   -1    0    0  502  501  0.00000000000E+00  0.00000000000E+00  0.32825733197E+03  0.32825733197E+03  0.00000000000E+00 0.  1.
         21   -1    0    0  501  502 -0.00000000000E+00 -0.00000000000E+00 -0.15933990781E+03  0.15933990781E+03  0.00000000000E+00 0.  1.
      99926    2    1    2    0    0 -0.14210854715E-13  0.00000000000E+00  0.16891742416E+03  0.48759723977E+03  0.45740351119E+03 0.  0.
      99925    2    3    3    0    0  0.10831941506E+03  0.62329362153E+01  0.14816985266E+03  0.32071430177E+03  0.26292853202E+03 0.  0.
         25    1    4    4    0    0  0.14406459246E+02 -0.11144237619E+02  0.76756689620E+02  0.14788792243E+03  0.12509000000E+03 0.  0.
         25    1    4    4    0    0  0.93912955817E+02  0.17377173834E+02  0.71413163036E+02  0.17282637934E+03  0.12509000000E+03 0.  0.
         25    1    3    3    0    0 -0.10831941506E+03 -0.62329362153E+01  0.20747571501E+02  0.16688293800E+03  0.12509000000E+03 0.  0.
<mgrwt>
<rscale>  2 0.45740351E+03</rscale>
<asrwt>0</asrwt>
<pdfrwt beam="1">  1       21 0.48273137E-01 0.45740351E+03</pdfrwt>
<pdfrwt beam="2">  1       21 0.23432339E-01 0.45740351E+03</pdfrwt>
<totfact> 0.64903851E+04</totfact>
</mgrwt>
</event>
<event>
 7    0  0.4766352E-002  0.3991639E+03  0.7546771E-02  0.1044070E+00
         21   -1    0    0  502  501  0.00000000000E+00  0.00000000000E+00  0.32471122749E+02  0.32471122749E+02  0.00000000000E+00 0.  1.
         21   -1    0    0  501  502 -0.00000000000E+00 -0.00000000000E+00 -0.12267192412E+04  0.12267192412E+04  0.00000000000E+00 0.  1.
      99926    2    1    2    0    0 -0.71054273576E-14 -0.39968028887E-14 -0.11942481185E+04  0.12591903640E+04  0.39916388144E+03 0.  0.
      99925    2    3    3    0    0  0.33540286876E+02  0.23880273185E+01 -0.88650406241E+03  0.92529731874E+03  0.26297342426E+03 0.  0.
         25    1    4    4    0    0  0.57758388596E+01  0.36414587797E+02 -0.49817173983E+03  0.51495822451E+03  0.12509000000E+03 0.  0.
         25    1    4    4    0    0  0.27764448016E+02 -0.34026560478E+02 -0.38833232258E+03  0.41033909423E+03  0.12509000000E+03 0.  0.
         25    1    3    3    0    0 -0.33540286876E+02 -0.23880273185E+01 -0.30774405608E+03  0.33389304526E+03  0.12509000000E+03 0.  0.
<mgrwt>
<rscale>  2 0.39916388E+03</rscale>
<asrwt>0</asrwt>
<pdfrwt beam="1">  1       21 0.47751658E-02 0.39916388E+03</pdfrwt>
<pdfrwt beam="2">  1       21 0.18039986E+00 0.39916388E+03</pdfrwt>
<totfact> 0.48050108E+04</totfact>
</mgrwt>
</event>
<event>
 6    0  0.4766352E-002  0.7182864E+03  0.7546771E-02  0.9686461E-01
         21   -1    0    0  502  501  0.00000000000E+00  0.00000000000E+00  0.25369278094E+03  0.25369278094E+03  0.00000000000E+00 0.  1.
         21   -1    0    0  501  502 -0.00000000000E+00 -0.00000000000E+00 -0.50842537738E+03  0.50842537738E+03  0.00000000000E+00 0.  1.
      99925    2    1    2    0    0 -0.15667651664E+03 -0.23502782243E+03 -0.23643743921E+03  0.45265438167E+03  0.26307359883E+03 0.  0.
         25    1    1    2    0    0  0.15667651664E+03  0.23502782243E+03 -0.18295157225E+02  0.30946377665E+03  0.12509000000E+03 0.  0.
         25    1    3    3    0    0 -0.60318281803E+02 -0.15238420182E+03 -0.14730664556E+03  0.25338902109E+03  0.12509000000E+03 0.  0.
         25    1    3    3    0    0 -0.96358234833E+02 -0.82643620611E+02 -0.89130793653E+02  0.19926536057E+03  0.12509000000E+03 0.  0.
<mgrwt>
<rscale>  2 0.71828643E+03</rscale>
<asrwt>0</asrwt>
<pdfrwt beam="1">  1       21 0.37307762E-01 0.71828643E+03</pdfrwt>
<pdfrwt beam="2">  1       21 0.74768437E-01 0.71828643E+03</pdfrwt>
<totfact> 0.93008702E+03</totfact>
</mgrwt>
</event>
<event>
 7    0  0.4766352E-002  0.4537451E+03  0.7546771E-02  0.1026611E+00
         21   -1    0    0  502  501  0.00000000000E+00  0.00000000000E+00  0.50116956298E+03  0.50116956298E+03  0.00000000000E+00 0.  1.
         21   -1    0    0  501  502 -0.00000000000E+00 -0.00000000000E+00 -0.10270205551E+03  0.10270205551E+03  0.00000000000E+00 0.  1.
      99926    2    1    2    0    0  0.14210854715E-13 -0.35527136788E-14  0.39846750747E+03  0.60387161849E+03  0.45374505739E+03 0.  0.
      99925    2    3    3    0    0  0.96328712617E+02 -0.28259608670E+02  0.18534394865E+03  0.33713769530E+03  0.26311902237E+03 0.  0.
         25    1    4    4    0    0  0.46586698718E+02 -0.40224348970E+02  0.56538816759E+02  0.15044090085E+03  0.12509000000E+03 0.  0.
         25    1    3    3    0    0 -0.96328712617E+02  0.28259608670E+02  0.21312355882E+03  0.26673392319E+03  0.12509000000E+03 0.  0.
         25    1    4    4    0    0  0.49742013899E+02  0.11964740301E+02  0.12880513189E+03  0.18669679445E+03  0.12509000000E+03 0.  0.
<mgrwt>
<rscale>  2 0.45374506E+03</rscale>
<asrwt>0</asrwt>
<pdfrwt beam="1">  1       21 0.73701406E-01 0.45374506E+03</pdfrwt>
<pdfrwt beam="2">  1       21 0.15103244E-01 0.45374506E+03</pdfrwt>
<totfact> 0.59023604E+04</totfact>
</mgrwt>
</event>
<event>
 7    0  0.4766352E-002  0.4597451E+03  0.7546771E-02  0.1024855E+00
         21   -1    0    0  502  501  0.00000000000E+00  0.00000000000E+00  0.54483106985E+03  0.54483106985E+03  0.00000000000E+00 0. -1.
         21   -1    0    0  501  502 -0.00000000000E+00 -0.00000000000E+00 -0.96986723785E+02  0.96986723785E+02  0.00000000000E+00 0. -1.
      99926    2    1    2    0    0  0.00000000000E+00  0.22204460493E-15  0.44784434606E+03  0.64181779363E+03  0.45974506188E+03 0.  0.
      99925    2    3    3    0    0 -0.92107071256E+02  0.15051723998E+01  0.38356936400E+03  0.47369652924E+03  0.26225363048E+03 0.  0.
         25    1    4    4    0    0 -0.66763764014E+02 -0.28410997435E+02  0.17092252832E+03  0.22388971336E+03  0.12509000000E+03 0.  0.
         25    1    4    4    0    0 -0.25343307242E+02  0.29916169835E+02  0.21264683568E+03  0.24980681589E+03  0.12509000000E+03 0.  0.
         25    1    3    3    0    0  0.92107071256E+02 -0.15051723998E+01  0.64274982065E+02  0.16812126439E+03  0.12509000000E+03 0.  0.
<mgrwt>
<rscale>  2 0.45974506E+03</rscale>
<asrwt>0</asrwt>
<pdfrwt beam="1">  1       21 0.80122215E-01 0.45974506E+03</pdfrwt>
<pdfrwt beam="2">  1       21 0.14262754E-01 0.45974506E+03</pdfrwt>
<totfact> 0.54120161E+04</totfact>
</mgrwt>
</event>
<event>
 7    0  0.4766352E-002  0.4538486E+03  0.7546771E-02  0.1026581E+00
         21   -1    0    0  502  501  0.00000000000E+00  0.00000000000E+00  0.14854377639E+03  0.14854377639E+03  0.00000000000E+00 0.  1.
         21   -1    0    0  501  502 -0.00000000000E+00 -0.00000000000E+00 -0.34666303179E+03  0.34666303179E+03  0.00000000000E+00 0.  1.
      99926    2    1    2    0    0  0.00000000000E+00  0.00000000000E+00 -0.19811925540E+03  0.49520680817E+03  0.45384859095E+03 0.  0.
      99925    2    3    3    0    0 -0.38374992557E+02 -0.51014543553E+02 -0.22489797383E+03  0.35223921895E+03  0.26347342376E+03 0.  0.
         25    1    4    4    0    0 -0.58784282644E+02 -0.13733106869E+02 -0.11976276425E+03  0.18339797684E+03  0.12509000000E+03 0.  0.
         25    1    4    4    0    0  0.20409290087E+02 -0.37281436684E+02 -0.10513520958E+03  0.16884124211E+03  0.12509000000E+03 0.  0.
         25    1    3    3    0    0  0.38374992557E+02  0.51014543553E+02  0.26778718429E+02  0.14296758922E+03  0.12509000000E+03 0.  0.
<mgrwt>
<rscale>  2 0.45384859E+03</rscale>
<asrwt>0</asrwt>
<pdfrwt beam="1">  1       21 0.21844673E-01 0.45384859E+03</pdfrwt>
<pdfrwt beam="2">  1       21 0.50979858E-01 0.45384859E+03</pdfrwt>
<totfact> 0.66211860E+04</totfact>
</mgrwt>
</event>
<event>
 7    0  0.4766352E-002  0.4576441E+03  0.7546771E-02  0.1025467E+00
         21   -1    0    0  502  501  0.00000000000E+00  0.00000000000E+00  0.78065524398E+02  0.78065524398E+02  0.00000000000E+00 0. -1.
         21   -1    0    0  501  502 -0.00000000000E+00 -0.00000000000E+00 -0.67071246451E+03  0.67071246451E+03  0.00000000000E+00 0. -1.
      99926    2    1    2    0    0  0.00000000000E+00  0.00000000000E+00 -0.59264694011E+03  0.74877798891E+03  0.45764405497E+03 0.  0.
      99925    2    3    3    0    0  0.13708226233E+02 -0.10242174912E+03 -0.28693643016E+03  0.40267893639E+03  0.26294425398E+03 0.  0.
         25    1    4    4    0    0  0.31601277348E+02 -0.77239315316E+02 -0.18486242088E+03  0.23829850045E+03  0.12509000000E+03 0.  0.
         25    1    3    3    0    0 -0.13708226233E+02  0.10242174912E+03 -0.30571050995E+03  0.34609905252E+03  0.12509000000E+03 0.  0.
         25    1    4    4    0    0 -0.17893051115E+02 -0.25182433804E+02 -0.10207400928E+03  0.16438043594E+03  0.12509000000E+03 0.  0.
<mgrwt>
<rscale>  2 0.45764405E+03</rscale>
<asrwt>0</asrwt>
<pdfrwt beam="1">  1       21 0.11480225E-01 0.45764405E+03</pdfrwt>
<pdfrwt beam="2">  1       21 0.98634183E-01 0.45764405E+03</pdfrwt>
<totfact> 0.49300781E+04</totfact>
</mgrwt>
</event>
<event>
 7    0  0.4766352E-002  0.4351424E+03  0.7546771E-02  0.1032248E+00
         21   -1    0    0  502  501  0.00000000000E+00  0.00000000000E+00  0.12986819080E+03  0.12986819080E+03  0.00000000000E+00 0. -1.
         21   -1    0    0  501  502 -0.00000000000E+00 -0.00000000000E+00 -0.36450212875E+03  0.36450212875E+03  0.00000000000E+00 0. -1.
      99926    2    1    2    0    0  0.00000000000E+00 -0.71054273576E-14 -0.23463393796E+03  0.49437031955E+03  0.43514242267E+03 0.  0.
      99925    2    3    3    0    0  0.69233141877E+01 -0.62023800147E+02 -0.22956247085E+03  0.35448425183E+03  0.26280272584E+03 0.  0.
         25    1    3    3    0    0 -0.69233141877E+01  0.62023800147E+02 -0.50714671114E+01  0.13988606772E+03  0.12509000000E+03 0.  0.
         25    1    4    4    0    0 -0.60435657990E+01 -0.51037892869E+02 -0.16291668818E+03  0.21173272440E+03  0.12509000000E+03 0.  0.
         25    1    4    4    0    0  0.12966879987E+02 -0.10985907278E+02 -0.66645782670E+02  0.14275152743E+03  0.12509000000E+03 0.  0.
<mgrwt>
<rscale>  2 0.43514242E+03</rscale>
<asrwt>0</asrwt>
<pdfrwt beam="1">  1       21 0.19098263E-01 0.43514242E+03</pdfrwt>
<pdfrwt beam="2">  1       21 0.53603254E-01 0.43514242E+03</pdfrwt>
<totfact> 0.77125537E+04</totfact>
</mgrwt>
</event>
<event>
 7    0  0.4766352E-002  0.4557655E+03  0.7546771E-02  0.1026017E+00
         21   -1    0    0  502  501  0.00000000000E+00  0.00000000000E+00  0.33034696498E+03  0.33034696498E+03  0.00000000000E+00 0. -1.
         21   -1    0    0  501  502 -0.00000000000E+00 -0.00000000000E+00 -0.15719998133E+03  0.15719998133E+03  0.00000000000E+00 0. -1.
      99926    2    1    2    0    0  0.14210854715E-13  0.14210854715E-13  0.17314698365E+03  0.48754694631E+03  0.45576545164E+03 0.  0.
      99925    2    3    3    0    0 -0.68146259082E+02 -0.90702323060E+02  0.98483306413E+02  0.30290405629E+03  0.26302296789E+03 0.  0.
         25    1    3    3    0    0  0.68146259082E+02  0.90702323060E+02  0.74663677240E+02  0.18464289002E+03  0.12509000000E+03 0.  0.
         25    1    4    4    0    0 -0.45527195624E+02 -0.68264552037E+02  0.17742633069E+02  0.15064887565E+03  0.12509000000E+03 0.  0.
         25    1    4    4    0    0 -0.22619063458E+02 -0.22437771024E+02  0.80740673344E+02  0.15225518064E+03  0.12509000000E+03 0.  0.
<mgrwt>
<rscale>  2 0.45576545E+03</rscale>
<asrwt>0</asrwt>
<pdfrwt beam="1">  1       21 0.48580436E-01 0.45576545E+03</pdfrwt>
<pdfrwt beam="2">  1       21 0.23117644E-01 0.45576545E+03</pdfrwt>
<totfact> 0.65754238E+04</totfact>
</mgrwt>
</event>
<event>
 7    0  0.4766352E-002  0.5357093E+03  0.7546771E-02  0.1004857E+00
         21   -1    0    0  502  501  0.00000000000E+00  0.00000000000E+00  0.42035558020E+03  0.42035558020E+03  0.00000000000E+00 0.  1.
         21   -1    0    0  501  502 -0.00000000000E+00 -0.00000000000E+00 -0.17067958372E+03  0.17067958372E+03  0.00000000000E+00 0.  1.
      99926    2    1    2    0    0  0.00000000000E+00 -0.13322676296E-14  0.24967599649E+03  0.59103516392E+03  0.53570930715E+03 0.  0.
      99925    2    3    3    0    0 -0.17669267144E+03 -0.12099361627E+01  0.17551217959E+03  0.36219123474E+03  0.26297566666E+03 0.  0.
         25    1    4    4    0    0 -0.60320296258E+02 -0.30420349119E+02  0.95643083101E+02  0.17134480799E+03  0.12509000000E+03 0.  0.
         25    1    3    3    0    0  0.17669267144E+03  0.12099361627E+01  0.74163816900E+02  0.22884392918E+03  0.12509000000E+03 0.  0.
         25    1    4    4    0    0 -0.11637237518E+03  0.29210412956E+02  0.79869096485E+02  0.19084642675E+03  0.12509000000E+03 0.  0.
<mgrwt>
<rscale>  2 0.53570931E+03</rscale>
<asrwt>0</asrwt>
<pdfrwt beam="1">  1       21 0.61816997E-01 0.53570931E+03</pdfrwt>
<pdfrwt beam="2">  1       21 0.25099939E-01 0.53570931E+03</pdfrwt>
<totfact> 0.32749151E+04</totfact>
</mgrwt>
</event>
<event>
 7    0  0.4766352E-002  0.4563202E+03  0.7546771E-02  0.1025854E+00
         21   -1    0    0  502  501  0.00000000000E+00  0.00000000000E+00  0.19545030919E+03  0.19545030919E+03  0.00000000000E+00 0.  1.
         21   -1    0    0  501  502 -0.00000000000E+00 -0.00000000000E+00 -0.26634409289E+03  0.26634409289E+03  0.00000000000E+00 0.  1.
      99926    2    1    2    0    0  0.35527136788E-14  0.00000000000E+00 -0.70893783704E+02  0.46179440208E+03  0.45632021785E+03 0.  0.
      99925    2    3    3    0    0  0.15699014139E+02  0.20022381502E+02  0.68273705285E+02  0.27294935211E+03  0.26304504401E+03 0.  0.
         25    1    4    4    0    0 -0.24181263252E+02 -0.33616277810E+01  0.55399238158E+02  0.13896984465E+03  0.12509000000E+03 0.  0.
         25    1    3    3    0    0 -0.15699014139E+02 -0.20022381502E+02 -0.13916748899E+03  0.18884504997E+03  0.12509000000E+03 0.  0.
         25    1    4    4    0    0  0.39880277391E+02  0.23384009283E+02  0.12874467127E+02  0.13397950746E+03  0.12509000000E+03 0.  0.
<mgrwt>
<rscale>  2 0.45632022E+03</rscale>
<asrwt>0</asrwt>
<pdfrwt beam="1">  1       21 0.28742693E-01 0.45632022E+03</pdfrwt>
<pdfrwt beam="2">  1       21 0.39168249E-01 0.45632022E+03</pdfrwt>
<totfact> 0.67338230E+04</totfact>
</mgrwt>
</event>
<event>
 7    0  0.4766352E-002  0.4473018E+03  0.7546771E-02  0.1028530E+00
         21   -1    0    0  502  501  0.00000000000E+00  0.00000000000E+00  0.41409177922E+03  0.41409177922E+03  0.00000000000E+00 0. -1.
         21   -1    0    0  501  502 -0.00000000000E+00 -0.00000000000E+00 -0.12079380216E+03  0.12079380216E+03  0.00000000000E+00 0. -1.
      99926    2    1    2    0    0  0.35527136788E-14  0.00000000000E+00  0.29329797705E+03  0.53488558138E+03  0.44730177937E+03 0.  0.
      99925    2    3    3    0    0  0.93135232618E+01  0.88409217372E+02  0.25405997360E+03  0.37648715826E+03  0.26323597535E+03 0.  0.
         25    1    3    3    0    0 -0.93135232618E+01 -0.88409217372E+02  0.39238003457E+02  0.15839842312E+03  0.12509000000E+03 0.  0.
         25    1    4    4    0    0 -0.33330398127E+02  0.33445398700E+02  0.13871439450E+03  0.19266214334E+03  0.12509000000E+03 0.  0.
         25    1    4    4    0    0  0.42643921389E+02  0.54963818672E+02  0.11534557910E+03  0.18382501492E+03  0.12509000000E+03 0.  0.
<mgrwt>
<rscale>  2 0.44730178E+03</rscale>
<asrwt>0</asrwt>
<pdfrwt beam="1">  1       21 0.60895850E-01 0.44730178E+03</pdfrwt>
<pdfrwt beam="2">  1       21 0.17763795E-01 0.44730178E+03</pdfrwt>
<totfact> 0.66857967E+04</totfact>
</mgrwt>
</event>
<event>
 7    0  0.4766352E-002  0.4468351E+03  0.7546771E-02  0.1028670E+00
         21   -1    0    0  502  501  0.00000000000E+00  0.00000000000E+00  0.10277673330E+04  0.10277673330E+04  0.00000000000E+00 0.  1.
         21   -1    0    0  501  502 -0.00000000000E+00 -0.00000000000E+00 -0.48566830110E+02  0.48566830110E+02  0.00000000000E+00 0.  1.
      99926    2    1    2    0    0  0.00000000000E+00  0.00000000000E+00  0.97920050292E+03  0.10763341631E+04  0.44683509914E+03 0.  0.
      99925    2    3    3    0    0  0.28103125259E+02  0.94985715031E+02  0.53026712291E+03  0.59988819612E+03  0.26243199974E+03 0.  0.
         25    1    4    4    0    0  0.15115376088E+02  0.81718720452E+02  0.23780631204E+03  0.28125748704E+03  0.12509000000E+03 0.  0.
         25    1    3    3    0    0 -0.28103125259E+02 -0.94985715031E+02  0.44893338001E+03  0.47644596702E+03  0.12509000000E+03 0.  0.
         25    1    4    4    0    0  0.12987749171E+02  0.13266994579E+02  0.29246081087E+03  0.31863070908E+03  0.12509000000E+03 0.  0.
<mgrwt>
<rscale>  2 0.44683510E+03</rscale>
<asrwt>0</asrwt>
<pdfrwt beam="1">  1       21 0.15114224E+00 0.44683510E+03</pdfrwt>
<pdfrwt beam="2">  1       21 0.71421815E-02 0.44683510E+03</pdfrwt>
<totfact> 0.38735341E+04</totfact>
</mgrwt>
</event>
<event>
 7    0  0.4766352E-002  0.4567971E+03  0.7546771E-02  0.1025714E+00
         21   -1    0    0  502  501  0.00000000000E+00  0.00000000000E+00  0.82909877441E+02  0.82909877441E+02  0.00000000000E+00 0. -1.
         21   -1    0    0  501  502 -0.00000000000E+00 -0.00000000000E+00 -0.62918805292E+03  0.62918805292E+03  0.00000000000E+00 0. -1.
      99926    2    1    2    0    0  0.00000000000E+00  0.71054273576E-14 -0.54627817548E+03  0.71209793036E+03  0.45679712939E+03 0.  0.
      99925    2    3    3    0    0  0.91147904479E+02 -0.52935042387E+02 -0.41433055635E+03  0.50193670298E+03  0.26298400077E+03 0.  0.
         25    1    4    4    0    0  0.43385105858E+02 -0.20179019894E+02 -0.27532263012E+03  0.30616910199E+03  0.12509000000E+03 0.  0.
         25    1    4    4    0    0  0.47762798621E+02 -0.32756022492E+02 -0.13900792623E+03  0.19576760099E+03  0.12509000000E+03 0.  0.
         25    1    3    3    0    0 -0.91147904479E+02  0.52935042387E+02 -0.13194761913E+03  0.21016122739E+03  0.12509000000E+03 0.  0.
<mgrwt>
<rscale>  2 0.45679713E+03</rscale>
<asrwt>0</asrwt>
<pdfrwt beam="1">  1       21 0.12192629E-01 0.45679713E+03</pdfrwt>
<pdfrwt beam="2">  1       21 0.92527653E-01 0.45679713E+03</pdfrwt>
<totfact> 0.51518783E+04</totfact>
</mgrwt>
</event>
<event>
 7    0  0.4766352E-002  0.4607190E+03  0.7546771E-02  0.1024573E+00
         21   -1    0    0  502  501  0.00000000000E+00  0.00000000000E+00  0.10943953887E+03  0.10943953887E+03  0.00000000000E+00 0. -1.
         21   -1    0    0  501  502 -0.00000000000E+00 -0.00000000000E+00 -0.48488414899E+03  0.48488414899E+03  0.00000000000E+00 0. -1.
      99926    2    1    2    0    0 -0.35527136788E-14  0.00000000000E+00 -0.37544461012E+03  0.59432368786E+03  0.46071899318E+03 0.  0.
      99925    2    3    3    0    0 -0.98082743326E+01  0.13845100834E+02 -0.38633617813E+03  0.46761921510E+03  0.26291481270E+03 0.  0.
         25    1    3    3    0    0  0.98082743326E+01 -0.13845100834E+02  0.10891568007E+02  0.12670447276E+03  0.12509000000E+03 0.  0.
         25    1    4    4    0    0  0.28765873405E+02 -0.14989204497E+02 -0.19860972872E+03  0.23695038334E+03  0.12509000000E+03 0.  0.
         25    1    4    4    0    0 -0.38574147738E+02  0.28834305331E+02 -0.18772644941E+03  0.23066883176E+03  0.12509000000E+03 0.  0.
<mgrwt>
<rscale>  2 0.46071899E+03</rscale>
<asrwt>0</asrwt>
<pdfrwt beam="1">  1       21 0.16094050E-01 0.46071899E+03</pdfrwt>
<pdfrwt beam="2">  1       21 0.71306492E-01 0.46071899E+03</pdfrwt>
<totfact> 0.56434831E+04</totfact>
</mgrwt>
</event>
<event>
 7    0  0.4766352E-002  0.4593126E+03  0.7546771E-02  0.1024981E+00
         21   -1    0    0  502  501  0.00000000000E+00  0.00000000000E+00  0.49218136568E+02  0.49218136568E+02  0.00000000000E+00 0.  1.
         21   -1    0    0  501  502 -0.00000000000E+00 -0.00000000000E+00 -0.10715970828E+04  0.10715970828E+04  0.00000000000E+00 0.  1.
      99926    2    1    2    0    0 -0.71054273576E-14  0.00000000000E+00 -0.10223789462E+04  0.11208152194E+04  0.45931258013E+03 0.  0.
      99925    2    3    3    0    0 -0.35892143696E+02 -0.94212298109E+02 -0.49521368558E+03  0.56971185045E+03  0.26300341265E+03 0.  0.
         25    1    3    3    0    0  0.35892143696E+02  0.94212298109E+02 -0.52716526066E+03  0.55110336892E+03  0.12509000000E+03 0.  0.
         25    1    4    4    0    0  0.12191232970E+02 -0.65201227816E+02 -0.21032150339E+03  0.25353987686E+03  0.12509000000E+03 0.  0.
         25    1    4    4    0    0 -0.48083376666E+02 -0.29011070293E+02 -0.28489218218E+03  0.31617197358E+03  0.12509000000E+03 0.  0.
<mgrwt>
<rscale>  2 0.45931258E+03</rscale>
<asrwt>0</asrwt>
<pdfrwt beam="1">  1       21 0.72379617E-02 0.45931258E+03</pdfrwt>
<pdfrwt beam="2">  1       21 0.15758780E+00 0.45931258E+03</pdfrwt>
<totfact> 0.33626955E+04</totfact>
</mgrwt>
</event>
<event>
 7    0  0.4766352E-002  0.4654823E+03  0.7546771E-02  0.1023203E+00
         21   -1    0    0  502  501  0.00000000000E+00  0.00000000000E+00  0.69060633945E+02  0.69060633945E+02  0.00000000000E+00 0. -1.
         21   -1    0    0  501  502 -0.00000000000E+00 -0.00000000000E+00 -0.78436078840E+03  0.78436078840E+03  0.00000000000E+00 0. -1.
      99926    2    1    2    0    0  0.88817841970E-15  0.00000000000E+00 -0.71530015445E+03  0.85342142234E+03  0.46548234462E+03 0.  0.
      99925    2    3    3    0    0  0.72107450952E+01  0.87690299337E+02 -0.60283233337E+03  0.66358438085E+03  0.26305099299E+03 0.  0.
         25    1    3    3    0    0 -0.72107450952E+01 -0.87690299337E+02 -0.11246782108E+03  0.18983704149E+03  0.12509000000E+03 0.  0.
         25    1    4    4    0    0 -0.65753236105E+01  0.11706929865E+02 -0.33850209988E+03  0.36112527856E+03  0.12509000000E+03 0.  0.
         25    1    4    4    0    0  0.13786068706E+02  0.75983369473E+02 -0.26433023349E+03  0.30245910230E+03  0.12509000000E+03 0.  0.
<mgrwt>
<rscale>  2 0.46548234E+03</rscale>
<asrwt>0</asrwt>
<pdfrwt beam="1">  1       21 0.10155975E-01 0.46548234E+03</pdfrwt>
<pdfrwt beam="2">  1       21 0.11534718E+00 0.46548234E+03</pdfrwt>
<totfact> 0.41746609E+04</totfact>
</mgrwt>
</event>
<event>
 7    0  0.4766352E-002  0.4544187E+03  0.7546771E-02  0.1026412E+00
         21   -1    0    0  502  501  0.00000000000E+00  0.00000000000E+00  0.31647859238E+02  0.31647859238E+02  0.00000000000E+00 0.  1.
         21   -1    0    0  501  502 -0.00000000000E+00 -0.00000000000E+00 -0.16312034253E+04  0.16312034253E+04  0.00000000000E+00 0.  1.
      99926    2    1    2    0    0  0.00000000000E+00  0.00000000000E+00 -0.15995555660E+04  0.16628512845E+04  0.45441873373E+03 0.  0.
      99925    2    3    3    0    0  0.75425217734E+02  0.16955345229E+02 -0.70777049868E+03  0.75902355664E+03  0.26306127335E+03 0.  0.
         25    1    4    4    0    0  0.51859197190E+02  0.24544163377E+02 -0.26986656020E+03  0.30293111544E+03  0.12509000000E+03 0.  0.
         25    1    4    4    0    0  0.23566020543E+02 -0.75888181473E+01 -0.43790393848E+03  0.45609244120E+03  0.12509000000E+03 0.  0.
         25    1    3    3    0    0 -0.75425217734E+02 -0.16955345229E+02 -0.89178506734E+03  0.90382772785E+03  0.12509000000E+03 0.  0.
<mgrwt>
<rscale>  2 0.45441873E+03</rscale>
<asrwt>0</asrwt>
<pdfrwt beam="1">  1       21 0.46540956E-02 0.45441873E+03</pdfrwt>
<pdfrwt beam="2">  1       21 0.23988293E+00 0.45441873E+03</pdfrwt>
<totfact> 0.20136785E+04</totfact>
</mgrwt>
</event>
<event>
 7    0  0.4766352E-002  0.4552276E+03  0.7546771E-02  0.1026174E+00
         21   -1    0    0  502  501  0.00000000000E+00  0.00000000000E+00  0.40614176917E+02  0.40614176917E+02  0.00000000000E+00 0. -1.
         21   -1    0    0  501  502 -0.00000000000E+00 -0.00000000000E+00 -0.12756146566E+04  0.12756146566E+04  0.00000000000E+00 0. -1.
      99926    2    1    2    0    0  0.00000000000E+00  0.00000000000E+00 -0.12350004796E+04  0.13162288335E+04  0.45522758853E+03 0.  0.
      99925    2    3    3    0    0  0.89847062169E+02 -0.68272418365E+02 -0.74684034830E+03  0.79981675033E+03  0.26306408072E+03 0.  0.
         25    1    3    3    0    0 -0.89847062169E+02  0.68272418365E+02 -0.48816013134E+03  0.51641208315E+03  0.12509000000E+03 0.  0.
         25    1    4    4    0    0  0.27311340728E+02 -0.83639737636E+01 -0.26318647075E+03  0.29279769787E+03  0.12509000000E+03 0.  0.
         25    1    4    4    0    0  0.62535721441E+02 -0.59908444601E+02 -0.48365387755E+03  0.50701905246E+03  0.12509000000E+03 0.  0.
<mgrwt>
<rscale>  2 0.45522759E+03</rscale>
<asrwt>0</asrwt>
<pdfrwt beam="1">  1       21 0.59726733E-02 0.45522759E+03</pdfrwt>
<pdfrwt beam="2">  1       21 0.18759038E+00 0.45522759E+03</pdfrwt>
<totfact> 0.28596354E+04</totfact>
</mgrwt>
</event>
<event>
 7    0  0.4766352E-002  0.4266576E+03  0.7546771E-02  0.1034921E+00
         21   -1    0    0  502  501  0.00000000000E+00  0.00000000000E+00  0.35444807909E+03  0.35444807909E+03  0.00000000000E+00 0.  1.
         21   -1    0    0  501  502 -0.00000000000E+00 -0.00000000000E+00 -0.12839448497E+03  0.12839448497E+03  0.00000000000E+00 0.  1.
      99926    2    1    2    0    0 -0.17763568394E-14 -0.88817841970E-15  0.22605359412E+03  0.48284256406E+03  0.42665760775E+03 0.  0.
      99925    2    3    3    0    0  0.14947741057E+02 -0.41361966590E+01  0.23953992386E+03  0.35607532746E+03  0.26300136999E+03 0.  0.
         25    1    3    3    0    0 -0.14947741057E+02  0.41361966590E+01 -0.13486329740E+02  0.12676723660E+03  0.12509000000E+03 0.  0.
         25    1    4    4    0    0 -0.30167562466E+02 -0.15507439025E+02  0.12768456623E+03  0.18193795383E+03  0.12509000000E+03 0.  0.
         25    1    4    4    0    0  0.45115303522E+02  0.11371242366E+02  0.11185535763E+03  0.17413737363E+03  0.12509000000E+03 0.  0.
<mgrwt>
<rscale>  2 0.42665761E+03</rscale>
<asrwt>0</asrwt>
<pdfrwt beam="1">  1       21 0.52124717E-01 0.42665761E+03</pdfrwt>
<pdfrwt beam="2">  1       21 0.18881542E-01 0.42665761E+03</pdfrwt>
<totfact> 0.83823342E+04</totfact>
</mgrwt>
</event>
<event>
 7    0  0.4766352E-002  0.5161981E+03  0.7546771E-02  0.1009635E+00
         21   -1    0    0  502  501  0.00000000000E+00  0.00000000000E+00  0.53702569779E+03  0.53702569779E+03  0.00000000000E+00 0. -1.
         21   -1    0    0  501  502 -0.00000000000E+00 -0.00000000000E+00 -0.12404457789E+03  0.12404457789E+03  0.00000000000E+00 0. -1.
      99926    2    1    2    0    0  0.00000000000E+00  0.35527136788E-14  0.41298111990E+03  0.66107027568E+03  0.51619812475E+03 0.  0.
      99925    2    3    3    0    0  0.15204981184E+03  0.28406901729E+02  0.31787294680E+03  0.44057272459E+03  0.26293538749E+03 0.  0.
         25    1    3    3    0    0 -0.15204981184E+03 -0.28406901729E+02  0.95108173094E+02  0.22049755109E+03  0.12509000000E+03 0.  0.
         25    1    4    4    0    0  0.11857801403E+03  0.14464133017E+02  0.15705649219E+03  0.23363263127E+03  0.12509000000E+03 0.  0.
         25    1    4    4    0    0  0.33471797810E+02  0.13942768712E+02  0.16081645462E+03  0.20694009332E+03  0.12509000000E+03 0.  0.
<mgrwt>
<rscale>  2 0.51619812E+03</rscale>
<asrwt>0</asrwt>
<pdfrwt beam="1">  1       21 0.78974366E-01 0.51619812E+03</pdfrwt>
<pdfrwt beam="2">  1       21 0.18241850E-01 0.51619812E+03</pdfrwt>
<totfact> 0.34907161E+04</totfact>
</mgrwt>
</event>
<event>
 6    0  0.4766352E-002  0.4499952E+03  0.7546771E-02  0.1027723E+00
         21   -1    0    0  502  501  0.00000000000E+00  0.00000000000E+00  0.43188551421E+03  0.43188551421E+03  0.00000000000E+00 0.  1.
         21   -1    0    0  501  502 -0.00000000000E+00 -0.00000000000E+00 -0.11721606142E+03  0.11721606142E+03  0.00000000000E+00 0.  1.
      99926    2    1    2    0    0 -0.35527136788E-14  0.00000000000E+00  0.31466945279E+03  0.54910157564E+03  0.44999519536E+03 0.  0.
         25    1    3    3    0    0  0.24473508665E+02 -0.91811320953E+02  0.88384354299E+02  0.18024309547E+03  0.12509000000E+03 0.  0.
         25    1    3    3    0    0  0.14141764701E+02  0.55717540139E+01  0.57524053903E+02  0.13851916412E+03  0.12509000000E+03 0.  0.
         25    1    3    3    0    0 -0.38615273366E+02  0.86239566939E+02  0.16876104459E+03  0.23033931604E+03  0.12509000000E+03 0.  0.
<mgrwt>
<rscale>  2 0.44999520E+03</rscale>
<asrwt>0</asrwt>
<pdfrwt beam="1">  1       21 0.63512575E-01 0.44999520E+03</pdfrwt>
<pdfrwt beam="2">  1       21 0.17237656E-01 0.44999520E+03</pdfrwt>
<totfact> 0.64439961E+04</totfact>
</mgrwt>
</event>
<event>
 7    0  0.4766352E-002  0.4548805E+03  0.7546771E-02  0.1026277E+00
         21   -1    0    0  502  501  0.00000000000E+00  0.00000000000E+00  0.20596468452E+04  0.20596468452E+04  0.00000000000E+00 0.  1.
         21   -1    0    0  501  502 -0.00000000000E+00 -0.00000000000E+00 -0.25115505911E+02  0.25115505911E+02  0.00000000000E+00 0.  1.
      99926    2    1    2    0    0  0.00000000000E+00  0.88817841970E-15  0.20345313393E+04  0.20847623511E+04  0.45488052284E+03 0.  0.
      99925    2    3    3    0    0 -0.50752395317E+02  0.33468087672E+01  0.81924744401E+03  0.86199930744E+03  0.26322884481E+03 0.  0.
         25    1    4    4    0    0  0.16121162873E+01 -0.22038968939E+02  0.45848149485E+03  0.47575319683E+03  0.12509000000E+03 0.  0.
         25    1    4    4    0    0 -0.52364511605E+02  0.25385777707E+02  0.36076594916E+03  0.38624611061E+03  0.12509000000E+03 0.  0.
         25    1    3    3    0    0  0.50752395317E+02 -0.33468087672E+01  0.12152838953E+04  0.12227630437E+04  0.12509000000E+03 0.  0.
<mgrwt>
<rscale>  2 0.45488052E+03</rscale>
<asrwt>0</asrwt>
<pdfrwt beam="1">  1       21 0.30288913E+00 0.45488052E+03</pdfrwt>
<pdfrwt beam="2">  1       21 0.36934582E-02 0.45488052E+03</pdfrwt>
<totfact> 0.12386423E+04</totfact>
</mgrwt>
</event>
<event>
 7    0  0.4766352E-002  0.4004061E+03  0.7546771E-02  0.1043639E+00
         21   -1    0    0  502  501  0.00000000000E+00  0.00000000000E+00  0.10336576130E+03  0.10336576130E+03  0.00000000000E+00 0.  1.
         21   -1    0    0  501  502 -0.00000000000E+00 -0.00000000000E+00 -0.38776149191E+03  0.38776149191E+03  0.00000000000E+00 0.  1.
      99926    2    1    2    0    0  0.00000000000E+00  0.00000000000E+00 -0.28439573061E+03  0.49112725321E+03  0.40040610291E+03 0.  0.
      99925    2    3    3    0    0  0.17697687374E+02 -0.27442974758E+01 -0.24206485955E+03  0.35786004024E+03  0.26295945099E+03 0.  0.
         25    1    3    3    0    0 -0.17697687374E+02  0.27442974758E+01 -0.42330871059E+02  0.13326721297E+03  0.12509000000E+03 0.  0.
         25    1    4    4    0    0 -0.43107411947E+01 -0.33916618202E+02 -0.14793678038E+03  0.19672752367E+03  0.12509000000E+03 0.  0.
         25    1    4    4    0    0  0.22008428569E+02  0.31172320727E+02 -0.94128079174E+02  0.16113251657E+03  0.12509000000E+03 0.  0.
<mgrwt>
<rscale>  2 0.40040610E+03</rscale>
<asrwt>0</asrwt>
<pdfrwt beam="1">  1       21 0.15200847E-01 0.40040610E+03</pdfrwt>
<pdfrwt beam="2">  1       21 0.57023749E-01 0.40040610E+03</pdfrwt>
<totfact> 0.10421892E+05</totfact>
</mgrwt>
</event>
<event>
 7    0  0.4766352E-002  0.4460104E+03  0.7546771E-02  0.1028919E+00
         21   -1    0    0  502  501  0.00000000000E+00  0.00000000000E+00  0.99984809479E+02  0.99984809479E+02  0.00000000000E+00 0. -1.
         21   -1    0    0  501  502 -0.00000000000E+00 -0.00000000000E+00 -0.49738867269E+03  0.49738867269E+03  0.00000000000E+00 0. -1.
      99926    2    1    2    0    0 -0.14210854715E-13  0.00000000000E+00 -0.39740386321E+03  0.59737348217E+03  0.44601036614E+03 0.  0.
      99925    2    3    3    0    0 -0.71959317199E+02 -0.52814370465E+02 -0.17933500066E+03  0.33059822474E+03  0.26299551837E+03 0.  0.
         25    1    3    3    0    0  0.71959317199E+02  0.52814370465E+02 -0.21806886256E+03  0.26677525743E+03  0.12509000000E+03 0.  0.
         25    1    4    4    0    0 -0.64727446154E+02 -0.15375761973E+02 -0.12516625221E+03  0.18905066816E+03  0.12509000000E+03 0.  0.
         25    1    4    4    0    0 -0.72318710444E+01 -0.37438608492E+02 -0.54168748448E+02  0.14154755658E+03  0.12509000000E+03 0.  0.
<mgrwt>
<rscale>  2 0.44601037E+03</rscale>
<asrwt>0</asrwt>
<pdfrwt beam="1">  1       21 0.14703648E-01 0.44601037E+03</pdfrwt>
<pdfrwt beam="2">  1       21 0.73145393E-01 0.44601037E+03</pdfrwt>
<totfact> 0.63212058E+04</totfact>
</mgrwt>
</event>
<event>
 7    0  0.4766352E-002  0.4207070E+03  0.7546771E-02  0.1036836E+00
         21   -1    0    0  502  501  0.00000000000E+00  0.00000000000E+00  0.73446368963E+02  0.73446368963E+02  0.00000000000E+00 0.  1.
         21   -1    0    0  501  502 -0.00000000000E+00 -0.00000000000E+00 -0.60246118329E+03  0.60246118329E+03  0.00000000000E+00 0.  1.
      99926    2    1    2    0    0  0.00000000000E+00  0.00000000000E+00 -0.52901481432E+03  0.67590755225E+03  0.42070695908E+03 0.  0.
      99925    2    3    3    0    0 -0.30505255430E+02  0.15912926020E+02 -0.45458475151E+03  0.52633772182E+03  0.26305951662E+03 0.  0.
         25    1    4    4    0    0  0.18854503633E+02  0.29447141638E+02 -0.21115279511E+03  0.24790247567E+03  0.12509000000E+03 0.  0.
         25    1    3    3    0    0  0.30505255430E+02 -0.15912926020E+02 -0.74430062814E+02  0.14956983043E+03  0.12509000000E+03 0.  0.
         25    1    4    4    0    0 -0.49359759064E+02 -0.13534215618E+02 -0.24343195640E+03  0.27843524616E+03  0.12509000000E+03 0.  0.
<mgrwt>
<rscale>  2 0.42070696E+03</rscale>
<asrwt>0</asrwt>
<pdfrwt beam="1">  1       21 0.10800937E-01 0.42070696E+03</pdfrwt>
<pdfrwt beam="2">  1       21 0.88597232E-01 0.42070696E+03</pdfrwt>
<totfact> 0.71725687E+04</totfact>
</mgrwt>
</event>
<event>
 7    0  0.4766352E-002  0.4478848E+03  0.7546771E-02  0.1028355E+00
         21   -1    0    0  502  501  0.00000000000E+00  0.00000000000E+00  0.22534271244E+03  0.22534271244E+03  0.00000000000E+00 0. -1.
         21   -1    0    0  501  502 -0.00000000000E+00 -0.00000000000E+00 -0.22255077014E+03  0.22255077014E+03  0.00000000000E+00 0. -1.
      99926    2    1    2    0    0  0.00000000000E+00 -0.35527136788E-14  0.27919423029E+01  0.44789348258E+03  0.44788478071E+03 0.  0.
      99925    2    3    3    0    0 -0.97848016405E+02 -0.20306409372E+02  0.38293309390E+02  0.28389823953E+03  0.26295484078E+03 0.  0.
         25    1    3    3    0    0  0.97848016405E+02  0.20306409372E+02 -0.35501367087E+02  0.16399524304E+03  0.12509000000E+03 0.  0.
         25    1    4    4    0    0 -0.61605141683E+02 -0.35338387839E+02 -0.99862866998E+01  0.14419164039E+03  0.12509000000E+03 0.  0.
         25    1    4    4    0    0 -0.36242874722E+02  0.15031978467E+02  0.48279596090E+02  0.13970659914E+03  0.12509000000E+03 0.  0.
<mgrwt>
<rscale>  2 0.44788478E+03</rscale>
<asrwt>0</asrwt>
<pdfrwt beam="1">  1       21 0.33138634E-01 0.44788478E+03</pdfrwt>
<pdfrwt beam="2">  1       21 0.32728054E-01 0.44788478E+03</pdfrwt>
<totfact> 0.73134197E+04</totfact>
</mgrwt>
</event>
<event>
 7    0  0.4766352E-002  0.4470083E+03  0.7546771E-02  0.1028618E+00
         21   -1    0    0  502  501  0.00000000000E+00  0.00000000000E+00  0.91884937585E+02  0.91884937585E+02  0.00000000000E+00 0.  1.
         21   -1    0    0  501  502 -0.00000000000E+00 -0.00000000000E+00 -0.54365924073E+03  0.54365924073E+03  0.00000000000E+00 0.  1.
      99926    2    1    2    0    0  0.00000000000E+00  0.00000000000E+00 -0.45177430315E+03  0.63554417832E+03  0.44700825676E+03 0.  0.
      99925    2    3    3    0    0  0.10394048423E+02  0.90318111231E+02 -0.21045510139E+03  0.34892969387E+03  0.26304977495E+03 0.  0.
         25    1    4    4    0    0  0.25309156284E+02  0.45592085248E+02 -0.61622552273E+02  0.14887591705E+03  0.12509000000E+03 0.  0.
         25    1    3    3    0    0 -0.10394048423E+02 -0.90318111231E+02 -0.24131920176E+03  0.28661448445E+03  0.12509000000E+03 0.  0.
         25    1    4    4    0    0 -0.14915107861E+02  0.44726025983E+02 -0.14883254911E+03  0.20005377682E+03  0.12509000000E+03 0.  0.
<mgrwt>
<rscale>  2 0.44700826E+03</rscale>
<asrwt>0</asrwt>
<pdfrwt beam="1">  1       21 0.13512491E-01 0.44700826E+03</pdfrwt>
<pdfrwt beam="2">  1       21 0.79949887E-01 0.44700826E+03</pdfrwt>
<totfact> 0.60253408E+04</totfact>
</mgrwt>
</event>
<event>
 7    0  0.4766352E-002  0.4505790E+03  0.7546771E-02  0.1027550E+00
         21   -1    0    0  502  501  0.00000000000E+00  0.00000000000E+00  0.52003596550E+03  0.52003596550E+03  0.00000000000E+00 0.  1.
         21   -1    0    0  501  502 -0.00000000000E+00 -0.00000000000E+00 -0.97599711355E+02  0.97599711355E+02  0.00000000000E+00 0.  1.
      99926    2    1    2    0    0  0.00000000000E+00  0.00000000000E+00  0.42243625414E+03  0.61763567685E+03  0.45057900584E+03 0.  0.
      99925    2    3    3    0    0  0.14392490085E+02 -0.78859907435E+02  0.36805877932E+03  0.45942554241E+03  0.26301812716E+03 0.  0.
         25    1    3    3    0    0 -0.14392490085E+02  0.78859907435E+02  0.54377474820E+02  0.15821013444E+03  0.12509000000E+03 0.  0.
         25    1    4    4    0    0  0.22756994828E+02 -0.39792640722E+02  0.24790407163E+03  0.28143431188E+03  0.12509000000E+03 0.  0.
         25    1    4    4    0    0 -0.83645047426E+01 -0.39067266712E+02  0.12015470769E+03  0.17799123054E+03  0.12509000000E+03 0.  0.
<mgrwt>
<rscale>  2 0.45057901E+03</rscale>
<asrwt>0</asrwt>
<pdfrwt beam="1">  1       21 0.76475876E-01 0.45057901E+03</pdfrwt>
<pdfrwt beam="2">  1       21 0.14352899E-01 0.45057901E+03</pdfrwt>
<totfact> 0.59661452E+04</totfact>
</mgrwt>
</event>
<event>
 7    0  0.4766352E-002  0.4546677E+03  0.7546771E-02  0.1026339E+00
         21   -1    0    0  502  501  0.00000000000E+00  0.00000000000E+00  0.20629228213E+03  0.20629228213E+03  0.00000000000E+00 0. -1.
         21   -1    0    0  501  502 -0.00000000000E+00 -0.00000000000E+00 -0.25052163279E+03  0.25052163279E+03  0.00000000000E+00 0. -1.
      99926    2    1    2    0    0  0.00000000000E+00  0.00000000000E+00 -0.44229350657E+02  0.45681391492E+03  0.45466769998E+03 0.  0.
      99925    2    3    3    0    0 -0.67474040239E+02  0.38626100565E+02  0.54044087007E+02  0.27975488973E+03  0.26324382849E+03 0.  0.
         25    1    3    3    0    0  0.67474040239E+02 -0.38626100565E+02 -0.98273437663E+02  0.17705902519E+03  0.12509000000E+03 0.  0.
         25    1    4    4    0    0 -0.38500800109E+02  0.20224907237E+02 -0.14184657354E+02  0.13319185818E+03  0.12509000000E+03 0.  0.
         25    1    4    4    0    0 -0.28973240130E+02  0.18401193329E+02  0.68228744361E+02  0.14656303155E+03  0.12509000000E+03 0.  0.
<mgrwt>
<rscale>  2 0.45466770E+03</rscale>
<asrwt>0</asrwt>
<pdfrwt beam="1">  1       21 0.30337100E-01 0.45466770E+03</pdfrwt>
<pdfrwt beam="2">  1       21 0.36841416E-01 0.45466770E+03</pdfrwt>
<totfact> 0.68594794E+04</totfact>
</mgrwt>
</event>
<event>
 7    0  0.4766352E-002  0.4497216E+03  0.7546771E-02  0.1027805E+00
         21   -1    0    0  502  501  0.00000000000E+00  0.00000000000E+00  0.14902267266E+04  0.14902267266E+04  0.00000000000E+00 0.  1.
         21   -1    0    0  501  502 -0.00000000000E+00 -0.00000000000E+00 -0.33929320902E+02  0.33929320902E+02  0.00000000000E+00 0.  1.
      99926    2    1    2    0    0  0.00000000000E+00  0.00000000000E+00  0.14562974057E+04  0.15241560475E+04  0.44972160644E+03 0.  0.
      99925    2    3    3    0    0  0.65027055416E+02  0.63975336552E+02  0.11162560338E+04  0.11505292225E+04  0.26337918923E+03 0.  0.
         25    1    4    4    0    0 -0.24516399777E+01  0.52806568461E+02  0.51538869492E+03  0.53297988626E+03  0.12509000000E+03 0.  0.
         25    1    4    4    0    0  0.67478695393E+02  0.11168768091E+02  0.60086733887E+03  0.61754933628E+03  0.12509000000E+03 0.  0.
         25    1    3    3    0    0 -0.65027055416E+02 -0.63975336552E+02  0.34004137191E+03  0.37362682497E+03  0.12509000000E+03 0.  0.
<mgrwt>
<rscale>  2 0.44972161E+03</rscale>
<asrwt>0</asrwt>
<pdfrwt beam="1">  1       21 0.21915095E+00 0.44972161E+03</pdfrwt>
<pdfrwt beam="2">  1       21 0.49896070E-02 0.44972161E+03</pdfrwt>
<totfact> 0.24169034E+04</totfact>
</mgrwt>
</event>
<event>
 7    0  0.4766352E-002  0.4539423E+03  0.7546771E-02  0.1026553E+00
         21   -1    0    0  502  501  0.00000000000E+00  0.00000000000E+00  0.40059480683E+03  0.40059480683E+03  0.00000000000E+00 0.  1.
         21   -1    0    0  501  502 -0.00000000000E+00 -0.00000000000E+00 -0.12859854968E+03  0.12859854968E+03  0.00000000000E+00 0.  1.
      99926    2    1    2    0    0  0.00000000000E+00 -0.71054273576E-14  0.27199625715E+03  0.52919335651E+03  0.45394233629E+03 0.  0.
      99925    2    3    3    0    0  0.97335571784E+02 -0.55333356989E+02  0.16220618597E+03  0.32860082983E+03  0.26292901070E+03 0.  0.
         25    1    3    3    0    0 -0.97335571784E+02  0.55333356989E+02  0.10979007118E+03  0.20059252668E+03  0.12509000000E+03 0.  0.
         25    1    4    4    0    0  0.22722452104E+02  0.57594030534E+00  0.50887800299E+02  0.13694421439E+03  0.12509000000E+03 0.  0.
         25    1    4    4    0    0  0.74613119681E+02 -0.55909297294E+02  0.11131838567E+03  0.19165661544E+03  0.12509000000E+03 0.  0.
<mgrwt>
<rscale>  2 0.45394234E+03</rscale>
<asrwt>0</asrwt>
<pdfrwt beam="1">  1       21 0.58911001E-01 0.45394234E+03</pdfrwt>
<pdfrwt beam="2">  1       21 0.18911552E-01 0.45394234E+03</pdfrwt>
<totfact> 0.63794287E+04</totfact>
</mgrwt>
</event>
<event>
 7    0  0.4766352E-002  0.4629211E+03  0.7546771E-02  0.1023937E+00
         21   -1    0    0  502  501  0.00000000000E+00  0.00000000000E+00  0.12499656739E+04  0.12499656739E+04  0.00000000000E+00 0.  1.
         21   -1    0    0  501  502 -0.00000000000E+00 -0.00000000000E+00 -0.42860374263E+02  0.42860374263E+02  0.00000000000E+00 0.  1.
      99926    2    1    2    0    0  0.00000000000E+00  0.88817841970E-15  0.12071052996E+04  0.12928260481E+04  0.46292114490E+03 0.  0.
      99925    2    3    3    0    0 -0.94781523627E+02  0.74608088279E+01  0.54732827397E+03  0.61459862865E+03  0.26291449932E+03 0.  0.
         25    1    3    3    0    0  0.94781523627E+02 -0.74608088279E+01  0.65977702563E+03  0.67822741949E+03  0.12509000000E+03 0.  0.
         25    1    4    4    0    0 -0.21894922869E+02  0.97358072752E+00  0.32789498773E+03  0.35162901841E+03  0.12509000000E+03 0.  0.
         25    1    4    4    0    0 -0.72886600758E+02  0.64872281003E+01  0.21943328624E+03  0.26296961024E+03  0.12509000000E+03 0.  0.
<mgrwt>
<rscale>  2 0.46292114E+03</rscale>
<asrwt>0</asrwt>
<pdfrwt beam="1">  1       21 0.18381846E+00 0.46292114E+03</pdfrwt>
<pdfrwt beam="2">  1       21 0.63029970E-02 0.46292114E+03</pdfrwt>
<totfact> 0.27584124E+04</totfact>
</mgrwt>
</event>
<event>
 7    0  0.4766352E-002  0.4453952E+03  0.7546771E-02  0.1029104E+00
         21   -1    0    0  502  501  0.00000000000E+00  0.00000000000E+00  0.35916804136E+03  0.35916804136E+03  0.00000000000E+00 0.  1.
         21   -1    0    0  501  502 -0.00000000000E+00 -0.00000000000E+00 -0.13808084855E+03  0.13808084855E+03  0.00000000000E+00 0.  1.
      99926    2    1    2    0    0  0.14210854715E-13  0.15265566589E-15  0.22108719281E+03  0.49724888992E+03  0.44539523089E+03 0.  0.
      99925    2    3    3    0    0  0.64089068449E+02  0.96021291194E-01  0.48978838527E+02  0.27504130312E+03  0.26294747362E+03 0.  0.
         25    1    3    3    0    0 -0.64089068449E+02 -0.96021291194E-01  0.17210835428E+03  0.22220758680E+03  0.12509000000E+03 0.  0.
         25    1    4    4    0    0  0.71901264167E+02  0.22508024110E+01  0.14454938464E+02  0.14502176129E+03  0.12509000000E+03 0.  0.
         25    1    4    4    0    0 -0.78121957181E+01 -0.21547811198E+01  0.34523900063E+02  0.13001954184E+03  0.12509000000E+03 0.  0.
<mgrwt>
<rscale>  2 0.44539523E+03</rscale>
<asrwt>0</asrwt>
<pdfrwt beam="1">  1       21 0.52818829E-01 0.44539523E+03</pdfrwt>
<pdfrwt beam="2">  1       21 0.20306007E-01 0.44539523E+03</pdfrwt>
<totfact> 0.70702881E+04</totfact>
</mgrwt>
</event>
<event>
 7    0  0.4766352E-002  0.4521342E+03  0.7546771E-02  0.1027088E+00
         21   -1    0    0  502  501  0.00000000000E+00  0.00000000000E+00  0.72728073826E+03  0.72728073826E+03  0.00000000000E+00 0.  1.
         21   -1    0    0  501  502 -0.00000000000E+00 -0.00000000000E+00 -0.70270421799E+02  0.70270421799E+02  0.00000000000E+00 0.  1.
      99926    2    1    2    0    0  0.00000000000E+00  0.00000000000E+00  0.65701031646E+03  0.79755116006E+03  0.45213415816E+03 0.  0.
      99925    2    3    3    0    0 -0.21321270221E+02  0.93644987976E+02  0.51059154180E+03  0.58235370188E+03  0.26307438338E+03 0.  0.
         25    1    3    3    0    0  0.21321270221E+02 -0.93644987976E+02  0.14641877466E+03  0.21519745819E+03  0.12509000000E+03 0.  0.
         25    1    4    4    0    0 -0.44911862150E+01  0.34568842934E+02  0.32715924360E+03  0.35198842939E+03  0.12509000000E+03 0.  0.
         25    1    4    4    0    0 -0.16830084006E+02  0.59076145043E+02  0.18343229821E+03  0.23036527248E+03  0.12509000000E+03 0.  0.
<mgrwt>
<rscale>  2 0.45213416E+03</rscale>
<asrwt>0</asrwt>
<pdfrwt beam="1">  1       21 0.10695305E+00 0.45213416E+03</pdfrwt>
<pdfrwt beam="2">  1       21 0.10333886E-01 0.45213416E+03</pdfrwt>
<totfact> 0.48975747E+04</totfact>
</mgrwt>
</event>
<event>
 7    0  0.4766352E-002  0.4627360E+03  0.7546771E-02  0.1023991E+00
         21   -1    0    0  502  501  0.00000000000E+00  0.00000000000E+00  0.95210094203E+03  0.95210094203E+03  0.00000000000E+00 0.  1.
         21   -1    0    0  501  502 -0.00000000000E+00 -0.00000000000E+00 -0.56224234075E+02  0.56224234075E+02  0.00000000000E+00 0.  1.
      99926    2    1    2    0    0  0.00000000000E+00  0.00000000000E+00  0.89587670795E+03  0.10083251761E+04  0.46273597754E+03 0.  0.
      99925    2    3    3    0    0 -0.85339518288E+02  0.84654747287E+02  0.55594734539E+03  0.62668563510E+03  0.26307446623E+03 0.  0.
         25    1    4    4    0    0 -0.52601774701E+01  0.22520967864E+02  0.27181106599E+03  0.30010602652E+03  0.12509000000E+03 0.  0.
         25    1    3    3    0    0  0.85339518288E+02 -0.84654747287E+02  0.33992936256E+03  0.38163954100E+03  0.12509000000E+03 0.  0.
         25    1    4    4    0    0 -0.80079340818E+02  0.62133779423E+02  0.28413627940E+03  0.32657960859E+03  0.12509000000E+03 0.  0.
<mgrwt>
<rscale>  2 0.46273598E+03</rscale>
<asrwt>0</asrwt>
<pdfrwt beam="1">  1       21 0.14001483E+00 0.46273598E+03</pdfrwt>
<pdfrwt beam="2">  1       21 0.82682703E-02 0.46273598E+03</pdfrwt>
<totfact> 0.36583995E+04</totfact>
</mgrwt>
</event>
<event>
 7    0  0.4766352E-002  0.4529069E+03  0.7546771E-02  0.1026859E+00
         21   -1    0    0  502  501  0.00000000000E+00  0.00000000000E+00  0.20966328118E+03  0.20966328118E+03  0.00000000000E+00 0. -1.
         21   -1    0    0  501  502 -0.00000000000E+00 -0.00000000000E+00 -0.24458825520E+03  0.24458825520E+03  0.00000000000E+00 0. -1.
      99926    2    1    2    0    0  0.28421709430E-13  0.00000000000E+00 -0.34924974023E+02  0.45425153638E+03  0.45290694904E+03 0.  0.
      99925    2    3    3    0    0  0.79925577917E+02 -0.70736989069E+02  0.93519941392E+01  0.28395832560E+03  0.26296967744E+03 0.  0.
         25    1    4    4    0    0  0.80042108592E+02 -0.42903660411E+02 -0.71830194196E+01  0.15474678379E+03  0.12509000000E+03 0.  0.
         25    1    3    3    0    0 -0.79925577917E+02  0.70736989069E+02 -0.44276968162E+02  0.17029321078E+03  0.12509000000E+03 0.  0.
         25    1    4    4    0    0 -0.11653067480E+00 -0.27833328658E+02  0.16535013559E+02  0.12921154181E+03  0.12509000000E+03 0.  0.
<mgrwt>
<rscale>  2 0.45290695E+03</rscale>
<asrwt>0</asrwt>
<pdfrwt beam="1">  1       21 0.30832836E-01 0.45290695E+03</pdfrwt>
<pdfrwt beam="2">  1       21 0.35968861E-01 0.45290695E+03</pdfrwt>
<totfact> 0.69758391E+04</totfact>
</mgrwt>
</event>
<event>
 7    0  0.4766352E-002  0.4511872E+03  0.7546771E-02  0.1027369E+00
         21   -1    0    0  502  501  0.00000000000E+00  0.00000000000E+00  0.93571040989E+02  0.93571040989E+02  0.00000000000E+00 0. -1.
         21   -1    0    0  501  502 -0.00000000000E+00 -0.00000000000E+00 -0.54389121409E+03  0.54389121409E+03  0.00000000000E+00 0. -1.
      99926    2    1    2    0    0  0.00000000000E+00  0.00000000000E+00 -0.45032017310E+03  0.63746225508E+03  0.45118717662E+03 0.  0.
      99925    2    3    3    0    0  0.97537088622E+02  0.28190820438E+02 -0.34259203278E+03  0.44365547932E+03  0.26296896659E+03 0.  0.
         25    1    4    4    0    0  0.30078462744E+02 -0.13215085879E+02 -0.12061034637E+03  0.17684376202E+03  0.12509000000E+03 0.  0.
         25    1    4    4    0    0  0.67458625879E+02  0.41405906316E+02 -0.22198168641E+03  0.26681171729E+03  0.12509000000E+03 0.  0.
         25    1    3    3    0    0 -0.97537088622E+02 -0.28190820438E+02 -0.10772814032E+03  0.19380677576E+03  0.12509000000E+03 0.  0.
<mgrwt>
<rscale>  2 0.45118718E+03</rscale>
<asrwt>0</asrwt>
<pdfrwt beam="1">  1       21 0.13760447E-01 0.45118718E+03</pdfrwt>
<pdfrwt beam="2">  1       21 0.79984002E-01 0.45118718E+03</pdfrwt>
<totfact> 0.58160042E+04</totfact>
</mgrwt>
</event>
<event>
 7    0  0.4766352E-002  0.4548015E+03  0.7546771E-02  0.1026300E+00
         21   -1    0    0  502  501  0.00000000000E+00  0.00000000000E+00  0.36103837780E+03  0.36103837780E+03  0.00000000000E+00 0. -1.
         21   -1    0    0  501  502 -0.00000000000E+00 -0.00000000000E+00 -0.14322883323E+03  0.14322883323E+03  0.00000000000E+00 0. -1.
      99926    2    1    2    0    0  0.71054273576E-14  0.00000000000E+00  0.21780954457E+03  0.50426721103E+03  0.45480151980E+03 0.  0.
      99925    2    3    3    0    0 -0.38253979802E+02  0.34838333850E+02  0.24825638891E+03  0.36551709425E+03  0.26323836171E+03 0.  0.
         25    1    4    4    0    0  0.17998246639E+02  0.24713650150E+02  0.14222259239E+03  0.19185795598E+03  0.12509000000E+03 0.  0.
         25    1    4    4    0    0 -0.56252226441E+02  0.10124683700E+02  0.10603379652E+03  0.17365913827E+03  0.12509000000E+03 0.  0.
         25    1    3    3    0    0  0.38253979802E+02 -0.34838333850E+02 -0.30446844337E+02  0.13875011678E+03  0.12509000000E+03 0.  0.
<mgrwt>
<rscale>  2 0.45480152E+03</rscale>
<asrwt>0</asrwt>
<pdfrwt beam="1">  1       21 0.53093879E-01 0.45480152E+03</pdfrwt>
<pdfrwt beam="2">  1       21 0.21063064E-01 0.45480152E+03</pdfrwt>
<totfact> 0.65074365E+04</totfact>
</mgrwt>
</event>
<event>
 7    0  0.4766352E-002  0.4613278E+03  0.7546771E-02  0.1024397E+00
         21   -1    0    0  502  501  0.00000000000E+00  0.00000000000E+00  0.75759013777E+02  0.75759013777E+02  0.00000000000E+00 0.  1.
         21   -1    0    0  501  502 -0.00000000000E+00 -0.00000000000E+00 -0.70230368112E+03  0.70230368112E+03  0.00000000000E+00 0.  1.
      99926    2    1    2    0    0  0.00000000000E+00  0.35527136788E-14 -0.62654466735E+03  0.77806269490E+03  0.46132779779E+03 0.  0.
      99925    2    3    3    0    0  0.11367298158E+03  0.19237628700E+02 -0.34210565997E+03  0.44663443703E+03  0.26297225074E+03 0.  0.
         25    1    4    4    0    0  0.57594698162E+02  0.46133849594E+02 -0.20191998870E+03  0.24872609688E+03  0.12509000000E+03 0.  0.
         25    1    4    4    0    0  0.56078283417E+02 -0.26896220894E+02 -0.14018567128E+03  0.19790834015E+03  0.12509000000E+03 0.  0.
         25    1    3    3    0    0 -0.11367298158E+03 -0.19237628700E+02 -0.28443900738E+03  0.33142825787E+03  0.12509000000E+03 0.  0.
<mgrwt>
<rscale>  2 0.46132780E+03</rscale>
<asrwt>0</asrwt>
<pdfrwt beam="1">  1       21 0.11141031E-01 0.46132780E+03</pdfrwt>
<pdfrwt beam="2">  1       21 0.10327995E+00 0.46132780E+03</pdfrwt>
<totfact> 0.46491676E+04</totfact>
</mgrwt>
</event>
<event>
 7    0  0.4766352E-002  0.4551490E+03  0.7546771E-02  0.1026198E+00
         21   -1    0    0  502  501  0.00000000000E+00  0.00000000000E+00  0.54390430127E+03  0.54390430127E+03  0.00000000000E+00 0. -1.
         21   -1    0    0  501  502 -0.00000000000E+00 -0.00000000000E+00 -0.95219252712E+02  0.95219252712E+02  0.00000000000E+00 0. -1.
      99926    2    1    2    0    0  0.00000000000E+00  0.00000000000E+00  0.44868504856E+03  0.63912355398E+03  0.45514903543E+03 0.  0.
      99925    2    3    3    0    0 -0.98760204801E+02 -0.35304605947E+02  0.34256351827E+03  0.44442049662E+03  0.26298254793E+03 0.  0.
         25    1    3    3    0    0  0.98760204801E+02  0.35304605947E+02  0.10612153029E+03  0.19470305736E+03  0.12509000000E+03 0.  0.
         25    1    4    4    0    0 -0.18647507926E+02 -0.27183645433E+02  0.11827928836E+03  0.17528313749E+03  0.12509000000E+03 0.  0.
         25    1    4    4    0    0 -0.80112696875E+02 -0.81209605145E+01  0.22428422990E+03  0.26913735914E+03  0.12509000000E+03 0.  0.
<mgrwt>
<rscale>  2 0.45514904E+03</rscale>
<asrwt>0</asrwt>
<pdfrwt beam="1">  1       21 0.79985925E-01 0.45514904E+03</pdfrwt>
<pdfrwt beam="2">  1       21 0.14002832E-01 0.45514904E+03</pdfrwt>
<totfact> 0.56266263E+04</totfact>
</mgrwt>
</event>
<event>
 7    0  0.4766352E-002  0.4621844E+03  0.7546771E-02  0.1024150E+00
         21   -1    0    0  502  501  0.00000000000E+00  0.00000000000E+00  0.26928290589E+03  0.26928290589E+03  0.00000000000E+00 0. -1.
         21   -1    0    0  501  502 -0.00000000000E+00 -0.00000000000E+00 -0.19831783304E+03  0.19831783304E+03  0.00000000000E+00 0. -1.
      99926    2    1    2    0    0  0.00000000000E+00  0.00000000000E+00  0.70965072852E+02  0.46760073893E+03  0.46218438905E+03 0.  0.
      99925    2    3    3    0    0  0.65981860687E+02 -0.37396309710E+02  0.13724909685E+03  0.30699821760E+03  0.26392896981E+03 0.  0.
         25    1    4    4    0    0  0.61247139565E+02 -0.50575571736E+02  0.64414673117E+02  0.16157307565E+03  0.12509000000E+03 0.  0.
         25    1    4    4    0    0  0.47347211224E+01  0.13179262026E+02  0.72834423732E+02  0.14542514195E+03  0.12509000000E+03 0.  0.
         25    1    3    3    0    0 -0.65981860687E+02  0.37396309710E+02 -0.66284023997E+02  0.16060252133E+03  0.12509000000E+03 0.  0.
<mgrwt>
<rscale>  2 0.46218439E+03</rscale>
<asrwt>0</asrwt>
<pdfrwt beam="1">  1       21 0.39600427E-01 0.46218439E+03</pdfrwt>
<pdfrwt beam="2">  1       21 0.29164387E-01 0.46218439E+03</pdfrwt>
<totfact> 0.63889928E+04</totfact>
</mgrwt>
</event>
<event>
 7    0  0.4766352E-002  0.4541510E+03  0.7546771E-02  0.1026491E+00
         21   -1    0    0  502  501  0.00000000000E+00  0.00000000000E+00  0.64651227408E+02  0.64651227408E+02  0.00000000000E+00 0.  1.
         21   -1    0    0  501  502 -0.00000000000E+00 -0.00000000000E+00 -0.79756067297E+03  0.79756067297E+03  0.00000000000E+00 0.  1.
      99926    2    1    2    0    0  0.14210854715E-13  0.00000000000E+00 -0.73290944556E+03  0.86221190038E+03  0.45415097243E+03 0.  0.
      99925    2    3    3    0    0 -0.11153030411E+03 -0.10184093899E+02 -0.46196732429E+03  0.54346456207E+03  0.26343347738E+03 0.  0.
         25    1    4    4    0    0 -0.70170546489E+02 -0.25381750576E+01 -0.31387163635E+03  0.34509891354E+03  0.12509000000E+03 0.  0.
         25    1    3    3    0    0  0.11153030411E+03  0.10184093899E+02 -0.27094212127E+03  0.31874733831E+03  0.12509000000E+03 0.  0.
         25    1    4    4    0    0 -0.41359757618E+02 -0.76459188417E+01 -0.14809568795E+03  0.19836564852E+03  0.12509000000E+03 0.  0.
<mgrwt>
<rscale>  2 0.45415097E+03</rscale>
<asrwt>0</asrwt>
<pdfrwt beam="1">  1       21 0.95075332E-02 0.45415097E+03</pdfrwt>
<pdfrwt beam="2">  1       21 0.11728834E+00 0.45415097E+03</pdfrwt>
<totfact> 0.45198121E+04</totfact>
</mgrwt>
</event>
<event>
 7    0  0.4766352E-002  0.4687000E+03  0.7546771E-02  0.1022288E+00
         21   -1    0    0  502  501  0.00000000000E+00  0.00000000000E+00  0.24717702376E+03  0.24717702376E+03  0.00000000000E+00 0.  1.
         21   -1    0    0  501  502 -0.00000000000E+00 -0.00000000000E+00 -0.22218863486E+03  0.22218863486E+03  0.00000000000E+00 0.  1.
      99926    2    1    2    0    0  0.00000000000E+00  0.71054273576E-14  0.24988388903E+02  0.46936565861E+03  0.46870001270E+03 0.  0.
      99925    2    3    3    0    0  0.20172445729E+02 -0.61207661928E+02 -0.92474796856E+02  0.28606695825E+03  0.26292472517E+03 0.  0.
         25    1    4    4    0    0 -0.13541118541E+02 -0.15908887194E+01 -0.24967988195E+02  0.12828406508E+03  0.12509000000E+03 0.  0.
         25    1    4    4    0    0  0.33713564270E+02 -0.59616773209E+02 -0.67506808661E+02  0.15778289318E+03  0.12509000000E+03 0.  0.
         25    1    3    3    0    0 -0.20172445729E+02  0.61207661928E+02  0.11746318576E+03  0.18329870036E+03  0.12509000000E+03 0.  0.
<mgrwt>
<rscale>  2 0.46870001E+03</rscale>
<asrwt>0</asrwt>
<pdfrwt beam="1">  1       21 0.36349562E-01 0.46870001E+03</pdfrwt>
<pdfrwt beam="2">  1       21 0.32674799E-01 0.46870001E+03</pdfrwt>
<totfact> 0.60605277E+04</totfact>
</mgrwt>
</event>
<event>
 7    0  0.4766352E-002  0.4510323E+03  0.7546771E-02  0.1027415E+00
         21   -1    0    0  502  501  0.00000000000E+00  0.00000000000E+00  0.13611789442E+04  0.13611789442E+04  0.00000000000E+00 0.  1.
         21   -1    0    0  501  502 -0.00000000000E+00 -0.00000000000E+00 -0.37362859990E+02  0.37362859990E+02  0.00000000000E+00 0.  1.
      99926    2    1    2    0    0  0.00000000000E+00  0.00000000000E+00  0.13238160842E+04  0.13985418042E+04  0.45103231952E+03 0.  0.
      99925    2    3    3    0    0 -0.64536737903E+02  0.82533005251E+02  0.93742131273E+03  0.97910752445E+03  0.26251883623E+03 0.  0.
         25    1    4    4    0    0 -0.27073837432E+02  0.33805509494E+02  0.59216690361E+03  0.60678246100E+03  0.12509000000E+03 0.  0.
         25    1    3    3    0    0  0.64536737903E+02 -0.82533005251E+02  0.38639477146E+03  0.41943427973E+03  0.12509000000E+03 0.  0.
         25    1    4    4    0    0 -0.37462900470E+02  0.48727495757E+02  0.34525440912E+03  0.37232506345E+03  0.12509000000E+03 0.  0.
<mgrwt>
<rscale>  2 0.45103232E+03</rscale>
<asrwt>0</asrwt>
<pdfrwt beam="1">  1       21 0.20017334E+00 0.45103232E+03</pdfrwt>
<pdfrwt beam="2">  1       21 0.54945391E-02 0.45103232E+03</pdfrwt>
<totfact> 0.27199953E+04</totfact>
</mgrwt>
</event>
<event>
 7    0  0.4766352E-002  0.4536332E+03  0.7546771E-02  0.1026644E+00
         21   -1    0    0  502  501  0.00000000000E+00  0.00000000000E+00  0.33812480532E+03  0.33812480532E+03  0.00000000000E+00 0. -1.
         21   -1    0    0  501  502 -0.00000000000E+00 -0.00000000000E+00 -0.15215026705E+03  0.15215026705E+03  0.00000000000E+00 0. -1.
      99926    2    1    2    0    0  0.00000000000E+00  0.14210854715E-13  0.18597453827E+03  0.49027507237E+03  0.45363324140E+03 0.  0.
      99925    2    3    3    0    0 -0.17375326297E+02  0.87759946497E+02  0.18972243943E+03  0.33643988447E+03  0.26304653898E+03 0.  0.
         25    1    4    4    0    0 -0.27818489816E+02  0.74840063049E+01  0.97687216366E+02  0.16130771546E+03  0.12509000000E+03 0.  0.
         25    1    3    3    0    0  0.17375326297E+02 -0.87759946497E+02 -0.37479011580E+01  0.15383518790E+03  0.12509000000E+03 0.  0.
         25    1    4    4    0    0  0.10443163519E+02  0.80275940192E+02  0.92035223065E+02  0.17513216901E+03  0.12509000000E+03 0.  0.
<mgrwt>
<rscale>  2 0.45363324E+03</rscale>
<asrwt>0</asrwt>
<pdfrwt beam="1">  1       21 0.49724236E-01 0.45363324E+03</pdfrwt>
<pdfrwt beam="2">  1       21 0.22375039E-01 0.45363324E+03</pdfrwt>
<totfact> 0.66679976E+04</totfact>
</mgrwt>
</event>
<event>
 7    0  0.4766352E-002  0.4558936E+03  0.7546771E-02  0.1025979E+00
         21   -1    0    0  502  501  0.00000000000E+00  0.00000000000E+00  0.91073196686E+03  0.91073196686E+03  0.00000000000E+00 0. -1.
         21   -1    0    0  501  502 -0.00000000000E+00 -0.00000000000E+00 -0.57052738166E+02  0.57052738166E+02  0.00000000000E+00 0. -1.
      99926    2    1    2    0    0  0.14210854715E-13 -0.35527136788E-14  0.85367922869E+03  0.96778470502E+03  0.45589363867E+03 0.  0.
      99925    2    3    3    0    0  0.65086784996E+02 -0.18265946281E+02  0.34182191310E+03  0.43654525431E+03  0.26298213705E+03 0.  0.
         25    1    4    4    0    0 -0.81743370113E+01 -0.65157559901E+01  0.14435582645E+03  0.19129920960E+03  0.12509000000E+03 0.  0.
         25    1    4    4    0    0  0.73261122007E+02 -0.11750190290E+02  0.19746608665E+03  0.24524604471E+03  0.12509000000E+03 0.  0.
         25    1    3    3    0    0 -0.65086784996E+02  0.18265946281E+02  0.51185731559E+03  0.53123945071E+03  0.12509000000E+03 0.  0.
<mgrwt>
<rscale>  2 0.45589364E+03</rscale>
<asrwt>0</asrwt>
<pdfrwt beam="1">  1       21 0.13393116E+00 0.45589364E+03</pdfrwt>
<pdfrwt beam="2">  1       21 0.83901091E-02 0.45589364E+03</pdfrwt>
<totfact> 0.40147714E+04</totfact>
</mgrwt>
</event>
<event>
 7    0  0.4766352E-002  0.4570601E+03  0.7546771E-02  0.1025637E+00
         21   -1    0    0  502  501  0.00000000000E+00  0.00000000000E+00  0.40076566249E+02  0.40076566249E+02  0.00000000000E+00 0.  1.
         21   -1    0    0  501  502 -0.00000000000E+00 -0.00000000000E+00 -0.13031552953E+04  0.13031552953E+04  0.00000000000E+00 0.  1.
      99926    2    1    2    0    0  0.00000000000E+00  0.00000000000E+00 -0.12630787291E+04  0.13432318616E+04  0.45706012526E+03 0.  0.
      99925    2    3    3    0    0  0.75910378490E+02  0.85763421886E+02 -0.75978799154E+03  0.81213222432E+03  0.26298898761E+03 0.  0.
         25    1    3    3    0    0 -0.75910378490E+02 -0.85763421886E+02 -0.50329073752E+03  0.53109963723E+03  0.12509000000E+03 0.  0.
         25    1    4    4    0    0  0.10197457019E+02  0.96347833663E+01 -0.31106170361E+03  0.33556476086E+03  0.12509000000E+03 0.  0.
         25    1    4    4    0    0  0.65712921471E+02  0.76128638519E+02 -0.44872628793E+03  0.47656746346E+03  0.12509000000E+03 0.  0.
<mgrwt>
<rscale>  2 0.45706013E+03</rscale>
<asrwt>0</asrwt>
<pdfrwt beam="1">  1       21 0.58936126E-02 0.45706013E+03</pdfrwt>
<pdfrwt beam="2">  1       21 0.19164049E+00 0.45706013E+03</pdfrwt>
<totfact> 0.27442403E+04</totfact>
</mgrwt>
</event>
<event>
 7    0  0.4766352E-002  0.4561187E+03  0.7546771E-02  0.1025913E+00
         21   -1    0    0  502  501  0.00000000000E+00  0.00000000000E+00  0.15358021715E+04  0.15358021715E+04  0.00000000000E+00 0. -1.
         21   -1    0    0  501  502 -0.00000000000E+00 -0.00000000000E+00 -0.33865727106E+02  0.33865727106E+02  0.00000000000E+00 0. -1.
      99926    2    1    2    0    0 -0.17763568394E-14  0.00000000000E+00  0.15019364444E+04  0.15696678986E+04  0.45611865662E+03 0.  0.
      99925    2    3    3    0    0 -0.94402542876E+01 -0.53223409772E+02  0.59832972411E+03  0.65584381116E+03  0.26307944834E+03 0.  0.
         25    1    4    4    0    0 -0.12355981612E+02 -0.49243568110E+02  0.39101168575E+03  0.41366078588E+03  0.12509000000E+03 0.  0.
         25    1    3    3    0    0  0.94402542876E+01  0.53223409772E+02  0.90360672029E+03  0.91382408745E+03  0.12509000000E+03 0.  0.
         25    1    4    4    0    0  0.29157273248E+01 -0.39798416618E+01  0.20731803836E+03  0.24218302528E+03  0.12509000000E+03 0.  0.
<mgrwt>
<rscale>  2 0.45611866E+03</rscale>
<asrwt>0</asrwt>
<pdfrwt beam="1">  1       21 0.22585321E+00 0.45611866E+03</pdfrwt>
<pdfrwt beam="2">  1       21 0.49802550E-02 0.45611866E+03</pdfrwt>
<totfact> 0.21931035E+04</totfact>
</mgrwt>
</event>
<event>
 7    0  0.4766352E-002  0.4531723E+03  0.7546771E-02  0.1026780E+00
         21   -1    0    0  502  501  0.00000000000E+00  0.00000000000E+00  0.24018210572E+03  0.24018210572E+03  0.00000000000E+00 0.  1.
         21   -1    0    0  501  502 -0.00000000000E+00 -0.00000000000E+00 -0.21375978604E+03  0.21375978604E+03  0.00000000000E+00 0.  1.
      99926    2    1    2    0    0  0.00000000000E+00 -0.35527136788E-14  0.26422319677E+02  0.45394189176E+03  0.45317226539E+03 0.  0.
      99925    2    3    3    0    0  0.10458311452E+03  0.31805637797E+02  0.38638205660E+02  0.28737069854E+03  0.26294444471E+03 0.  0.
         25    1    4    4    0    0  0.55822065595E+02  0.40057738469E+02 -0.12955621484E+02  0.14330415781E+03  0.12509000000E+03 0.  0.
         25    1    3    3    0    0 -0.10458311452E+03 -0.31805637797E+02 -0.12215885983E+02  0.16657119322E+03  0.12509000000E+03 0.  0.
         25    1    4    4    0    0  0.48761048927E+02 -0.82521006721E+01  0.51593827144E+02  0.14406654073E+03  0.12509000000E+03 0.  0.
<mgrwt>
<rscale>  2 0.45317227E+03</rscale>
<asrwt>0</asrwt>
<pdfrwt beam="1">  1       21 0.35320898E-01 0.45317227E+03</pdfrwt>
<pdfrwt beam="2">  1       21 0.31435263E-01 0.45317227E+03</pdfrwt>
<totfact> 0.69633359E+04</totfact>
</mgrwt>
</event>
<event>
 7    0  0.4766352E-002  0.3973356E+03  0.7546771E-02  0.1044706E+00
         21   -1    0    0  502  501  0.00000000000E+00  0.00000000000E+00  0.24958120598E+03  0.24958120598E+03  0.00000000000E+00 0. -1.
         21   -1    0    0  501  502 -0.00000000000E+00 -0.00000000000E+00 -0.15814051740E+03  0.15814051740E+03  0.00000000000E+00 0. -1.
      99926    2    1    2    0    0  0.00000000000E+00 -0.35527136788E-14  0.91440688573E+02  0.40772172338E+03  0.39733563166E+03 0.  0.
      99925    2    3    3    0    0 -0.20518214727E+02 -0.28904389334E+02  0.44034153989E+02  0.26933332618E+03  0.26333433695E+03 0.  0.
         25    1    4    4    0    0  0.69180613926E+01  0.16162367948E+02  0.43409390752E+02  0.13357007530E+03  0.12509000000E+03 0.  0.
         25    1    4    4    0    0 -0.27436276120E+02 -0.45066757282E+02  0.62476323658E+00  0.13576325088E+03  0.12509000000E+03 0.  0.
         25    1    3    3    0    0  0.20518214727E+02  0.28904389334E+02  0.47406534584E+02  0.13838839720E+03  0.12509000000E+03 0.  0.
<mgrwt>
<rscale>  2 0.39733563E+03</rscale>
<asrwt>0</asrwt>
<pdfrwt beam="1">  1       21 0.36703119E-01 0.39733563E+03</pdfrwt>
<pdfrwt beam="2">  1       21 0.23255958E-01 0.39733563E+03</pdfrwt>
<totfact> 0.11762867E+05</totfact>
</mgrwt>
</event>
<event>
 7    0  0.4766352E-002  0.4559197E+03  0.7546771E-02  0.1025971E+00
         21   -1    0    0  502  501  0.00000000000E+00  0.00000000000E+00  0.59437865324E+03  0.59437865324E+03  0.00000000000E+00 0. -1.
         21   -1    0    0  501  502 -0.00000000000E+00 -0.00000000000E+00 -0.87428585745E+02  0.87428585745E+02  0.00000000000E+00 0. -1.
      99926    2    1    2    0    0  0.00000000000E+00  0.00000000000E+00  0.50695006749E+03  0.68180723898E+03  0.45591966419E+03 0.  0.
      99925    2    3    3    0    0  0.56729645780E+02 -0.47006519365E+02  0.18835013954E+03  0.33169113286E+03  0.26289801631E+03 0.  0.
         25    1    4    4    0    0  0.64307564732E+00 -0.36807065696E+02  0.59687718299E+02  0.14340608581E+03  0.12509000000E+03 0.  0.
         25    1    4    4    0    0  0.56086570132E+02 -0.10199453669E+02  0.12866242124E+03  0.18828504705E+03  0.12509000000E+03 0.  0.
         25    1    3    3    0    0 -0.56729645780E+02  0.47006519365E+02  0.31859992795E+03  0.35011610612E+03  0.12509000000E+03 0.  0.
<mgrwt>
<rscale>  2 0.45591966E+03</rscale>
<asrwt>0</asrwt>
<pdfrwt beam="1">  1       21 0.87408624E-01 0.45591966E+03</pdfrwt>
<pdfrwt beam="2">  1       21 0.12857145E-01 0.45591966E+03</pdfrwt>
<totfact> 0.53513666E+04</totfact>
</mgrwt>
</event>
<event>
 7    0  0.4766352E-002  0.4629810E+03  0.7546771E-02  0.1023920E+00
         21   -1    0    0  502  501  0.00000000000E+00  0.00000000000E+00  0.14321276581E+04  0.14321276581E+04  0.00000000000E+00 0. -1.
         21   -1    0    0  501  502 -0.00000000000E+00 -0.00000000000E+00 -0.37418352451E+02  0.37418352451E+02  0.00000000000E+00 0. -1.
      99926    2    1    2    0    0  0.14210854715E-13  0.00000000000E+00  0.13947093057E+04  0.14695460106E+04  0.46298102539E+03 0.  0.
      99925    2    3    3    0    0  0.96249909312E+02 -0.57157202431E+02  0.72801840593E+03  0.78204673441E+03  0.26278376014E+03 0.  0.
         25    1    4    4    0    0  0.26200253856E+02 -0.54315119672E+02  0.41818203012E+03  0.44063624901E+03  0.12509000000E+03 0.  0.
         25    1    4    4    0    0  0.70049655456E+02 -0.28420827585E+01  0.30983637581E+03  0.34141048540E+03  0.12509000000E+03 0.  0.
         25    1    3    3    0    0 -0.96249909312E+02  0.57157202431E+02  0.66669089977E+03  0.68749927619E+03  0.12509000000E+03 0.  0.
<mgrwt>
<rscale>  2 0.46298103E+03</rscale>
<asrwt>0</asrwt>
<pdfrwt beam="1">  1       21 0.21060697E+00 0.46298103E+03</pdfrwt>
<pdfrwt beam="2">  1       21 0.55026998E-02 0.46298103E+03</pdfrwt>
<totfact> 0.23071596E+04</totfact>
</mgrwt>
</event>
<event>
 7    0  0.4766352E-002  0.4509547E+03  0.7546771E-02  0.1027438E+00
         21   -1    0    0  502  501  0.00000000000E+00  0.00000000000E+00  0.12522948798E+03  0.12522948798E+03  0.00000000000E+00 0.  1.
         21   -1    0    0  501  502 -0.00000000000E+00 -0.00000000000E+00 -0.40597498429E+03  0.40597498429E+03  0.00000000000E+00 0.  1.
      99926    2    1    2    0    0 -0.14210854715E-13  0.14210854715E-13 -0.28074549631E+03  0.53120447228E+03  0.45095471798E+03 0.  0.
      99925    2    3    3    0    0  0.76845635558E+02 -0.77276643066E+02 -0.18835087913E+03  0.34130659274E+03  0.26293954688E+03 0.  0.
         25    1    4    4    0    0  0.12848752857E+02 -0.42499368777E+01 -0.73837399436E+02  0.14588564723E+03  0.12509000000E+03 0.  0.
         25    1    4    4    0    0  0.63996882702E+02 -0.73026706188E+02 -0.11451347969E+03  0.19542094551E+03  0.12509000000E+03 0.  0.
         25    1    3    3    0    0 -0.76845635558E+02  0.77276643066E+02 -0.92394617179E+02  0.18989787953E+03  0.12509000000E+03 0.  0.
<mgrwt>
<rscale>  2 0.45095472E+03</rscale>
<asrwt>0</asrwt>
<pdfrwt beam="1">  1       21 0.18416101E-01 0.45095472E+03</pdfrwt>
<pdfrwt beam="2">  1       21 0.59702203E-01 0.45095472E+03</pdfrwt>
<totfact> 0.65188335E+04</totfact>
</mgrwt>
</event>
<event>
 7    0  0.4766352E-002  0.4399044E+03  0.7546771E-02  0.1030776E+00
         21   -1    0    0  502  501  0.00000000000E+00  0.00000000000E+00  0.36201852148E+03  0.36201852148E+03  0.00000000000E+00 0.  1.
         21   -1    0    0  501  502 -0.00000000000E+00 -0.00000000000E+00 -0.13363674518E+03  0.13363674518E+03  0.00000000000E+00 0.  1.
      99926    2    1    2    0    0  0.14210854715E-13  0.00000000000E+00  0.22838177630E+03  0.49565526666E+03  0.43990443010E+03 0.  0.
      99925    2    3    3    0    0 -0.71495809341E+02 -0.64916196282E+02  0.12473341336E+03  0.30666782122E+03  0.26298472364E+03 0.  0.
         25    1    3    3    0    0  0.71495809341E+02  0.64916196282E+02  0.10364836294E+03  0.18898744544E+03  0.12509000000E+03 0.  0.
         25    1    4    4    0    0 -0.25915601845E+02  0.86487262861E+01  0.55854211573E+02  0.13969115912E+03  0.12509000000E+03 0.  0.
         25    1    4    4    0    0 -0.45580207497E+02 -0.73564922568E+02  0.68879201786E+02  0.16697666210E+03  0.12509000000E+03 0.  0.
<mgrwt>
<rscale>  2 0.43990443E+03</rscale>
<asrwt>0</asrwt>
<pdfrwt beam="1">  1       21 0.53238018E-01 0.43990443E+03</pdfrwt>
<pdfrwt beam="2">  1       21 0.19652463E-01 0.43990443E+03</pdfrwt>
<totfact> 0.74060908E+04</totfact>
</mgrwt>
</event>
<event>
 7    0  0.4766352E-002  0.4559115E+03  0.7546771E-02  0.1025974E+00
         21   -1    0    0  502  501  0.00000000000E+00  0.00000000000E+00  0.48679667519E+03  0.48679667519E+03  0.00000000000E+00 0. -1.
         21   -1    0    0  501  502 -0.00000000000E+00 -0.00000000000E+00 -0.10674647705E+03  0.10674647705E+03  0.00000000000E+00 0. -1.
      99926    2    1    2    0    0  0.00000000000E+00  0.00000000000E+00  0.38005019814E+03  0.59354315223E+03  0.45591152701E+03 0.  0.
      99925    2    3    3    0    0 -0.80545006358E+02  0.64120741896E+02  0.30281613677E+03  0.41406731562E+03  0.26297368992E+03 0.  0.
         25    1    4    4    0    0 -0.62401092717E+02  0.17901101338E+02  0.10928274715E+03  0.17833836583E+03  0.12509000000E+03 0.  0.
         25    1    4    4    0    0 -0.18143913641E+02  0.46219640558E+02  0.19353338961E+03  0.23572894979E+03  0.12509000000E+03 0.  0.
         25    1    3    3    0    0  0.80545006358E+02 -0.64120741896E+02  0.77234061374E+02  0.17947583661E+03  0.12509000000E+03 0.  0.
<mgrwt>
<rscale>  2 0.45591153E+03</rscale>
<asrwt>0</asrwt>
<pdfrwt beam="1">  1       21 0.71587746E-01 0.45591153E+03</pdfrwt>
<pdfrwt beam="2">  1       21 0.15698011E-01 0.45591153E+03</pdfrwt>
<totfact> 0.58653812E+04</totfact>
</mgrwt>
</event>
<event>
 7    0  0.4766352E-002  0.4442227E+03  0.7546771E-02  0.1029459E+00
         21   -1    0    0  502  501  0.00000000000E+00  0.00000000000E+00  0.18373625477E+03  0.18373625477E+03  0.00000000000E+00 0.  1.
         21   -1    0    0  501  502 -0.00000000000E+00 -0.00000000000E+00 -0.26850142503E+03  0.26850142503E+03  0.00000000000E+00 0.  1.
      99926    2    1    2    0    0  0.00000000000E+00  0.00000000000E+00 -0.84765170265E+02  0.45223767980E+03  0.44422267495E+03 0.  0.
      99925    2    3    3    0    0  0.40731768371E+02  0.58547128780E+02 -0.12918141618E+03  0.30154874774E+03  0.26297712017E+03 0.  0.
         25    1    3    3    0    0 -0.40731768371E+02 -0.58547128780E+02  0.44416245919E+02  0.15068893206E+03  0.12509000000E+03 0.  0.
         25    1    4    4    0    0 -0.80231764615E+01  0.35557354587E+02 -0.94612330185E+02  0.16102079974E+03  0.12509000000E+03 0.  0.
         25    1    4    4    0    0  0.48754944833E+02  0.22989774193E+02 -0.34569085999E+02  0.14052794800E+03  0.12509000000E+03 0.  0.
<mgrwt>
<rscale>  2 0.44422267E+03</rscale>
<asrwt>0</asrwt>
<pdfrwt beam="1">  1       21 0.27020038E-01 0.44422267E+03</pdfrwt>
<pdfrwt beam="2">  1       21 0.39485503E-01 0.44422267E+03</pdfrwt>
<totfact> 0.74988980E+04</totfact>
</mgrwt>
</event>
<event>
 7    0  0.4766352E-002  0.4551642E+03  0.7546771E-02  0.1026193E+00
         21   -1    0    0  502  501  0.00000000000E+00  0.00000000000E+00  0.22848085149E+03  0.22848085149E+03  0.00000000000E+00 0. -1.
         21   -1    0    0  501  502 -0.00000000000E+00 -0.00000000000E+00 -0.22668691937E+03  0.22668691937E+03  0.00000000000E+00 0. -1.
      99926    2    1    2    0    0  0.00000000000E+00  0.17763568394E-14  0.17939321214E+01  0.45516777085E+03  0.45516423567E+03 0.  0.
      99925    2    3    3    0    0 -0.13312164096E+02 -0.40369238770E+01  0.11356880261E+03  0.28683880650E+03  0.26303063989E+03 0.  0.
         25    1    3    3    0    0  0.13312164096E+02  0.40369238770E+01 -0.11177487049E+03  0.16832896436E+03  0.12509000000E+03 0.  0.
         25    1    4    4    0    0 -0.89854505624E+01 -0.26509642012E+02  0.92179575103E+02  0.15788629329E+03  0.12509000000E+03 0.  0.
         25    1    4    4    0    0 -0.43267135334E+01  0.22472718135E+02  0.21389227512E+02  0.12895251321E+03  0.12509000000E+03 0.  0.
<mgrwt>
<rscale>  2 0.45516424E+03</rscale>
<asrwt>0</asrwt>
<pdfrwt beam="1">  1       21 0.33600125E-01 0.45516424E+03</pdfrwt>
<pdfrwt beam="2">  1       21 0.33336311E-01 0.45516424E+03</pdfrwt>
<totfact> 0.68443766E+04</totfact>
</mgrwt>
</event>
<event>
 7    0  0.4766352E-002  0.4626381E+03  0.7546771E-02  0.1024019E+00
         21   -1    0    0  502  501  0.00000000000E+00  0.00000000000E+00  0.78592533684E+03  0.78592533684E+03  0.00000000000E+00 0.  1.
         21   -1    0    0  501  502 -0.00000000000E+00 -0.00000000000E+00 -0.68083446984E+02  0.68083446984E+02  0.00000000000E+00 0.  1.
      99926    2    1    2    0    0  0.00000000000E+00 -0.71054273576E-14  0.71784188986E+03  0.85400878383E+03  0.46263811345E+03 0.  0.
      99925    2    3    3    0    0 -0.64976800981E+02 -0.58988789209E+02  0.29874907063E+03  0.40792811719E+03  0.26353876313E+03 0.  0.
         25    1    4    4    0    0 -0.29735918902E+02  0.10205659223E+02  0.16111520436E+03  0.20638313286E+03  0.12509000000E+03 0.  0.
         25    1    3    3    0    0  0.64976800981E+02  0.58988789209E+02  0.41909281923E+03  0.44608066664E+03  0.12509000000E+03 0.  0.
         25    1    4    4    0    0 -0.35240882080E+02 -0.69194448432E+02  0.13763386627E+03  0.20154498433E+03  0.12509000000E+03 0.  0.
<mgrwt>
<rscale>  2 0.46263811E+03</rscale>
<asrwt>0</asrwt>
<pdfrwt beam="1">  1       21 0.11557725E+00 0.46263811E+03</pdfrwt>
<pdfrwt beam="2">  1       21 0.10012272E-01 0.46263811E+03</pdfrwt>
<totfact> 0.42647317E+04</totfact>
</mgrwt>
</event>
<event>
 7    0  0.4766352E-002  0.4507379E+03  0.7546771E-02  0.1027502E+00
         21   -1    0    0  502  501  0.00000000000E+00  0.00000000000E+00  0.16160148583E+03  0.16160148583E+03  0.00000000000E+00 0. -1.
         21   -1    0    0  501  502 -0.00000000000E+00 -0.00000000000E+00 -0.31429887541E+03  0.31429887541E+03  0.00000000000E+00 0. -1.
      99926    2    1    2    0    0 -0.47739590059E-14  0.00000000000E+00 -0.15269738958E+03  0.47590036125E+03  0.45073790727E+03 0.  0.
      99925    2    3    3    0    0  0.67911877050E+00  0.90498255308E+02 -0.16018774995E+03  0.32132349035E+03  0.26343552305E+03 0.  0.
         25    1    4    4    0    0  0.41026973807E+02  0.45372429922E+02 -0.88048625201E+02  0.16474810614E+03  0.12509000000E+03 0.  0.
         25    1    3    3    0    0 -0.67911877050E+00 -0.90498255308E+02  0.74903603665E+01  0.15457687089E+03  0.12509000000E+03 0.  0.
         25    1    4    4    0    0 -0.40347855036E+02  0.45125825387E+02 -0.72139124745E+02  0.15657538421E+03  0.12509000000E+03 0.  0.
<mgrwt>
<rscale>  2 0.45073791E+03</rscale>
<asrwt>0</asrwt>
<pdfrwt beam="1">  1       21 0.23764925E-01 0.45073791E+03</pdfrwt>
<pdfrwt beam="2">  1       21 0.46220422E-01 0.45073791E+03</pdfrwt>
<totfact> 0.69315041E+04</totfact>
</mgrwt>
</event>
<event>
 7    0  0.4766352E-002  0.4527840E+03  0.7546771E-02  0.1026895E+00
         21   -1    0    0  502  501  0.00000000000E+00  0.00000000000E+00  0.44833453118E+03  0.44833453118E+03  0.00000000000E+00 0. -1.
         21   -1    0    0  501  502 -0.00000000000E+00 -0.00000000000E+00 -0.11431941506E+03  0.11431941506E+03  0.00000000000E+00 0. -1.
      99926    2    1    2    0    0  0.00000000000E+00  0.11102230246E-15  0.33401511612E+03  0.56265394624E+03  0.45278401631E+03 0.  0.
      99925    2    3    3    0    0  0.10607694640E+03 -0.76383510513E+00  0.16965400028E+03  0.33045793744E+03  0.26299632432E+03 0.  0.
         25    1    3    3    0    0 -0.10607694640E+03  0.76383510513E+00  0.16436111584E+03  0.23219600880E+03  0.12509000000E+03 0.  0.
         25    1    4    4    0    0  0.53648806968E+02 -0.24038241793E+02  0.46629304912E+02  0.14586922819E+03  0.12509000000E+03 0.  0.
         25    1    4    4    0    0  0.52428139432E+02  0.23274406687E+02  0.12302469537E+03  0.18458870925E+03  0.12509000000E+03 0.  0.
<mgrwt>
<rscale>  2 0.45278402E+03</rscale>
<asrwt>0</asrwt>
<pdfrwt beam="1">  1       21 0.65931548E-01 0.45278402E+03</pdfrwt>
<pdfrwt beam="2">  1       21 0.16811679E-01 0.45278402E+03</pdfrwt>
<totfact> 0.62119618E+04</totfact>
</mgrwt>
</event>
<event>
 7    0  0.4766352E-002  0.4551994E+03  0.7546771E-02  0.1026183E+00
         21   -1    0    0  502  501  0.00000000000E+00  0.00000000000E+00  0.16610732178E+02  0.16610732178E+02  0.00000000000E+00 0. -1.
         21   -1    0    0  501  502 -0.00000000000E+00 -0.00000000000E+00 -0.31185637122E+04  0.31185637122E+04  0.00000000000E+00 0. -1.
      99926    2    1    2    0    0  0.00000000000E+00  0.14210854715E-13 -0.31019529801E+04  0.31351744444E+04  0.45519941390E+03 0.  0.
      99925    2    3    3    0    0 -0.88275156066E+02 -0.70706808376E+02 -0.19039974092E+04  0.19254071057E+04  0.26304834645E+03 0.  0.
         25    1    4    4    0    0 -0.68494443438E+02 -0.31514001460E+01 -0.97992049309E+03  0.99024900958E+03  0.12509000000E+03 0.  0.
         25    1    4    4    0    0 -0.19780712628E+02 -0.67555408230E+02 -0.92407691611E+03  0.93515809613E+03  0.12509000000E+03 0.  0.
         25    1    3    3    0    0  0.88275156066E+02  0.70706808376E+02 -0.11979555709E+04  0.12097673387E+04  0.12509000000E+03 0.  0.
<mgrwt>
<rscale>  2 0.45519941E+03</rscale>
<asrwt>0</asrwt>
<pdfrwt beam="1">  1       21 0.24427522E-02 0.45519941E+03</pdfrwt>
<pdfrwt beam="2">  1       21 0.45861278E+00 0.45519941E+03</pdfrwt>
<totfact> 0.25587705E+03</totfact>
</mgrwt>
</event>
<event>
 7    0  0.4766352E-002  0.4561043E+03  0.7546771E-02  0.1025917E+00
         21   -1    0    0  502  501  0.00000000000E+00  0.00000000000E+00  0.97120555049E+03  0.97120555049E+03  0.00000000000E+00 0. -1.
         21   -1    0    0  501  502 -0.00000000000E+00 -0.00000000000E+00 -0.53549722304E+02  0.53549722304E+02  0.00000000000E+00 0. -1.
      99926    2    1    2    0    0  0.00000000000E+00  0.00000000000E+00  0.91765582819E+03  0.10247552728E+04  0.45610431934E+03 0.  0.
      99925    2    3    3    0    0  0.42413731960E+02  0.70847928106E+02  0.39964905103E+03  0.48549941250E+03  0.26300563108E+03 0.  0.
         25    1    3    3    0    0 -0.42413731960E+02 -0.70847928106E+02  0.51800677716E+03  0.53925586030E+03  0.12509000000E+03 0.  0.
         25    1    4    4    0    0 -0.14833649806E+02  0.35228770993E+02  0.15747831491E+03  0.20471451155E+03  0.12509000000E+03 0.  0.
         25    1    4    4    0    0  0.57247381765E+02  0.35619157113E+02  0.24217073611E+03  0.28078490095E+03  0.12509000000E+03 0.  0.
<mgrwt>
<rscale>  2 0.45610432E+03</rscale>
<asrwt>0</asrwt>
<pdfrwt beam="1">  1       21 0.14282434E+00 0.45610432E+03</pdfrwt>
<pdfrwt beam="2">  1       21 0.78749597E-02 0.45610432E+03</pdfrwt>
<totfact> 0.37889811E+04</totfact>
</mgrwt>
</event>
<event>
 7    0  0.4766352E-002  0.4560791E+03  0.7546771E-02  0.1025925E+00
         21   -1    0    0  502  501  0.00000000000E+00  0.00000000000E+00  0.11266187695E+03  0.11266187695E+03  0.00000000000E+00 0. -1.
         21   -1    0    0  501  502 -0.00000000000E+00 -0.00000000000E+00 -0.46157613478E+03  0.46157613478E+03  0.00000000000E+00 0. -1.
      99926    2    1    2    0    0  0.00000000000E+00  0.00000000000E+00 -0.34891425782E+03  0.57423801173E+03  0.45607908832E+03 0.  0.
      99925    2    3    3    0    0  0.85421252301E+02 -0.73774545759E+02 -0.24120042324E+03  0.37426488302E+03  0.26297734606E+03 0.  0.
         25    1    3    3    0    0 -0.85421252301E+02  0.73774545759E+02 -0.10771383458E+03  0.19997312871E+03  0.12509000000E+03 0.  0.
         25    1    4    4    0    0  0.65740869499E+02 -0.34814735949E+02 -0.17024139187E+03  0.22397224687E+03  0.12509000000E+03 0.  0.
         25    1    4    4    0    0  0.19680382802E+02 -0.38959809810E+02 -0.70959031374E+02  0.15029263615E+03  0.12509000000E+03 0.  0.
<mgrwt>
<rscale>  2 0.45607909E+03</rscale>
<asrwt>0</asrwt>
<pdfrwt beam="1">  1       21 0.16567923E-01 0.45607909E+03</pdfrwt>
<pdfrwt beam="2">  1       21 0.67878843E-01 0.45607909E+03</pdfrwt>
<totfact> 0.59780979E+04</totfact>
</mgrwt>
</event>
<event>
 7    0  0.4766352E-002  0.4563983E+03  0.7546771E-02  0.1025831E+00
         21   -1    0    0  502  501  0.00000000000E+00  0.00000000000E+00  0.59421283421E+02  0.59421283421E+02  0.00000000000E+00 0.  1.
         21   -1    0    0  501  502 -0.00000000000E+00 -0.00000000000E+00 -0.87636707825E+03  0.87636707825E+03  0.00000000000E+00 0.  1.
      99926    2    1    2    0    0 -0.14210854715E-13  0.00000000000E+00 -0.81694579483E+03  0.93578836167E+03  0.45639831962E+03 0.  0.
      99925    2    3    3    0    0 -0.10782440631E+03 -0.38010447516E+02 -0.52369007969E+03  0.59708890894E+03  0.26304556430E+03 0.  0.
         25    1    4    4    0    0 -0.16141647073E+02 -0.19966258111E+02 -0.19342619641E+03  0.23177662908E+03  0.12509000000E+03 0.  0.
         25    1    4    4    0    0 -0.91682759242E+02 -0.18044189406E+02 -0.33026388329E+03  0.36531227986E+03  0.12509000000E+03 0.  0.
         25    1    3    3    0    0  0.10782440631E+03  0.38010447516E+02 -0.29325571514E+03  0.33869945273E+03  0.12509000000E+03 0.  0.
<mgrwt>
<rscale>  2 0.45639832E+03</rscale>
<asrwt>0</asrwt>
<pdfrwt beam="1">  1       21 0.87384243E-02 0.45639832E+03</pdfrwt>
<pdfrwt beam="2">  1       21 0.12887751E+00 0.45639832E+03</pdfrwt>
<totfact> 0.41268525E+04</totfact>
</mgrwt>
</event>
<event>
 7    0  0.4766352E-002  0.4575825E+03  0.7546771E-02  0.1025485E+00
         21   -1    0    0  502  501  0.00000000000E+00  0.00000000000E+00  0.36229825303E+03  0.36229825303E+03  0.00000000000E+00 0. -1.
         21   -1    0    0  501  502 -0.00000000000E+00 -0.00000000000E+00 -0.14448163348E+03  0.14448163348E+03  0.00000000000E+00 0. -1.
      99926    2    1    2    0    0 -0.71054273576E-14  0.00000000000E+00  0.21781661955E+03  0.50677988651E+03  0.45758253202E+03 0.  0.
      99925    2    3    3    0    0 -0.19106300018E+02  0.42500026436E+02  0.19638490470E+02  0.26783767195E+03  0.26302099776E+03 0.  0.
         25    1    3    3    0    0  0.19106300018E+02 -0.42500026436E+02  0.19817812908E+03  0.23894221455E+03  0.12509000000E+03 0.  0.
         25    1    4    4    0    0  0.24470918668E+02  0.41669244200E+00 -0.56584268316E-01  0.12746180132E+03  0.12509000000E+03 0.  0.
         25    1    4    4    0    0 -0.43577218685E+02  0.42083333994E+02  0.19695074738E+02  0.14037587064E+03  0.12509000000E+03 0.  0.
<mgrwt>
<rscale>  2 0.45758253E+03</rscale>
<asrwt>0</asrwt>
<pdfrwt beam="1">  1       21 0.53279155E-01 0.45758253E+03</pdfrwt>
<pdfrwt beam="2">  1       21 0.21247299E-01 0.45758253E+03</pdfrwt>
<totfact> 0.63485579E+04</totfact>
</mgrwt>
</event>
<event>
 7    0  0.4766352E-002  0.4540748E+03  0.7546771E-02  0.1026514E+00
         21   -1    0    0  502  501  0.00000000000E+00  0.00000000000E+00  0.27687213384E+03  0.27687213384E+03  0.00000000000E+00 0. -1.
         21   -1    0    0  501  502 -0.00000000000E+00 -0.00000000000E+00 -0.18617254237E+03  0.18617254237E+03  0.00000000000E+00 0. -1.
      99926    2    1    2    0    0  0.00000000000E+00  0.00000000000E+00  0.90699591462E+02  0.46304467621E+03  0.45407483554E+03 0.  0.
      99925    2    3    3    0    0 -0.66955722695E+02  0.69638702655E+02  0.11563459460E+03  0.30303880072E+03  0.26292306396E+03 0.  0.
         25    1    3    3    0    0  0.66955722695E+02 -0.69638702655E+02 -0.24935003138E+02  0.16000587549E+03  0.12509000000E+03 0.  0.
         25    1    4    4    0    0 -0.65169279731E+02  0.11800011393E+02  0.47558629958E+02  0.14931713456E+03  0.12509000000E+03 0.  0.
         25    1    4    4    0    0 -0.17864429640E+01  0.57838691262E+02  0.68075964642E+02  0.15372166616E+03  0.12509000000E+03 0.  0.
<mgrwt>
<rscale>  2 0.45407484E+03</rscale>
<asrwt>0</asrwt>
<pdfrwt beam="1">  1       21 0.40716490E-01 0.45407484E+03</pdfrwt>
<pdfrwt beam="2">  1       21 0.27378315E-01 0.45407484E+03</pdfrwt>
<totfact> 0.68457704E+04</totfact>
</mgrwt>
</event>
<event>
 7    0  0.4766352E-002  0.4569064E+03  0.7546771E-02  0.1025682E+00
         21   -1    0    0  502  501  0.00000000000E+00  0.00000000000E+00  0.63009686456E+03  0.63009686456E+03  0.00000000000E+00 0.  1.
         21   -1    0    0  501  502 -0.00000000000E+00 -0.00000000000E+00 -0.82829915359E+02  0.82829915359E+02  0.00000000000E+00 0.  1.
      99926    2    1    2    0    0  0.00000000000E+00  0.00000000000E+00  0.54726694920E+03  0.71292677992E+03  0.45690642350E+03 0.  0.
      99925    2    3    3    0    0  0.44961632575E+02  0.47807922867E+02  0.49103099409E+03  0.56088357343E+03  0.26300532293E+03 0.  0.
         25    1    3    3    0    0 -0.44961632575E+02 -0.47807922867E+02  0.56235955109E+02  0.15204320649E+03  0.12509000000E+03 0.  0.
         25    1    4    4    0    0  0.44769076638E+02  0.29924164682E+02  0.18442416444E+03  0.22925860155E+03  0.12509000000E+03 0.  0.
         25    1    4    4    0    0  0.19255593709E+00  0.17883758185E+02  0.30660682965E+03  0.33162497188E+03  0.12509000000E+03 0.  0.
<mgrwt>
<rscale>  2 0.45690642E+03</rscale>
<asrwt>0</asrwt>
<pdfrwt beam="1">  1       21 0.92661301E-01 0.45690642E+03</pdfrwt>
<pdfrwt beam="2">  1       21 0.12180870E-01 0.45690642E+03</pdfrwt>
<totfact> 0.51431038E+04</totfact>
</mgrwt>
</event>
<event>
 7    0  0.4766352E-002  0.4451768E+03  0.7546771E-02  0.1029170E+00
         21   -1    0    0  502  501  0.00000000000E+00  0.00000000000E+00  0.36978313721E+03  0.36978313721E+03  0.00000000000E+00 0.  1.
         21   -1    0    0  501  502 -0.00000000000E+00 -0.00000000000E+00 -0.13398552388E+03  0.13398552388E+03  0.00000000000E+00 0.  1.
      99926    2    1    2    0    0 -0.71054273576E-14  0.00000000000E+00  0.23579761333E+03  0.50376866109E+03  0.44517676202E+03 0.  0.
      99925    2    3    3    0    0  0.46535341837E+02  0.13349158849E+02  0.25341857172E+03  0.36848472133E+03  0.26308986920E+03 0.  0.
         25    1    4    4    0    0 -0.10120815779E+02  0.29566868513E+02  0.13094471358E+03  0.18376794263E+03  0.12509000000E+03 0.  0.
         25    1    4    4    0    0  0.56656157616E+02 -0.16217709665E+02  0.12247385815E+03  0.18471677870E+03  0.12509000000E+03 0.  0.
         25    1    3    3    0    0 -0.46535341837E+02 -0.13349158849E+02 -0.17620958398E+02  0.13528393976E+03  0.12509000000E+03 0.  0.
<mgrwt>
<rscale>  2 0.44517676E+03</rscale>
<asrwt>0</asrwt>
<pdfrwt beam="1">  1       21 0.54379873E-01 0.44517676E+03</pdfrwt>
<pdfrwt beam="2">  1       21 0.19703754E-01 0.44517676E+03</pdfrwt>
<totfact> 0.70331980E+04</totfact>
</mgrwt>
</event>
<event>
 7    0  0.4766352E-002  0.4610149E+03  0.7546771E-02  0.1024487E+00
         21   -1    0    0  502  501  0.00000000000E+00  0.00000000000E+00  0.44765059843E+03  0.44765059843E+03  0.00000000000E+00 0.  1.
         21   -1    0    0  501  502 -0.00000000000E+00 -0.00000000000E+00 -0.11869455918E+03  0.11869455918E+03  0.00000000000E+00 0.  1.
      99926    2    1    2    0    0 -0.88817841970E-15  0.00000000000E+00  0.32895603926E+03  0.56634515761E+03  0.46101492577E+03 0.  0.
      99925    2    3    3    0    0  0.11549786464E+01  0.10940072045E+03  0.26260631200E+03  0.38740481555E+03  0.26296494898E+03 0.  0.
         25    1    4    4    0    0  0.10644345842E+02  0.32783455937E+02  0.77883120984E+02  0.15133190581E+03  0.12509000000E+03 0.  0.
         25    1    4    4    0    0 -0.94893671959E+01  0.76617264512E+02  0.18472319102E+03  0.23607290974E+03  0.12509000000E+03 0.  0.
         25    1    3    3    0    0 -0.11549786464E+01 -0.10940072045E+03  0.66349727254E+02  0.17894034206E+03  0.12509000000E+03 0.  0.
<mgrwt>
<rscale>  2 0.46101493E+03</rscale>
<asrwt>0</asrwt>
<pdfrwt beam="1">  1       21 0.65830970E-01 0.46101493E+03</pdfrwt>
<pdfrwt beam="2">  1       21 0.17455082E-01 0.46101493E+03</pdfrwt>
<totfact> 0.57990885E+04</totfact>
</mgrwt>
</event>
<event>
 7    0  0.4766352E-002  0.4609543E+03  0.7546771E-02  0.1024505E+00
         21   -1    0    0  502  501  0.00000000000E+00  0.00000000000E+00  0.85946094745E+03  0.85946094745E+03  0.00000000000E+00 0.  1.
         21   -1    0    0  501  502 -0.00000000000E+00 -0.00000000000E+00 -0.61805848958E+02  0.61805848958E+02  0.00000000000E+00 0.  1.
      99926    2    1    2    0    0  0.00000000000E+00  0.00000000000E+00  0.79765509849E+03  0.92126679641E+03  0.46095428625E+03 0.  0.
      99925    2    3    3    0    0 -0.75675711770E+02  0.85869953055E+02  0.43653213679E+03  0.52232098084E+03  0.26297992012E+03 0.  0.
         25    1    4    4    0    0 -0.47357596015E+02  0.24008413618E+01  0.20551226234E+03  0.24521685100E+03  0.12509000000E+03 0.  0.
         25    1    3    3    0    0  0.75675711770E+02 -0.85869953055E+02  0.36112296170E+03  0.39894581557E+03  0.12509000000E+03 0.  0.
         25    1    4    4    0    0 -0.28318115755E+02  0.83469111694E+02  0.23101987444E+03  0.27710412984E+03  0.12509000000E+03 0.  0.
<mgrwt>
<rscale>  2 0.46095429E+03</rscale>
<asrwt>0</asrwt>
<pdfrwt beam="1">  1       21 0.12639131E+00 0.46095429E+03</pdfrwt>
<pdfrwt beam="2">  1       21 0.90890959E-02 0.46095429E+03</pdfrwt>
<totfact> 0.40410573E+04</totfact>
</mgrwt>
</event>
<event>
 7    0  0.4766352E-002  0.4481315E+03  0.7546771E-02  0.1028281E+00
         21   -1    0    0  502  501  0.00000000000E+00  0.00000000000E+00  0.73130352097E+02  0.73130352097E+02  0.00000000000E+00 0. -1.
         21   -1    0    0  501  502 -0.00000000000E+00 -0.00000000000E+00 -0.68652002325E+03  0.68652002325E+03  0.00000000000E+00 0. -1.
      99926    2    1    2    0    0  0.00000000000E+00  0.88817841970E-15 -0.61338967116E+03  0.75965037535E+03  0.44813145849E+03 0.  0.
      99925    2    3    3    0    0 -0.10457154166E+03  0.74304016859E+01 -0.42098912674E+03  0.50734917483E+03  0.26302266474E+03 0.  0.
         25    1    4    4    0    0 -0.44601803507E+02  0.12883640579E+02 -0.27629265957E+03  0.30682315900E+03  0.12509000000E+03 0.  0.
         25    1    3    3    0    0  0.10457154166E+03 -0.74304016859E+01 -0.19240054442E+03  0.25230120052E+03  0.12509000000E+03 0.  0.
         25    1    4    4    0    0 -0.59969738154E+02 -0.54532388935E+01 -0.14469646718E+03  0.20052601582E+03  0.12509000000E+03 0.  0.
<mgrwt>
<rscale>  2 0.44813146E+03</rscale>
<asrwt>0</asrwt>
<pdfrwt beam="1">  1       21 0.10754463E-01 0.44813146E+03</pdfrwt>
<pdfrwt beam="2">  1       21 0.10095883E+00 0.44813146E+03</pdfrwt>
<totfact> 0.52555322E+04</totfact>
</mgrwt>
</event>
<event>
 7    0  0.4766352E-002  0.4551047E+03  0.7546771E-02  0.1026211E+00
         21   -1    0    0  502  501  0.00000000000E+00  0.00000000000E+00  0.70984978405E+03  0.70984978405E+03  0.00000000000E+00 0.  1.
         21   -1    0    0  501  502 -0.00000000000E+00 -0.00000000000E+00 -0.72945097983E+02  0.72945097983E+02  0.00000000000E+00 0.  1.
      99926    2    1    2    0    0  0.00000000000E+00  0.00000000000E+00  0.63690468607E+03  0.78279488203E+03  0.45510465632E+03 0.  0.
      99925    2    3    3    0    0  0.10436000432E+03 -0.13141632111E+02  0.32821436174E+03  0.43350855618E+03  0.26294731037E+03 0.  0.
         25    1    4    4    0    0  0.89283728297E+01 -0.11929600633E+01  0.14607826979E+03  0.19252923934E+03  0.12509000000E+03 0.  0.
         25    1    4    4    0    0  0.95431631493E+02 -0.11948672048E+02  0.18213609195E+03  0.24097931684E+03  0.12509000000E+03 0.  0.
         25    1    3    3    0    0 -0.10436000432E+03  0.13141632111E+02  0.30869032433E+03  0.34928632586E+03  0.12509000000E+03 0.  0.
<mgrwt>
<rscale>  2 0.45510466E+03</rscale>
<asrwt>0</asrwt>
<pdfrwt beam="1">  1       21 0.10438967E+00 0.45510466E+03</pdfrwt>
<pdfrwt beam="2">  1       21 0.10727221E-01 0.45510466E+03</pdfrwt>
<totfact> 0.48568390E+04</totfact>
</mgrwt>
</event>
<event>
 7    0  0.4766352E-002  0.4042238E+03  0.7546771E-02  0.1042327E+00
         21   -1    0    0  502  501  0.00000000000E+00  0.00000000000E+00  0.95033712580E+03  0.95033712580E+03  0.00000000000E+00 0.  1.
         21   -1    0    0  501  502 -0.00000000000E+00 -0.00000000000E+00 -0.42983930607E+02  0.42983930607E+02  0.00000000000E+00 0.  1.
      99926    2    1    2    0    0  0.00000000000E+00  0.00000000000E+00  0.90735319519E+03  0.99332105641E+03  0.40422382448E+03 0.  0.
      99925    2    3    3    0    0  0.11229681977E+02 -0.42704325097E+02  0.52990258200E+03  0.59323826668E+03  0.26303066266E+03 0.  0.
         25    1    4    4    0    0  0.71077516775E+01 -0.57270854137E+01  0.34357806063E+03  0.36575498832E+03  0.12509000000E+03 0.  0.
         25    1    3    3    0    0 -0.11229681977E+02  0.42704325097E+02  0.37745061319E+03  0.40008278973E+03  0.12509000000E+03 0.  0.
         25    1    4    4    0    0  0.41219302996E+01 -0.36977239683E+02  0.18632452137E+03  0.22748327835E+03  0.12509000000E+03 0.  0.
<mgrwt>
<rscale>  2 0.40422382E+03</rscale>
<asrwt>0</asrwt>
<pdfrwt beam="1">  1       21 0.13975545E+00 0.40422382E+03</pdfrwt>
<pdfrwt beam="2">  1       21 0.63211669E-02 0.40422382E+03</pdfrwt>
<totfact> 0.59880042E+04</totfact>
</mgrwt>
</event>
<event>
 7    0  0.4766352E-002  0.4419088E+03  0.7546771E-02  0.1030163E+00
         21   -1    0    0  502  501  0.00000000000E+00  0.00000000000E+00  0.20579044046E+03  0.20579044046E+03  0.00000000000E+00 0.  1.
         21   -1    0    0  501  502 -0.00000000000E+00 -0.00000000000E+00 -0.23723570855E+03  0.23723570855E+03  0.00000000000E+00 0.  1.
      99926    2    1    2    0    0 -0.88817841970E-15  0.00000000000E+00 -0.31445268092E+02  0.44302614900E+03  0.44190877318E+03 0.  0.
      99925    2    3    3    0    0 -0.49514435501E+01  0.22514635542E+02  0.77926090643E+02  0.27527327178E+03  0.26300470137E+03 0.  0.
         25    1    3    3    0    0  0.49514435501E+01 -0.22514635542E+02 -0.10937135874E+03  0.16775287723E+03  0.12509000000E+03 0.  0.
         25    1    4    4    0    0 -0.16435245268E+02  0.49353479566E+02  0.36463658745E+02  0.14029607885E+03  0.12509000000E+03 0.  0.
         25    1    4    4    0    0  0.11483801718E+02 -0.26838844025E+02  0.41462431899E+02  0.13497719292E+03  0.12509000000E+03 0.  0.
<mgrwt>
<rscale>  2 0.44190877E+03</rscale>
<asrwt>0</asrwt>
<pdfrwt beam="1">  1       21 0.30263300E-01 0.44190877E+03</pdfrwt>
<pdfrwt beam="2">  1       21 0.34887604E-01 0.44190877E+03</pdfrwt>
<totfact> 0.77184522E+04</totfact>
</mgrwt>
</event>
<event>
 7    0  0.4766352E-002  0.4147661E+03  0.7546771E-02  0.1038783E+00
         21   -1    0    0  502  501  0.00000000000E+00  0.00000000000E+00  0.95265804222E+02  0.95265804222E+02  0.00000000000E+00 0. -1.
         21   -1    0    0  501  502 -0.00000000000E+00 -0.00000000000E+00 -0.45144974368E+03  0.45144974368E+03  0.00000000000E+00 0. -1.
      99926    2    1    2    0    0  0.00000000000E+00  0.14210854715E-13 -0.35618393946E+03  0.54671554791E+03  0.41476606852E+03 0.  0.
      99925    2    3    3    0    0  0.29112140995E+01 -0.67734517327E+02 -0.21631096845E+03  0.34719513260E+03  0.26297829763E+03 0.  0.
         25    1    4    4    0    0  0.45160419700E+01 -0.68027259170E+02 -0.85293417756E+02  0.16604390334E+03  0.12509000000E+03 0.  0.
         25    1    3    3    0    0 -0.29112140995E+01  0.67734517327E+02 -0.13987297101E+03  0.19952041531E+03  0.12509000000E+03 0.  0.
         25    1    4    4    0    0 -0.16048278704E+01  0.29274184274E+00 -0.13101755070E+03  0.18115122926E+03  0.12509000000E+03 0.  0.
<mgrwt>
<rscale>  2 0.41476607E+03</rscale>
<asrwt>0</asrwt>
<pdfrwt beam="1">  1       21 0.14009677E-01 0.41476607E+03</pdfrwt>
<pdfrwt beam="2">  1       21 0.66389668E-01 0.41476607E+03</pdfrwt>
<totfact> 0.86505797E+04</totfact>
</mgrwt>
</event>
<event>
 7    0  0.4766352E-002  0.4563442E+03  0.7546771E-02  0.1025847E+00
         21   -1    0    0  502  501  0.00000000000E+00  0.00000000000E+00  0.99788912045E+02  0.99788912045E+02  0.00000000000E+00 0. -1.
         21   -1    0    0  501  502 -0.00000000000E+00 -0.00000000000E+00 -0.52172640768E+03  0.52172640768E+03  0.00000000000E+00 0. -1.
      99926    2    1    2    0    0  0.00000000000E+00  0.66613381478E-15 -0.42193749563E+03  0.62151531972E+03  0.45634421485E+03 0.  0.
      99925    2    3    3    0    0  0.11127270806E+03  0.10373636821E+01 -0.30138589268E+03  0.41520756719E+03  0.26302314700E+03 0.  0.
         25    1    3    3    0    0 -0.11127270806E+03 -0.10373636821E+01 -0.12055160295E+03  0.20630775254E+03  0.12509000000E+03 0.  0.
         25    1    4    4    0    0  0.64432410585E+02 -0.26875607709E+02 -0.19611551037E+03  0.24286340880E+03  0.12509000000E+03 0.  0.
         25    1    4    4    0    0  0.46840297477E+02  0.27912971391E+02 -0.10527038231E+03  0.17234415839E+03  0.12509000000E+03 0.  0.
<mgrwt>
<rscale>  2 0.45634421E+03</rscale>
<asrwt>0</asrwt>
<pdfrwt beam="1">  1       21 0.14674840E-01 0.45634421E+03</pdfrwt>
<pdfrwt beam="2">  1       21 0.76724471E-01 0.45634421E+03</pdfrwt>
<totfact> 0.56768156E+04</totfact>
</mgrwt>
</event>
<event>
 7    0  0.4766352E-002  0.3989458E+03  0.7546771E-02  0.1044145E+00
         21   -1    0    0  502  501  0.00000000000E+00  0.00000000000E+00  0.19727141744E+03  0.19727141744E+03  0.00000000000E+00 0. -1.
         21   -1    0    0  501  502 -0.00000000000E+00 -0.00000000000E+00 -0.20169895451E+03  0.20169895451E+03  0.00000000000E+00 0. -1.
      99926    2    1    2    0    0  0.00000000000E+00 -0.71054273576E-14 -0.44275370658E+01  0.39897037195E+03  0.39894580410E+03 0.  0.
      99925    2    3    3    0    0  0.19929519338E+02 -0.37873697720E+02  0.35216662382E+01  0.26652302145E+03  0.26304090197E+03 0.  0.
         25    1    4    4    0    0  0.18416930562E+01  0.84941091869E+01 -0.27489983046E+02  0.12836957970E+03  0.12509000000E+03 0.  0.
         25    1    3    3    0    0 -0.19929519338E+02  0.37873697720E+02 -0.79492033040E+01  0.13244735050E+03  0.12509000000E+03 0.  0.
         25    1    4    4    0    0  0.18087826282E+02 -0.46367806907E+02  0.31011649285E+02  0.13815344175E+03  0.12509000000E+03 0.  0.
<mgrwt>
<rscale>  2 0.39894580E+03</rscale>
<asrwt>0</asrwt>
<pdfrwt beam="1">  1       21 0.29010503E-01 0.39894580E+03</pdfrwt>
<pdfrwt beam="2">  1       21 0.29661611E-01 0.39894580E+03</pdfrwt>
<totfact> 0.11711200E+05</totfact>
</mgrwt>
</event>
<event>
 7    0  0.4766352E-002  0.4513284E+03  0.7546771E-02  0.1027327E+00
         21   -1    0    0  502  501  0.00000000000E+00  0.00000000000E+00  0.39999424613E+03  0.39999424613E+03  0.00000000000E+00 0.  1.
         21   -1    0    0  501  502 -0.00000000000E+00 -0.00000000000E+00 -0.12731265627E+03  0.12731265627E+03  0.00000000000E+00 0.  1.
      99926    2    1    2    0    0  0.00000000000E+00  0.00000000000E+00  0.27268158985E+03  0.52730690240E+03  0.45132839471E+03 0.  0.
      99925    2    3    3    0    0  0.73793192874E+02 -0.76125784389E+02  0.13904634857E+03  0.31577332072E+03  0.26294169062E+03 0.  0.
         25    1    3    3    0    0 -0.73793192874E+02  0.76125784389E+02  0.13363524128E+03  0.21153358167E+03  0.12509000000E+03 0.  0.
         25    1    4    4    0    0  0.45355856159E+01 -0.29462704612E+02  0.92239058588E+02  0.15825351348E+03  0.12509000000E+03 0.  0.
         25    1    4    4    0    0  0.69257607259E+02 -0.46663079777E+02  0.46807289983E+02  0.15751980724E+03  0.12509000000E+03 0.  0.
<mgrwt>
<rscale>  2 0.45132839E+03</rscale>
<asrwt>0</asrwt>
<pdfrwt beam="1">  1       21 0.58822683E-01 0.45132839E+03</pdfrwt>
<pdfrwt beam="2">  1       21 0.18722450E-01 0.45132839E+03</pdfrwt>
<totfact> 0.65267945E+04</totfact>
</mgrwt>
</event>
<event>
 7    0  0.4766352E-002  0.4534466E+03  0.7546771E-02  0.1026699E+00
         21   -1    0    0  502  501  0.00000000000E+00  0.00000000000E+00  0.22979049548E+03  0.22979049548E+03  0.00000000000E+00 0.  1.
         21   -1    0    0  501  502 -0.00000000000E+00 -0.00000000000E+00 -0.22369706185E+03  0.22369706185E+03  0.00000000000E+00 0.  1.
      99926    2    1    2    0    0  0.00000000000E+00  0.00000000000E+00  0.60934336277E+01  0.45348755733E+03  0.45344661728E+03 0.  0.
      99925    2    3    3    0    0  0.72755924484E+02  0.83581343235E+02  0.17818636407E+02  0.28596366660E+03  0.26301796389E+03 0.  0.
         25    1    4    4    0    0 -0.52916462213E+01  0.44016040122E+02  0.59998066624E+01  0.13284923443E+03  0.12509000000E+03 0.  0.
         25    1    3    3    0    0 -0.72755924484E+02 -0.83581343235E+02 -0.11725202780E+02  0.16752389073E+03  0.12509000000E+03 0.  0.
         25    1    4    4    0    0  0.78047570705E+02  0.39565303113E+02  0.11818829745E+02  0.15311443217E+03  0.12509000000E+03 0.  0.
<mgrwt>
<rscale>  2 0.45344662E+03</rscale>
<asrwt>0</asrwt>
<pdfrwt beam="1">  1       21 0.33792720E-01 0.45344662E+03</pdfrwt>
<pdfrwt beam="2">  1       21 0.32896626E-01 0.45344662E+03</pdfrwt>
<totfact> 0.69514334E+04</totfact>
</mgrwt>
</event>
<event>
 7    0  0.4766352E-002  0.4630634E+03  0.7546771E-02  0.1023896E+00
         21   -1    0    0  502  501  0.00000000000E+00  0.00000000000E+00  0.16098021842E+04  0.16098021842E+04  0.00000000000E+00 0. -1.
         21   -1    0    0  501  502 -0.00000000000E+00 -0.00000000000E+00 -0.33300319400E+02  0.33300319400E+02  0.00000000000E+00 0. -1.
      99926    2    1    2    0    0  0.00000000000E+00  0.00000000000E+00  0.15765018648E+04  0.16431025036E+04  0.46306339482E+03 0.  0.
      99925    2    3    3    0    0  0.60146911965E+02  0.10211010936E+03  0.90463131907E+03  0.94948757890E+03  0.26291579181E+03 0.  0.
         25    1    3    3    0    0 -0.60146911965E+02 -0.10211010936E+03  0.67187054574E+03  0.69361492472E+03  0.12509000000E+03 0.  0.
         25    1    4    4    0    0  0.12198400051E+02  0.84109852913E+02  0.42173826002E+03  0.44803340990E+03  0.12509000000E+03 0.  0.
         25    1    4    4    0    0  0.47948511914E+02  0.18000256448E+02  0.48289305905E+03  0.50145416900E+03  0.12509000000E+03 0.  0.
<mgrwt>
<rscale>  2 0.46306339E+03</rscale>
<asrwt>0</asrwt>
<pdfrwt beam="1">  1       21 0.23673556E+00 0.46306339E+03</pdfrwt>
<pdfrwt beam="2">  1       21 0.48971069E-02 0.46306339E+03</pdfrwt>
<totfact> 0.19240022E+04</totfact>
</mgrwt>
</event>
<event>
 7    0  0.4766352E-002  0.4526728E+03  0.7546771E-02  0.1026928E+00
         21   -1    0    0  502  501  0.00000000000E+00  0.00000000000E+00  0.53129083004E+03  0.53129083004E+03  0.00000000000E+00 0.  1.
         21   -1    0    0  501  502 -0.00000000000E+00 -0.00000000000E+00 -0.96422097317E+02  0.96422097317E+02  0.00000000000E+00 0.  1.
      99926    2    1    2    0    0  0.00000000000E+00  0.55511151231E-16  0.43486873273E+03  0.62771292736E+03  0.45267284486E+03 0.  0.
      99925    2    3    3    0    0  0.96708873888E+02  0.47493836352E+00  0.34955012696E+03  0.44804767072E+03  0.26307525942E+03 0.  0.
         25    1    4    4    0    0  0.33952253337E+02 -0.92267730734E+01  0.10912156554E+03  0.16968474596E+03  0.12509000000E+03 0.  0.
         25    1    4    4    0    0  0.62756620551E+02  0.97017114369E+01  0.24042856143E+03  0.27836292475E+03  0.12509000000E+03 0.  0.
         25    1    3    3    0    0 -0.96708873888E+02 -0.47493836352E+00  0.85318605765E+02  0.17966525664E+03  0.12509000000E+03 0.  0.
<mgrwt>
<rscale>  2 0.45267284E+03</rscale>
<asrwt>0</asrwt>
<pdfrwt beam="1">  1       21 0.78131004E-01 0.45267284E+03</pdfrwt>
<pdfrwt beam="2">  1       21 0.14179720E-01 0.45267284E+03</pdfrwt>
<totfact> 0.58063478E+04</totfact>
</mgrwt>
</event>
<event>
 7    0  0.4766352E-002  0.4551651E+03  0.7546771E-02  0.1026193E+00
         21   -1    0    0  502  501  0.00000000000E+00  0.00000000000E+00  0.40321900768E+03  0.40321900768E+03  0.00000000000E+00 0.  1.
         21   -1    0    0  501  502 -0.00000000000E+00 -0.00000000000E+00 -0.12845082448E+03  0.12845082448E+03  0.00000000000E+00 0.  1.
      99926    2    1    2    0    0  0.00000000000E+00  0.00000000000E+00  0.27476818320E+03  0.53166983216E+03  0.45516508646E+03 0.  0.
      99925    2    3    3    0    0 -0.80158003187E+02 -0.25517546024E+02  0.26151681969E+03  0.38034383517E+03  0.26304740132E+03 0.  0.
         25    1    4    4    0    0 -0.45187053638E+02  0.11524412834E+02  0.17436120325E+03  0.21959967943E+03  0.12509000000E+03 0.  0.
         25    1    4    4    0    0 -0.34970949549E+02 -0.37041958859E+02  0.87155616442E+02  0.16074415574E+03  0.12509000000E+03 0.  0.
         25    1    3    3    0    0  0.80158003187E+02  0.25517546024E+02  0.13251363509E+02  0.15132599699E+03  0.12509000000E+03 0.  0.
<mgrwt>
<rscale>  2 0.45516509E+03</rscale>
<asrwt>0</asrwt>
<pdfrwt beam="1">  1       21 0.59296913E-01 0.45516509E+03</pdfrwt>
<pdfrwt beam="2">  1       21 0.18889827E-01 0.45516509E+03</pdfrwt>
<totfact> 0.63011126E+04</totfact>
</mgrwt>
</event>
<event>
 7    0  0.4766352E-002  0.4576447E+03  0.7546771E-02  0.1025467E+00
         21   -1    0    0  502  501  0.00000000000E+00  0.00000000000E+00  0.33966661962E+03  0.33966661962E+03  0.00000000000E+00 0. -1.
         21   -1    0    0  501  502 -0.00000000000E+00 -0.00000000000E+00 -0.15415015759E+03  0.15415015759E+03  0.00000000000E+00 0. -1.
      99926    2    1    2    0    0  0.00000000000E+00  0.00000000000E+00  0.18551646203E+03  0.49381677721E+03  0.45764467851E+03 0.  0.
      99925    2    3    3    0    0 -0.48971320902E+02 -0.96608278465E+02  0.72905314943E+02  0.29366651294E+03  0.26304654747E+03 0.  0.
         25    1    4    4    0    0 -0.35663489225E+02 -0.87881338679E+02  0.54829668975E+02  0.16627932779E+03  0.12509000000E+03 0.  0.
         25    1    3    3    0    0  0.48971320902E+02  0.96608278465E+02  0.11261114709E+03  0.20015026427E+03  0.12509000000E+03 0.  0.
         25    1    4    4    0    0 -0.13307831677E+02 -0.87269397867E+01  0.18075645969E+02  0.12738718514E+03  0.12509000000E+03 0.  0.
<mgrwt>
<rscale>  2 0.45764468E+03</rscale>
<asrwt>0</asrwt>
<pdfrwt beam="1">  1       21 0.49950974E-01 0.45764468E+03</pdfrwt>
<pdfrwt beam="2">  1       21 0.22669141E-01 0.45764468E+03</pdfrwt>
<totfact> 0.64345668E+04</totfact>
</mgrwt>
</event>
<event>
 7    0  0.4766352E-002  0.4512114E+03  0.7546771E-02  0.1027361E+00
         21   -1    0    0  502  501  0.00000000000E+00  0.00000000000E+00  0.10682420726E+03  0.10682420726E+03  0.00000000000E+00 0.  1.
         21   -1    0    0  501  502 -0.00000000000E+00 -0.00000000000E+00 -0.47646441319E+03  0.47646441319E+03  0.00000000000E+00 0.  1.
      99926    2    1    2    0    0  0.00000000000E+00 -0.35527136788E-14 -0.36964020593E+03  0.58328862044E+03  0.45121140600E+03 0.  0.
      99925    2    3    3    0    0 -0.93442041818E+02  0.18348215522E+02 -0.30333906583E+03  0.41266792571E+03  0.26308203257E+03 0.  0.
         25    1    3    3    0    0  0.93442041818E+02 -0.18348215522E+02 -0.66301140099E+02  0.17062069473E+03  0.12509000000E+03 0.  0.
         25    1    4    4    0    0 -0.19179737945E+02 -0.14614367445E+02 -0.10882698140E+03  0.16754779039E+03  0.12509000000E+03 0.  0.
         25    1    4    4    0    0 -0.74262303873E+02  0.32962582966E+02 -0.19451208443E+03  0.24512013532E+03  0.12509000000E+03 0.  0.
<mgrwt>
<rscale>  2 0.45121141E+03</rscale>
<asrwt>0</asrwt>
<pdfrwt beam="1">  1       21 0.15709443E-01 0.45121141E+03</pdfrwt>
<pdfrwt beam="2">  1       21 0.70068295E-01 0.45121141E+03</pdfrwt>
<totfact> 0.61541329E+04</totfact>
</mgrwt>
</event>
<event>
 7    0  0.4766352E-002  0.4612647E+03  0.7546771E-02  0.1024415E+00
         21   -1    0    0  502  501  0.00000000000E+00  0.00000000000E+00  0.31457859438E+03  0.31457859438E+03  0.00000000000E+00 0.  1.
         21   -1    0    0  501  502 -0.00000000000E+00 -0.00000000000E+00 -0.16908739625E+03  0.16908739625E+03  0.00000000000E+00 0.  1.
      99926    2    1    2    0    0  0.00000000000E+00  0.00000000000E+00  0.14549119813E+03  0.48366599064E+03  0.46126467648E+03 0.  0.
      99925    2    3    3    0    0 -0.84544927812E+02 -0.28725793554E+02  0.84743633208E+01  0.27776762456E+03  0.26288785134E+03 0.  0.
         25    1    4    4    0    0 -0.46950948180E+02 -0.31971804177E+02 -0.31854813456E+02  0.14102774563E+03  0.12509000000E+03 0.  0.
         25    1    4    4    0    0 -0.37593979633E+02  0.32460106232E+01  0.40329176776E+02  0.13673987893E+03  0.12509000000E+03 0.  0.
         25    1    3    3    0    0  0.84544927812E+02  0.28725793554E+02  0.13701683481E+03  0.20589836608E+03  0.12509000000E+03 0.  0.
<mgrwt>
<rscale>  2 0.46126468E+03</rscale>
<asrwt>0</asrwt>
<pdfrwt beam="1">  1       21 0.46261558E-01 0.46126468E+03</pdfrwt>
<pdfrwt beam="2">  1       21 0.24865793E-01 0.46126468E+03</pdfrwt>
<totfact> 0.63231027E+04</totfact>
</mgrwt>
</event>
<event>
 7    0  0.4766352E-002  0.4421883E+03  0.7546771E-02  0.1030077E+00
         21   -1    0    0  502  501  0.00000000000E+00  0.00000000000E+00  0.22606481946E+03  0.22606481946E+03  0.00000000000E+00 0.  1.
         21   -1    0    0  501  502 -0.00000000000E+00 -0.00000000000E+00 -0.21623279910E+03  0.21623279910E+03  0.00000000000E+00 0.  1.
      99926    2    1    2    0    0  0.00000000000E+00  0.00000000000E+00  0.98320203583E+01  0.44229761855E+03  0.44218832499E+03 0.  0.
      99925    2    3    3    0    0 -0.65672744686E+02 -0.76335177272E+02  0.75557827961E+01  0.28169669066E+03  0.26297522125E+03 0.  0.
         25    1    4    4    0    0 -0.48758205918E+02 -0.73932146979E+02 -0.12858407772E+02  0.15380562978E+03  0.12509000000E+03 0.  0.
         25    1    4    4    0    0 -0.16914538769E+02 -0.24030302929E+01  0.20414190568E+02  0.12789106088E+03  0.12509000000E+03 0.  0.
         25    1    3    3    0    0  0.65672744686E+02  0.76335177272E+02  0.22762375622E+01  0.16060092790E+03  0.12509000000E+03 0.  0.
<mgrwt>
<rscale>  2 0.44218832E+03</rscale>
<asrwt>0</asrwt>
<pdfrwt beam="1">  1       21 0.33244827E-01 0.44218832E+03</pdfrwt>
<pdfrwt beam="2">  1       21 0.31798941E-01 0.44218832E+03</pdfrwt>
<totfact> 0.77068596E+04</totfact>
</mgrwt>
</event>
<event>
 7    0  0.4766352E-002  0.3985879E+03  0.7546771E-02  0.1044270E+00
         21   -1    0    0  502  501  0.00000000000E+00  0.00000000000E+00  0.25558869571E+03  0.25558869571E+03  0.00000000000E+00 0.  1.
         21   -1    0    0  501  502 -0.00000000000E+00 -0.00000000000E+00 -0.15539845458E+03  0.15539845458E+03  0.00000000000E+00 0.  1.
      99926    2    1    2    0    0  0.17763568394E-14  0.00000000000E+00  0.10019024114E+03  0.41098715029E+03  0.39858794925E+03 0.  0.
      99925    2    3    3    0    0  0.13638957724E+02  0.33874314471E+02  0.88557821403E+02  0.28015782774E+03  0.26327254009E+03 0.  0.
         25    1    4    4    0    0 -0.24197240533E+02  0.26886929000E+02  0.70409626210E+02  0.14803187820E+03  0.12509000000E+03 0.  0.
         25    1    3    3    0    0 -0.13638957724E+02 -0.33874314471E+02  0.11632419735E+02  0.13082932255E+03  0.12509000000E+03 0.  0.
         25    1    4    4    0    0  0.37836198257E+02  0.69873854709E+01  0.18148195192E+02  0.13212594954E+03  0.12509000000E+03 0.  0.
<mgrwt>
<rscale>  2 0.39858795E+03</rscale>
<asrwt>0</asrwt>
<pdfrwt beam="1">  1       21 0.37586573E-01 0.39858795E+03</pdfrwt>
<pdfrwt beam="2">  1       21 0.22852714E-01 0.39858795E+03</pdfrwt>
<totfact> 0.11588341E+05</totfact>
</mgrwt>
</event>
<event>
 7    0  0.4766352E-002  0.4569391E+03  0.7546771E-02  0.1025673E+00
         21   -1    0    0  502  501  0.00000000000E+00  0.00000000000E+00  0.23584497015E+03  0.23584497015E+03  0.00000000000E+00 0. -1.
         21   -1    0    0  501  502 -0.00000000000E+00 -0.00000000000E+00 -0.22132475513E+03  0.22132475513E+03  0.00000000000E+00 0. -1.
      99926    2    1    2    0    0  0.00000000000E+00  0.00000000000E+00  0.14520215017E+02  0.45716972527E+03  0.45693907807E+03 0.  0.
      99925    2    3    3    0    0  0.10417490612E+03 -0.46484170917E+02 -0.50720581913E+01  0.28674509536E+03  0.26302820139E+03 0.  0.
         25    1    4    4    0    0  0.73514466356E+02 -0.38484116023E+02  0.29879318379E+02  0.15305451877E+03  0.12509000000E+03 0.  0.
         25    1    4    4    0    0  0.30660439766E+02 -0.80000548931E+01 -0.34951376571E+02  0.13369057659E+03  0.12509000000E+03 0.  0.
         25    1    3    3    0    0 -0.10417490612E+03  0.46484170917E+02  0.19592273208E+02  0.17042462991E+03  0.12509000000E+03 0.  0.
<mgrwt>
<rscale>  2 0.45693908E+03</rscale>
<asrwt>0</asrwt>
<pdfrwt beam="1">  1       21 0.34683084E-01 0.45693908E+03</pdfrwt>
<pdfrwt beam="2">  1       21 0.32547758E-01 0.45693908E+03</pdfrwt>
<totfact> 0.67339241E+04</totfact>
</mgrwt>
</event>
<event>
 7    0  0.4766352E-002  0.4288852E+03  0.7546771E-02  0.1034213E+00
         21   -1    0    0  502  501  0.00000000000E+00  0.00000000000E+00  0.10506716364E+04  0.10506716364E+04  0.00000000000E+00 0.  1.
         21   -1    0    0  501  502 -0.00000000000E+00 -0.00000000000E+00 -0.43767835228E+02  0.43767835228E+02  0.00000000000E+00 0.  1.
      99926    2    1    2    0    0  0.88817841970E-15  0.71054273576E-14  0.10069038011E+04  0.10944394716E+04  0.42888517372E+03 0.  0.
      99925    2    3    3    0    0  0.53160644169E+01  0.41866265752E+02  0.84240441352E+03  0.88351625956E+03  0.26301091277E+03 0.  0.
         25    1    4    4    0    0  0.17941537717E+01  0.30170376472E+02  0.55683328514E+03  0.57151053021E+03  0.12509000000E+03 0.  0.
         25    1    3    3    0    0 -0.53160644169E+01 -0.41866265752E+02  0.16449938762E+03  0.21092321204E+03  0.12509000000E+03 0.  0.
         25    1    4    4    0    0  0.35219106452E+01  0.11695889280E+02  0.28557112838E+03  0.31200572935E+03  0.12509000000E+03 0.  0.
<mgrwt>
<rscale>  2 0.42888517E+03</rscale>
<asrwt>0</asrwt>
<pdfrwt beam="1">  1       21 0.15451052E+00 0.42888517E+03</pdfrwt>
<pdfrwt beam="2">  1       21 0.64364470E-02 0.42888517E+03</pdfrwt>
<totfact> 0.43989257E+04</totfact>
</mgrwt>
</event>
<event>
 7    0  0.4766352E-002  0.4579191E+03  0.7546771E-02  0.1025386E+00
         21   -1    0    0  502  501  0.00000000000E+00  0.00000000000E+00  0.89409921948E+02  0.89409921948E+02  0.00000000000E+00 0. -1.
         21   -1    0    0  501  502 -0.00000000000E+00 -0.00000000000E+00 -0.58631597754E+03  0.58631597754E+03  0.00000000000E+00 0. -1.
      99926    2    1    2    0    0  0.00000000000E+00 -0.71054273576E-14 -0.49690605560E+03  0.67572589949E+03  0.45791905743E+03 0.  0.
      99925    2    3    3    0    0  0.36995024921E+02  0.46408120635E+02 -0.16483416776E+03  0.31594597743E+03  0.26292434703E+03 0.  0.
         25    1    3    3    0    0 -0.36995024921E+02 -0.46408120635E+02 -0.33207188783E+03  0.35977992206E+03  0.12509000000E+03 0.  0.
         25    1    4    4    0    0  0.24302491734E+02  0.59292146250E+02 -0.10856722214E+03  0.17759650766E+03  0.12509000000E+03 0.  0.
         25    1    4    4    0    0  0.12692533187E+02 -0.12884025615E+02 -0.56266945627E+02  0.13834946977E+03  0.12509000000E+03 0.  0.
<mgrwt>
<rscale>  2 0.45791906E+03</rscale>
<asrwt>0</asrwt>
<pdfrwt beam="1">  1       21 0.13148518E-01 0.45791906E+03</pdfrwt>
<pdfrwt beam="2">  1       21 0.86222937E-01 0.45791906E+03</pdfrwt>
<totfact> 0.53011050E+04</totfact>
</mgrwt>
</event>
<event>
 6    0  0.4766352E-002  0.4500444E+03  0.7546771E-02  0.1027709E+00
         21   -1    0    0  502  501  0.00000000000E+00  0.00000000000E+00  0.73565639050E+03  0.73565639050E+03  0.00000000000E+00 0.  1.
         21   -1    0    0  501  502 -0.00000000000E+00 -0.00000000000E+00 -0.68829681691E+02  0.68829681691E+02  0.00000000000E+00 0.  1.
      99926    2    1    2    0    0  0.00000000000E+00  0.00000000000E+00  0.66682670881E+03  0.80448607219E+03  0.45004442088E+03 0.  0.
         25    1    3    3    0    0 -0.52105182619E+02 -0.57154308082E+02  0.17653739530E+03  0.22977059217E+03  0.12509000000E+03 0.  0.
         25    1    3    3    0    0 -0.10033339773E+01 -0.30346312794E+02  0.29043559514E+03  0.31768262213E+03  0.12509000000E+03 0.  0.
         25    1    3    3    0    0  0.53108516596E+02  0.87500620876E+02  0.19985371837E+03  0.25703285789E+03  0.12509000000E+03 0.  0.
<mgrwt>
<rscale>  2 0.45004442E+03</rscale>
<asrwt>0</asrwt>
<pdfrwt beam="1">  1       21 0.10818476E+00 0.45004442E+03</pdfrwt>
<pdfrwt beam="2">  1       21 0.10122012E-01 0.45004442E+03</pdfrwt>
<totfact> 0.49443549E+04</totfact>
</mgrwt>
</event>
<event>
 7    0  0.4766352E-002  0.4436509E+03  0.7546771E-02  0.1029633E+00
         21   -1    0    0  502  501  0.00000000000E+00  0.00000000000E+00  0.47396498376E+03  0.47396498376E+03  0.00000000000E+00 0.  1.
         21   -1    0    0  501  502 -0.00000000000E+00 -0.00000000000E+00 -0.10381889641E+03  0.10381889641E+03  0.00000000000E+00 0.  1.
      99926    2    1    2    0    0 -0.71054273576E-14  0.14210854715E-13  0.37014608734E+03  0.57778388017E+03  0.44365086071E+03 0.  0.
      99925    2    3    3    0    0 -0.34968200203E+02  0.96372032388E+02  0.22332003140E+03  0.35934454659E+03  0.26219520035E+03 0.  0.
         25    1    4    4    0    0 -0.39780580436E+02  0.58657561145E+02  0.15650868934E+03  0.21252219178E+03  0.12509000000E+03 0.  0.
         25    1    4    4    0    0  0.48123802331E+01  0.37714471244E+02  0.66811342060E+02  0.14682235481E+03  0.12509000000E+03 0.  0.
         25    1    3    3    0    0  0.34968200203E+02 -0.96372032388E+02  0.14682605594E+03  0.21843933358E+03  0.12509000000E+03 0.  0.
<mgrwt>
<rscale>  2 0.44365086E+03</rscale>
<asrwt>0</asrwt>
<pdfrwt beam="1">  1       21 0.69700732E-01 0.44365086E+03</pdfrwt>
<pdfrwt beam="2">  1       21 0.15267485E-01 0.44365086E+03</pdfrwt>
<totfact> 0.65772792E+04</totfact>
</mgrwt>
</event>
<event>
 7    0  0.4766352E-002  0.4545166E+03  0.7546771E-02  0.1026384E+00
         21   -1    0    0  502  501  0.00000000000E+00  0.00000000000E+00  0.54043069021E+02  0.54043069021E+02  0.00000000000E+00 0. -1.
         21   -1    0    0  501  502 -0.00000000000E+00 -0.00000000000E+00 -0.95565119829E+03  0.95565119829E+03  0.00000000000E+00 0. -1.
      99926    2    1    2    0    0  0.00000000000E+00  0.00000000000E+00 -0.90160812927E+03  0.10096942673E+04  0.45451655050E+03 0.  0.
      99925    2    3    3    0    0 -0.40356219758E+02  0.10372800769E+03 -0.60711957741E+03  0.67093308398E+03  0.26299980582E+03 0.  0.
         25    1    4    4    0    0 -0.42340624701E+02  0.82679355532E+02 -0.28649112618E+03  0.32611850271E+03  0.12509000000E+03 0.  0.
         25    1    3    3    0    0  0.40356219758E+02 -0.10372800769E+03 -0.29448855186E+03  0.33876118333E+03  0.12509000000E+03 0.  0.
         25    1    4    4    0    0  0.19844049433E+01  0.21048652158E+02 -0.32062845123E+03  0.34481458127E+03  0.12509000000E+03 0.  0.
<mgrwt>
<rscale>  2 0.45451655E+03</rscale>
<asrwt>0</asrwt>
<pdfrwt beam="1">  1       21 0.79475107E-02 0.45451655E+03</pdfrwt>
<pdfrwt beam="2">  1       21 0.14053693E+00 0.45451655E+03</pdfrwt>
<totfact> 0.38938618E+04</totfact>
</mgrwt>
</event>
<event>
 7    0  0.4766352E-002  0.4530228E+03  0.7546771E-02  0.1026824E+00
         21   -1    0    0  502  501  0.00000000000E+00  0.00000000000E+00  0.15687935036E+04  0.15687935036E+04  0.00000000000E+00 0.  1.
         21   -1    0    0  501  502 -0.00000000000E+00 -0.00000000000E+00 -0.32705021151E+02  0.32705021151E+02  0.00000000000E+00 0.  1.
      99926    2    1    2    0    0  0.00000000000E+00  0.00000000000E+00  0.15360884825E+04  0.16014985248E+04  0.45302284586E+03 0.  0.
      99925    2    3    3    0    0 -0.14998873356E+02  0.92979501928E+02  0.11776548478E+04  0.12103561817E+04  0.26309882564E+03 0.  0.
         25    1    3    3    0    0  0.14998873356E+02 -0.92979501928E+02  0.35843363470E+03  0.39114234310E+03  0.12509000000E+03 0.  0.
         25    1    4    4    0    0  0.17855932250E+02  0.12772657867E+02  0.56189070743E+03  0.57606479697E+03  0.12509000000E+03 0.  0.
         25    1    4    4    0    0 -0.32854805606E+02  0.80206844061E+02  0.61576414033E+03  0.63429138470E+03  0.12509000000E+03 0.  0.
<mgrwt>
<rscale>  2 0.45302285E+03</rscale>
<asrwt>0</asrwt>
<pdfrwt beam="1">  1       21 0.23070488E+00 0.45302285E+03</pdfrwt>
<pdfrwt beam="2">  1       21 0.48095630E-02 0.45302285E+03</pdfrwt>
<totfact> 0.21727615E+04</totfact>
</mgrwt>
</event>
<event>
 7    0  0.4766352E-002  0.4526961E+03  0.7546771E-02  0.1026921E+00
         21   -1    0    0  502  501  0.00000000000E+00  0.00000000000E+00  0.14234076582E+03  0.14234076582E+03  0.00000000000E+00 0.  1.
         21   -1    0    0  501  502 -0.00000000000E+00 -0.00000000000E+00 -0.35993509992E+03  0.35993509992E+03  0.00000000000E+00 0.  1.
      99926    2    1    2    0    0 -0.22204460493E-14  0.17763568394E-14 -0.21759433410E+03  0.50227586574E+03  0.45269609129E+03 0.  0.
      99925    2    3    3    0    0  0.26200674042E+01  0.71545648640E+01 -0.26007670517E+03  0.36994932833E+03  0.26299155958E+03 0.  0.
         25    1    4    4    0    0  0.23316155946E+02 -0.12731780558E+02 -0.87787696962E+02  0.15511263392E+03  0.12509000000E+03 0.  0.
         25    1    3    3    0    0 -0.26200674042E+01 -0.71545648640E+01  0.42482371070E+02  0.13232653741E+03  0.12509000000E+03 0.  0.
         25    1    4    4    0    0 -0.20696088542E+02  0.19886345422E+02 -0.17228900821E+03  0.21483669441E+03  0.12509000000E+03 0.  0.
<mgrwt>
<rscale>  2 0.45269609E+03</rscale>
<asrwt>0</asrwt>
<pdfrwt beam="1">  1       21 0.20932466E-01 0.45269609E+03</pdfrwt>
<pdfrwt beam="2">  1       21 0.52931632E-01 0.45269609E+03</pdfrwt>
<totfact> 0.66315532E+04</totfact>
</mgrwt>
</event>
<event>
 7    0  0.4766352E-002  0.4517316E+03  0.7546771E-02  0.1027207E+00
         21   -1    0    0  502  501  0.00000000000E+00  0.00000000000E+00  0.20056519129E+03  0.20056519129E+03  0.00000000000E+00 0.  1.
         21   -1    0    0  501  502 -0.00000000000E+00 -0.00000000000E+00 -0.25435802343E+03  0.25435802343E+03  0.00000000000E+00 0.  1.
      99926    2    1    2    0    0  0.00000000000E+00  0.71054273576E-14 -0.53792832138E+02  0.45492321472E+03  0.45173162664E+03 0.  0.
      99925    2    3    3    0    0  0.58271900151E+02 -0.58533885975E+02  0.39405792905E+02  0.27841451249E+03  0.26294484991E+03 0.  0.
         25    1    4    4    0    0 -0.53924329049E+01 -0.49594772320E+02  0.12811368181E+02  0.13527881959E+03  0.12509000000E+03 0.  0.
         25    1    3    3    0    0 -0.58271900151E+02  0.58533885975E+02 -0.93198625043E+02  0.17650870223E+03  0.12509000000E+03 0.  0.
         25    1    4    4    0    0  0.63664333056E+02 -0.89391136552E+01  0.26594424723E+02  0.14313569290E+03  0.12509000000E+03 0.  0.
<mgrwt>
<rscale>  2 0.45173163E+03</rscale>
<asrwt>0</asrwt>
<pdfrwt beam="1">  1       21 0.29494881E-01 0.45173163E+03</pdfrwt>
<pdfrwt beam="2">  1       21 0.37405592E-01 0.45173163E+03</pdfrwt>
<totfact> 0.70368435E+04</totfact>
</mgrwt>
</event>
<event>
 7    0  0.4766352E-002  0.4549171E+03  0.7546771E-02  0.1026266E+00
         21   -1    0    0  502  501  0.00000000000E+00  0.00000000000E+00  0.68874455223E+03  0.68874455223E+03  0.00000000000E+00 0.  1.
         21   -1    0    0  501  502 -0.00000000000E+00 -0.00000000000E+00 -0.75118419190E+02  0.75118419190E+02  0.00000000000E+00 0.  1.
      99926    2    1    2    0    0  0.14210854715E-13  0.00000000000E+00  0.61362613304E+03  0.76386297142E+03  0.45491714406E+03 0.  0.
      99925    2    3    3    0    0 -0.86138572095E+02  0.45931958077E+02  0.48219559340E+03  0.55782634064E+03  0.26292211325E+03 0.  0.
         25    1    4    4    0    0 -0.84104772862E+02  0.14275304744E+02  0.25984803166E+03  0.30074225643E+03  0.12509000000E+03 0.  0.
         25    1    4    4    0    0 -0.20337992332E+01  0.31656653333E+02  0.22234756174E+03  0.25708408420E+03  0.12509000000E+03 0.  0.
         25    1    3    3    0    0  0.86138572095E+02 -0.45931958077E+02  0.13143053963E+03  0.20603663078E+03  0.12509000000E+03 0.  0.
<mgrwt>
<rscale>  2 0.45491714E+03</rscale>
<asrwt>0</asrwt>
<pdfrwt beam="1">  1       21 0.10128596E+00 0.45491714E+03</pdfrwt>
<pdfrwt beam="2">  1       21 0.11046827E-01 0.45491714E+03</pdfrwt>
<totfact> 0.49594388E+04</totfact>
</mgrwt>
</event>
<event>
 7    0  0.4766352E-002  0.4279271E+03  0.7546771E-02  0.1034517E+00
         21   -1    0    0  502  501  0.00000000000E+00  0.00000000000E+00  0.67757062882E+03  0.67757062882E+03  0.00000000000E+00 0. -1.
         21   -1    0    0  501  502 -0.00000000000E+00 -0.00000000000E+00 -0.67565493984E+02  0.67565493984E+02  0.00000000000E+00 0. -1.
      99926    2    1    2    0    0  0.00000000000E+00  0.00000000000E+00  0.61000513484E+03  0.74513612281E+03  0.42792706970E+03 0.  0.
      99925    2    3    3    0    0 -0.38616344576E+02 -0.75690891623E+02  0.38040875538E+03  0.47021369974E+03  0.26300146219E+03 0.  0.
         25    1    4    4    0    0 -0.11637258958E+02 -0.28240945234E+02  0.11905300272E+03  0.17536847590E+03  0.12509000000E+03 0.  0.
         25    1    3    3    0    0  0.38616344576E+02  0.75690891623E+02  0.22959637946E+03  0.27492242307E+03  0.12509000000E+03 0.  0.
         25    1    4    4    0    0 -0.26979085618E+02 -0.47449946390E+02  0.26135575265E+03  0.29484522384E+03  0.12509000000E+03 0.  0.
<mgrwt>
<rscale>  2 0.42792707E+03</rscale>
<asrwt>0</asrwt>
<pdfrwt beam="1">  1       21 0.99642736E-01 0.42792707E+03</pdfrwt>
<pdfrwt beam="2">  1       21 0.99361024E-02 0.42792707E+03</pdfrwt>
<totfact> 0.62867967E+04</totfact>
</mgrwt>
</event>
<event>
 7    0  0.4766352E-002  0.4694876E+03  0.7546771E-02  0.1022065E+00
         21   -1    0    0  502  501  0.00000000000E+00  0.00000000000E+00  0.14048641611E+03  0.14048641611E+03  0.00000000000E+00 0. -1.
         21   -1    0    0  501  502 -0.00000000000E+00 -0.00000000000E+00 -0.39224189613E+03  0.39224189613E+03  0.00000000000E+00 0. -1.
      99926    2    1    2    0    0  0.71054273576E-14  0.00000000000E+00 -0.25175548002E+03  0.53272831224E+03  0.46948762810E+03 0.  0.
      99925    2    3    3    0    0  0.43598553446E+02  0.85050628965E+02 -0.25003449382E+03  0.37529606255E+03  0.26305026727E+03 0.  0.
         25    1    3    3    0    0 -0.43598553446E+02 -0.85050628965E+02 -0.17209861965E+01  0.15743224969E+03  0.12509000000E+03 0.  0.
         25    1    4    4    0    0  0.32647253953E+02  0.30158688911E+02 -0.17307387146E+03  0.21812258661E+03  0.12509000000E+03 0.  0.
         25    1    4    4    0    0  0.10951299492E+02  0.54891940054E+02 -0.76960622369E+02  0.15717347594E+03  0.12509000000E+03 0.  0.
<mgrwt>
<rscale>  2 0.46948763E+03</rscale>
<asrwt>0</asrwt>
<pdfrwt beam="1">  1       21 0.20659767E-01 0.46948763E+03</pdfrwt>
<pdfrwt beam="2">  1       21 0.57682632E-01 0.46948763E+03</pdfrwt>
<totfact> 0.56275872E+04</totfact>
</mgrwt>
</event>
<event>
 7    0  0.4766352E-002  0.4500610E+03  0.7546771E-02  0.1027704E+00
         21   -1    0    0  502  501  0.00000000000E+00  0.00000000000E+00  0.14442257057E+04  0.14442257057E+04  0.00000000000E+00 0. -1.
         21   -1    0    0  501  502 -0.00000000000E+00 -0.00000000000E+00 -0.35062894842E+02  0.35062894842E+02  0.00000000000E+00 0. -1.
      99926    2    1    2    0    0 -0.14210854715E-13  0.71054273576E-14  0.14091628109E+04  0.14792886006E+04  0.45006103608E+03 0.  0.
      99925    2    3    3    0    0  0.89302431063E+02 -0.61477292996E+02  0.90632611479E+03  0.94990534357E+03  0.26294249115E+03 0.  0.
         25    1    4    4    0    0  0.84579016955E+02 -0.41916827888E+02  0.46107114996E+03  0.48697509587E+03  0.12509000000E+03 0.  0.
         25    1    3    3    0    0 -0.89302431063E+02  0.61477292996E+02  0.50283669610E+03  0.52938325700E+03  0.12509000000E+03 0.  0.
         25    1    4    4    0    0  0.47234141087E+01 -0.19560465109E+02  0.44525496482E+03  0.46293024770E+03  0.12509000000E+03 0.  0.
<mgrwt>
<rscale>  2 0.45006104E+03</rscale>
<asrwt>0</asrwt>
<pdfrwt beam="1">  1       21 0.21238609E+00 0.45006104E+03</pdfrwt>
<pdfrwt beam="2">  1       21 0.51563090E-02 0.45006104E+03</pdfrwt>
<totfact> 0.25246105E+04</totfact>
</mgrwt>
</event>
<event>
 7    0  0.4766352E-002  0.4614217E+03  0.7546771E-02  0.1024370E+00
         21   -1    0    0  502  501  0.00000000000E+00  0.00000000000E+00  0.98540692879E+02  0.98540692879E+02  0.00000000000E+00 0. -1.
         21   -1    0    0  501  502 -0.00000000000E+00 -0.00000000000E+00 -0.54015753522E+03  0.54015753522E+03  0.00000000000E+00 0. -1.
      99926    2    1    2    0    0  0.00000000000E+00  0.00000000000E+00 -0.44161684234E+03  0.63869822810E+03  0.46142170640E+03 0.  0.
      99925    2    3    3    0    0 -0.46156615039E+02  0.78065232183E+02 -0.16940209618E+03  0.32569185482E+03  0.26297053165E+03 0.  0.
         25    1    4    4    0    0  0.17038492560E+02  0.28006944097E+02 -0.76138970590E+02  0.15006448643E+03  0.12509000000E+03 0.  0.
         25    1    3    3    0    0  0.46156615039E+02 -0.78065232183E+02 -0.27221474616E+03  0.31300637328E+03  0.12509000000E+03 0.  0.
         25    1    4    4    0    0 -0.63195107599E+02  0.50058288086E+02 -0.93263125592E+02  0.17562736838E+03  0.12509000000E+03 0.  0.
<mgrwt>
<rscale>  2 0.46142171E+03</rscale>
<asrwt>0</asrwt>
<pdfrwt beam="1">  1       21 0.14491279E-01 0.46142171E+03</pdfrwt>
<pdfrwt beam="2">  1       21 0.79434931E-01 0.46142171E+03</pdfrwt>
<totfact> 0.53589240E+04</totfact>
</mgrwt>
</event>
<event>
 7    0  0.4766352E-002  0.4444645E+03  0.7546771E-02  0.1029386E+00
         21   -1    0    0  502  501  0.00000000000E+00  0.00000000000E+00  0.28659200057E+03  0.28659200057E+03  0.00000000000E+00 0.  1.
         21   -1    0    0  501  502 -0.00000000000E+00 -0.00000000000E+00 -0.17232574747E+03  0.17232574747E+03  0.00000000000E+00 0.  1.
      99926    2    1    2    0    0  0.00000000000E+00  0.88817841970E-15  0.11426625310E+03  0.45891774805E+03  0.44446453500E+03 0.  0.
      99925    2    3    3    0    0 -0.43322159975E+02  0.40330749023E+01  0.16895068383E+03  0.31563142525E+03  0.26303191403E+03 0.  0.
         25    1    4    4    0    0 -0.29077451683E+02 -0.21611273161E+02  0.12312524151E+03  0.17922019563E+03  0.12509000000E+03 0.  0.
         25    1    3    3    0    0  0.43322159975E+02 -0.40330749023E+01 -0.54684430729E+02  0.14328632280E+03  0.12509000000E+03 0.  0.
         25    1    4    4    0    0 -0.14244708291E+02  0.25644348063E+02  0.45825442321E+02  0.13641122962E+03  0.12509000000E+03 0.  0.
<mgrwt>
<rscale>  2 0.44446454E+03</rscale>
<asrwt>0</asrwt>
<pdfrwt beam="1">  1       21 0.42145882E-01 0.44446454E+03</pdfrwt>
<pdfrwt beam="2">  1       21 0.25342022E-01 0.44446454E+03</pdfrwt>
<totfact> 0.74285640E+04</totfact>
</mgrwt>
</event>
<event>
 7    0  0.4766352E-002  0.4575947E+03  0.7546771E-02  0.1025481E+00
         21   -1    0    0  502  501  0.00000000000E+00  0.00000000000E+00  0.14102626855E+03  0.14102626855E+03  0.00000000000E+00 0.  1.
         21   -1    0    0  501  502 -0.00000000000E+00 -0.00000000000E+00 -0.37119493684E+03  0.37119493684E+03  0.00000000000E+00 0.  1.
      99926    2    1    2    0    0  0.00000000000E+00  0.00000000000E+00 -0.23016866829E+03  0.51222120538E+03  0.45759474142E+03 0.  0.
      99925    2    3    3    0    0  0.68866945491E+02 -0.37727711054E+02 -0.49415701391E+02  0.27880059895E+03  0.26291030042E+03 0.  0.
         25    1    4    4    0    0  0.39154929952E+02 -0.53431881859E+02 -0.47354927334E+02  0.14925840607E+03  0.12509000000E+03 0.  0.
         25    1    3    3    0    0 -0.68866945491E+02  0.37727711054E+02 -0.18075296690E+03  0.23342060643E+03  0.12509000000E+03 0.  0.
         25    1    4    4    0    0  0.29712015540E+02  0.15704170804E+02 -0.20607740576E+01  0.12954219289E+03  0.12509000000E+03 0.  0.
<mgrwt>
<rscale>  2 0.45759474E+03</rscale>
<asrwt>0</asrwt>
<pdfrwt beam="1">  1       21 0.20739157E-01 0.45759474E+03</pdfrwt>
<pdfrwt beam="2">  1       21 0.54587490E-01 0.45759474E+03</pdfrwt>
<totfact> 0.63110698E+04</totfact>
</mgrwt>
</event>
<event>
 7    0  0.4766352E-002  0.4499154E+03  0.7546771E-02  0.1027747E+00
         21   -1    0    0  502  501  0.00000000000E+00  0.00000000000E+00  0.31145700775E+03  0.31145700775E+03  0.00000000000E+00 0.  1.
         21   -1    0    0  501  502 -0.00000000000E+00 -0.00000000000E+00 -0.16248136307E+03  0.16248136307E+03  0.00000000000E+00 0.  1.
      99926    2    1    2    0    0  0.14210854715E-13  0.00000000000E+00  0.14897564468E+03  0.47393837082E+03  0.44991536608E+03 0.  0.
      99925    2    3    3    0    0  0.71886409653E+02 -0.80445620249E+02  0.10013160400E+03  0.30168157961E+03  0.26333682546E+03 0.  0.
         25    1    4    4    0    0 -0.30319652638E+01 -0.26502777507E+02  0.59063069182E+02  0.14088131271E+03  0.12509000000E+03 0.  0.
         25    1    3    3    0    0 -0.71886409653E+02  0.80445620249E+02  0.48844040679E+02  0.17225679122E+03  0.12509000000E+03 0.  0.
         25    1    4    4    0    0  0.74918374917E+02 -0.53942842742E+02  0.41068534818E+02  0.16080026690E+03  0.12509000000E+03 0.  0.
<mgrwt>
<rscale>  2 0.44991537E+03</rscale>
<asrwt>0</asrwt>
<pdfrwt beam="1">  1       21 0.45802501E-01 0.44991537E+03</pdfrwt>
<pdfrwt beam="2">  1       21 0.23894318E-01 0.44991537E+03</pdfrwt>
<totfact> 0.69923448E+04</totfact>
</mgrwt>
</event>
<event>
 7    0  0.4766352E-002  0.4554114E+03  0.7546771E-02  0.1026120E+00
         21   -1    0    0  502  501  0.00000000000E+00  0.00000000000E+00  0.60342708920E+03  0.60342708920E+03  0.00000000000E+00 0.  1.
         21   -1    0    0  501  502 -0.00000000000E+00 -0.00000000000E+00 -0.85925686386E+02  0.85925686386E+02  0.00000000000E+00 0.  1.
      99926    2    1    2    0    0 -0.14210854715E-13 -0.88817841970E-15  0.51750140282E+03  0.68935277559E+03  0.45541140444E+03 0.  0.
      99925    2    3    3    0    0 -0.10931300517E+03 -0.44513931252E+01  0.37160955252E+03  0.46821687149E+03  0.26299093372E+03 0.  0.
         25    1    4    4    0    0 -0.26674414333E+02  0.26904049712E+02  0.19046302643E+03  0.23099572465E+03  0.12509000000E+03 0.  0.
         25    1    3    3    0    0  0.10931300517E+03  0.44513931252E+01  0.14589185029E+03  0.22113590410E+03  0.12509000000E+03 0.  0.
         25    1    4    4    0    0 -0.82638590837E+02 -0.31355442837E+02  0.18114652609E+03  0.23722114684E+03  0.12509000000E+03 0.  0.
<mgrwt>
<rscale>  2 0.45541140E+03</rscale>
<asrwt>0</asrwt>
<pdfrwt beam="1">  1       21 0.88739276E-01 0.45541140E+03</pdfrwt>
<pdfrwt beam="2">  1       21 0.12636131E-01 0.45541140E+03</pdfrwt>
<totfact> 0.53312104E+04</totfact>
</mgrwt>
</event>
<event>
 7    0  0.4766352E-002  0.4532273E+03  0.7546771E-02  0.1026764E+00
         21   -1    0    0  502  501  0.00000000000E+00  0.00000000000E+00  0.21267865368E+03  0.21267865368E+03  0.00000000000E+00 0.  1.
         21   -1    0    0  501  502 -0.00000000000E+00 -0.00000000000E+00 -0.24146173673E+03  0.24146173673E+03  0.00000000000E+00 0.  1.
      99926    2    1    2    0    0 -0.14210854715E-13  0.00000000000E+00 -0.28783083045E+02  0.45414039041E+03  0.45322734729E+03 0.  0.
      99925    2    3    3    0    0  0.10162550198E+03 -0.13977220789E+02 -0.61907254998E+02  0.28901067103E+03  0.26300485622E+03 0.  0.
         25    1    3    3    0    0 -0.10162550198E+03  0.13977220789E+02  0.33124171953E+02  0.16512971938E+03  0.12509000000E+03 0.  0.
         25    1    4    4    0    0  0.75264918635E+01 -0.25597104364E+01 -0.26129218750E+02  0.12803688675E+03  0.12509000000E+03 0.  0.
         25    1    4    4    0    0  0.94099010115E+02 -0.11417510352E+02 -0.35778036248E+02  0.16097378428E+03  0.12509000000E+03 0.  0.
<mgrwt>
<rscale>  2 0.45322735E+03</rscale>
<asrwt>0</asrwt>
<pdfrwt beam="1">  1       21 0.31276273E-01 0.45322735E+03</pdfrwt>
<pdfrwt beam="2">  1       21 0.35509079E-01 0.45322735E+03</pdfrwt>
<totfact> 0.69587878E+04</totfact>
</mgrwt>
</event>
<event>
 7    0  0.4766352E-002  0.4304349E+03  0.7546771E-02  0.1033723E+00
         21   -1    0    0  502  501  0.00000000000E+00  0.00000000000E+00  0.57646288345E+02  0.57646288345E+02  0.00000000000E+00 0. -1.
         21   -1    0    0  501  502 -0.00000000000E+00 -0.00000000000E+00 -0.80349584055E+03  0.80349584055E+03  0.00000000000E+00 0. -1.
      99926    2    1    2    0    0  0.17763568394E-14  0.00000000000E+00 -0.74584955221E+03  0.86114212890E+03  0.43043490987E+03 0.  0.
      99925    2    3    3    0    0 -0.10612123405E+02 -0.58110289589E+02 -0.61161047029E+03  0.66838045705E+03  0.26301263293E+03 0.  0.
         25    1    4    4    0    0 -0.41242255307E+02 -0.48174983399E+02 -0.32947651228E+03  0.35808383501E+03  0.12509000000E+03 0.  0.
         25    1    4    4    0    0  0.30630131903E+02 -0.99353061904E+01 -0.28213395801E+03  0.31029662204E+03  0.12509000000E+03 0.  0.
         25    1    3    3    0    0  0.10612123405E+02  0.58110289589E+02 -0.13423908191E+03  0.19276167184E+03  0.12509000000E+03 0.  0.
<mgrwt>
<rscale>  2 0.43043491E+03</rscale>
<asrwt>0</asrwt>
<pdfrwt beam="1">  1       21 0.84773957E-02 0.43043491E+03</pdfrwt>
<pdfrwt beam="2">  1       21 0.11816115E+00 0.43043491E+03</pdfrwt>
<totfact> 0.54753584E+04</totfact>
</mgrwt>
</event>
<event>
 7    0  0.4766352E-002  0.4535983E+03  0.7546771E-02  0.1026654E+00
         21   -1    0    0  502  501  0.00000000000E+00  0.00000000000E+00  0.46335579812E+02  0.46335579812E+02  0.00000000000E+00 0.  1.
         21   -1    0    0  501  502 -0.00000000000E+00 -0.00000000000E+00 -0.11101154650E+04  0.11101154650E+04  0.00000000000E+00 0.  1.
      99926    2    1    2    0    0  0.00000000000E+00  0.00000000000E+00 -0.10637798852E+04  0.11564510449E+04  0.45359825278E+03 0.  0.
      99925    2    3    3    0    0 -0.70008155291E+02 -0.80502278838E+02 -0.75571116086E+03  0.80725825321E+03  0.26302997930E+03 0.  0.
         25    1    3    3    0    0  0.70008155291E+02  0.80502278838E+02 -0.30806872437E+03  0.34919279165E+03  0.12509000000E+03 0.  0.
         25    1    4    4    0    0 -0.28465468287E+02 -0.77215936258E+02 -0.35073940981E+03  0.38136363931E+03  0.12509000000E+03 0.  0.
         25    1    4    4    0    0 -0.41542687003E+02 -0.32863425799E+01 -0.40497175105E+03  0.42589461389E+03  0.12509000000E+03 0.  0.
<mgrwt>
<rscale>  2 0.45359825E+03</rscale>
<asrwt>0</asrwt>
<pdfrwt beam="1">  1       21 0.68140560E-02 0.45359825E+03</pdfrwt>
<pdfrwt beam="2">  1       21 0.16325227E+00 0.45359825E+03</pdfrwt>
<totfact> 0.33936923E+04</totfact>
</mgrwt>
</event>
<event>
 7    0  0.4766352E-002  0.4548859E+03  0.7546771E-02  0.1026275E+00
         21   -1    0    0  502  501  0.00000000000E+00  0.00000000000E+00  0.81785484574E+02  0.81785484574E+02  0.00000000000E+00 0.  1.
         21   -1    0    0  501  502 -0.00000000000E+00 -0.00000000000E+00 -0.63251201963E+03  0.63251201963E+03  0.00000000000E+00 0.  1.
      99926    2    1    2    0    0  0.00000000000E+00  0.00000000000E+00 -0.55072653506E+03  0.71429750420E+03  0.45488592866E+03 0.  0.
      99925    2    3    3    0    0  0.96854124642E+02 -0.55482255646E+02 -0.31784175603E+03  0.42734484164E+03  0.26294719935E+03 0.  0.
         25    1    4    4    0    0  0.22615570311E+02  0.67232657178E+01 -0.14880516281E+03  0.19582428578E+03  0.12509000000E+03 0.  0.
         25    1    3    3    0    0 -0.96854124642E+02  0.55482255646E+02 -0.23288477903E+03  0.28695266257E+03  0.12509000000E+03 0.  0.
         25    1    4    4    0    0  0.74238554330E+02 -0.62205521364E+02 -0.16903659322E+03  0.23152055586E+03  0.12509000000E+03 0.  0.
<mgrwt>
<rscale>  2 0.45488593E+03</rscale>
<asrwt>0</asrwt>
<pdfrwt beam="1">  1       21 0.12027277E-01 0.45488593E+03</pdfrwt>
<pdfrwt beam="2">  1       21 0.93016472E-01 0.45488593E+03</pdfrwt>
<totfact> 0.52180396E+04</totfact>
</mgrwt>
</event>
<event>
 7    0  0.4766352E-002  0.4551841E+03  0.7546771E-02  0.1026187E+00
         21   -1    0    0  502  501  0.00000000000E+00  0.00000000000E+00  0.10241068430E+03  0.10241068430E+03  0.00000000000E+00 0.  1.
         21   -1    0    0  501  502 -0.00000000000E+00 -0.00000000000E+00 -0.50578847512E+03  0.50578847512E+03  0.00000000000E+00 0.  1.
      99926    2    1    2    0    0  0.14210854715E-13  0.00000000000E+00 -0.40337779083E+03  0.60819915942E+03  0.45518411153E+03 0.  0.
      99925    2    3    3    0    0  0.10235286633E+03 -0.18631110530E+02 -0.31356884322E+03  0.42235949010E+03  0.26313284080E+03 0.  0.
         25    1    4    4    0    0  0.25110612373E+02  0.22717245138E+02 -0.15814415698E+03  0.20445952794E+03  0.12509000000E+03 0.  0.
         25    1    4    4    0    0  0.77242253954E+02 -0.41348355668E+02 -0.15542468625E+03  0.21789996215E+03  0.12509000000E+03 0.  0.
         25    1    3    3    0    0 -0.10235286633E+03  0.18631110530E+02 -0.89808947604E+02  0.18583966933E+03  0.12509000000E+03 0.  0.
<mgrwt>
<rscale>  2 0.45518411E+03</rscale>
<asrwt>0</asrwt>
<pdfrwt beam="1">  1       21 0.15060395E-01 0.45518411E+03</pdfrwt>
<pdfrwt beam="2">  1       21 0.74380657E-01 0.45518411E+03</pdfrwt>
<totfact> 0.58091875E+04</totfact>
</mgrwt>
</event>
<event>
 7    0  0.4766352E-002  0.4521123E+03  0.7546771E-02  0.1027094E+00
         21   -1    0    0  502  501  0.00000000000E+00  0.00000000000E+00  0.45250266805E+03  0.45250266805E+03  0.00000000000E+00 0.  1.
         21   -1    0    0  501  502 -0.00000000000E+00 -0.00000000000E+00 -0.11293057001E+03  0.11293057001E+03  0.00000000000E+00 0.  1.
      99926    2    1    2    0    0 -0.13322676296E-14  0.00000000000E+00  0.33957209804E+03  0.56543323806E+03  0.45211230567E+03 0.  0.
      99925    2    3    3    0    0  0.22228306960E+01  0.94060482401E+02  0.14188283045E+03  0.31328076446E+03  0.26298628192E+03 0.  0.
         25    1    4    4    0    0  0.17499640141E+02  0.55160589066E+02  0.11309487913E+03  0.17828877636E+03  0.12509000000E+03 0.  0.
         25    1    3    3    0    0 -0.22228306960E+01 -0.94060482401E+02  0.19768926759E+03  0.25215247361E+03  0.12509000000E+03 0.  0.
         25    1    4    4    0    0 -0.15276809445E+02  0.38899893335E+02  0.28787951319E+02  0.13499198809E+03  0.12509000000E+03 0.  0.
<mgrwt>
<rscale>  2 0.45211231E+03</rscale>
<asrwt>0</asrwt>
<pdfrwt beam="1">  1       21 0.66544510E-01 0.45211231E+03</pdfrwt>
<pdfrwt beam="2">  1       21 0.16607437E-01 0.45211231E+03</pdfrwt>
<totfact> 0.62267980E+04</totfact>
</mgrwt>
</event>
<event>
 7    0  0.4766352E-002  0.4567059E+03  0.7546771E-02  0.1025741E+00
         21   -1    0    0  502  501  0.00000000000E+00  0.00000000000E+00  0.60803097769E+02  0.60803097769E+02  0.00000000000E+00 0. -1.
         21   -1    0    0  501  502 -0.00000000000E+00 -0.00000000000E+00 -0.85760553442E+03  0.85760553442E+03  0.00000000000E+00 0. -1.
      99926    2    1    2    0    0  0.71054273576E-14 -0.71054273576E-14 -0.79680243665E+03  0.91840863219E+03  0.45670591482E+03 0.  0.
      99925    2    3    3    0    0 -0.45089214005E+02  0.44369571753E+02 -0.69303072988E+03  0.74400171907E+03  0.26314495873E+03 0.  0.
         25    1    4    4    0    0  0.13173148252E+02  0.40031337126E+02 -0.36315739388E+03  0.38640243350E+03  0.12509000000E+03 0.  0.
         25    1    4    4    0    0 -0.58262362257E+02  0.43382346276E+01 -0.32987333601E+03  0.35759928557E+03  0.12509000000E+03 0.  0.
         25    1    3    3    0    0  0.45089214005E+02 -0.44369571753E+02 -0.10377170677E+03  0.17440691312E+03  0.12509000000E+03 0.  0.
<mgrwt>
<rscale>  2 0.45670591E+03</rscale>
<asrwt>0</asrwt>
<pdfrwt beam="1">  1       21 0.89416330E-02 0.45670591E+03</pdfrwt>
<pdfrwt beam="2">  1       21 0.12611845E+00 0.45670591E+03</pdfrwt>
<totfact> 0.41885366E+04</totfact>
</mgrwt>
</event>
<event>
 7    0  0.4766352E-002  0.4520045E+03  0.7546771E-02  0.1027126E+00
         21   -1    0    0  502  501  0.00000000000E+00  0.00000000000E+00  0.44280649757E+03  0.44280649757E+03  0.00000000000E+00 0. -1.
         21   -1    0    0  501  502 -0.00000000000E+00 -0.00000000000E+00 -0.11534840796E+03  0.11534840796E+03  0.00000000000E+00 0. -1.
      99926    2    1    2    0    0  0.00000000000E+00  0.00000000000E+00  0.32745808961E+03  0.55815490553E+03  0.45200453329E+03 0.  0.
      99925    2    3    3    0    0  0.62605292598E+01 -0.66131196720E+01  0.34239041756E+03  0.43184809615E+03  0.26301835018E+03 0.  0.
         25    1    4    4    0    0 -0.21483117235E+02 -0.16019276599E+02  0.12217749154E+03  0.17689824501E+03  0.12509000000E+03 0.  0.
         25    1    4    4    0    0  0.27743646495E+02  0.94061569271E+01  0.22021292602E+03  0.25494985113E+03  0.12509000000E+03 0.  0.
         25    1    3    3    0    0 -0.62605292598E+01  0.66131196720E+01 -0.14932327953E+02  0.12630680938E+03  0.12509000000E+03 0.  0.
<mgrwt>
<rscale>  2 0.45200453E+03</rscale>
<asrwt>0</asrwt>
<pdfrwt beam="1">  1       21 0.65118602E-01 0.45200453E+03</pdfrwt>
<pdfrwt beam="2">  1       21 0.16963001E-01 0.45200453E+03</pdfrwt>
<totfact> 0.62805817E+04</totfact>
</mgrwt>
</event>
<event>
 7    0  0.4766352E-002  0.4568115E+03  0.7546771E-02  0.1025710E+00
         21   -1    0    0  502  501  0.00000000000E+00  0.00000000000E+00  0.20098639203E+03  0.20098639203E+03  0.00000000000E+00 0.  1.
         21   -1    0    0  501  502 -0.00000000000E+00 -0.00000000000E+00 -0.25956579090E+03  0.25956579090E+03  0.00000000000E+00 0.  1.
      99926    2    1    2    0    0  0.35527136788E-14 -0.13322676296E-14 -0.58579398866E+02  0.46055218293E+03  0.45681152265E+03 0.  0.
      99925    2    3    3    0    0 -0.18423577158E+02 -0.26659187233E+01 -0.15107880963E+03  0.30386719829E+03  0.26299036515E+03 0.  0.
         25    1    4    4    0    0  0.22336704327E+02  0.12754026903E+02 -0.98785445670E+02  0.16145484179E+03  0.12509000000E+03 0.  0.
         25    1    4    4    0    0 -0.40760281484E+02 -0.15419945627E+02 -0.52293363958E+02  0.14241235650E+03  0.12509000000E+03 0.  0.
         25    1    3    3    0    0  0.18423577158E+02  0.26659187233E+01  0.92499410762E+02  0.15668498463E+03  0.12509000000E+03 0.  0.
<mgrwt>
<rscale>  2 0.45681152E+03</rscale>
<asrwt>0</asrwt>
<pdfrwt beam="1">  1       21 0.29556822E-01 0.45681152E+03</pdfrwt>
<pdfrwt beam="2">  1       21 0.38171440E-01 0.45681152E+03</pdfrwt>
<totfact> 0.67164763E+04</totfact>
</mgrwt>
</event>
<event>
 7    0  0.4766352E-002  0.4558283E+03  0.7546771E-02  0.1025998E+00
         21   -1    0    0  502  501  0.00000000000E+00  0.00000000000E+00  0.30945069093E+02  0.30945069093E+02  0.00000000000E+00 0.  1.
         21   -1    0    0  501  502 -0.00000000000E+00 -0.00000000000E+00 -0.16786152978E+04  0.16786152978E+04  0.00000000000E+00 0.  1.
      99926    2    1    2    0    0  0.00000000000E+00  0.00000000000E+00 -0.16476702287E+04  0.17095603669E+04  0.45582832896E+03 0.  0.
      99925    2    3    3    0    0  0.48861576038E+02  0.39371749783E+02 -0.13925031471E+04  0.14185357358E+04  0.26313690470E+03 0.  0.
         25    1    3    3    0    0 -0.48861576038E+02 -0.39371749783E+02 -0.25516708155E+03  0.29102463109E+03  0.12509000000E+03 0.  0.
         25    1    4    4    0    0  0.62414240610E+01  0.26568380090E+02 -0.87281730670E+03  0.88215780514E+03  0.12509000000E+03 0.  0.
         25    1    4    4    0    0  0.42620151977E+02  0.12803369693E+02 -0.51968584044E+03  0.53637793064E+03  0.12509000000E+03 0.  0.
<mgrwt>
<rscale>  2 0.45582833E+03</rscale>
<asrwt>0</asrwt>
<pdfrwt beam="1">  1       21 0.45507443E-02 0.45582833E+03</pdfrwt>
<pdfrwt beam="2">  1       21 0.24685525E+00 0.45582833E+03</pdfrwt>
<totfact> 0.18941509E+04</totfact>
</mgrwt>
</event>
<event>
 7    0  0.4766352E-002  0.4571688E+03  0.7546771E-02  0.1025606E+00
         21   -1    0    0  502  501  0.00000000000E+00  0.00000000000E+00  0.26162259093E+03  0.26162259093E+03  0.00000000000E+00 0.  1.
         21   -1    0    0  501  502 -0.00000000000E+00 -0.00000000000E+00 -0.19971834097E+03  0.19971834097E+03  0.00000000000E+00 0.  1.
      99926    2    1    2    0    0  0.00000000000E+00  0.00000000000E+00  0.61904249960E+02  0.46134093190E+03  0.45716880830E+03 0.  0.
      99925    2    3    3    0    0  0.19524508493E+02  0.32692180310E+02  0.14860575269E+03  0.30445038483E+03  0.26297601032E+03 0.  0.
         25    1    3    3    0    0 -0.19524508493E+02 -0.32692180310E+02 -0.86701502735E+02  0.15689054708E+03  0.12509000000E+03 0.  0.
         25    1    4    4    0    0 -0.19724507865E+02  0.38762410446E+02  0.55807596816E+02  0.14371352280E+03  0.12509000000E+03 0.  0.
         25    1    4    4    0    0  0.39249016358E+02 -0.60702301356E+01  0.92798155879E+02  0.16073686202E+03  0.12509000000E+03 0.  0.
<mgrwt>
<rscale>  2 0.45716881E+03</rscale>
<asrwt>0</asrwt>
<pdfrwt beam="1">  1       21 0.38473910E-01 0.45716881E+03</pdfrwt>
<pdfrwt beam="2">  1       21 0.29370344E-01 0.45716881E+03</pdfrwt>
<totfact> 0.66918042E+04</totfact>
</mgrwt>
</event>
<event>
 7    0  0.4766352E-002  0.4547668E+03  0.7546771E-02  0.1026310E+00
         21   -1    0    0  502  501  0.00000000000E+00  0.00000000000E+00  0.97494448461E+02  0.97494448461E+02  0.00000000000E+00 0.  1.
         21   -1    0    0  501  502 -0.00000000000E+00 -0.00000000000E+00 -0.53031944877E+03  0.53031944877E+03  0.00000000000E+00 0.  1.
      99926    2    1    2    0    0 -0.44408920985E-14  0.00000000000E+00 -0.43282500031E+03  0.62781389723E+03  0.45476676293E+03 0.  0.
      99925    2    3    3    0    0 -0.68346057882E+01  0.83003627529E+02 -0.37779223420E+03  0.46777506611E+03  0.26296430602E+03 0.  0.
         25    1    4    4    0    0  0.32842909302E+02  0.45898863013E+02 -0.15980836984E+03  0.21064563961E+03  0.12509000000E+03 0.  0.
         25    1    3    3    0    0  0.68346057882E+01 -0.83003627529E+02 -0.55032766115E+02  0.16003883112E+03  0.12509000000E+03 0.  0.
         25    1    4    4    0    0 -0.39677515091E+02  0.37104764516E+02 -0.21798386436E+03  0.25712942650E+03  0.12509000000E+03 0.  0.
<mgrwt>
<rscale>  2 0.45476676E+03</rscale>
<asrwt>0</asrwt>
<pdfrwt beam="1">  1       21 0.14337419E-01 0.45476676E+03</pdfrwt>
<pdfrwt beam="2">  1       21 0.77988154E-01 0.45476676E+03</pdfrwt>
<totfact> 0.57103166E+04</totfact>
</mgrwt>
</event>
<event>
 7    0  0.4766352E-002  0.3983481E+03  0.7546771E-02  0.1044353E+00
         21   -1    0    0  502  501  0.00000000000E+00  0.00000000000E+00  0.37370453690E+03  0.37370453690E+03  0.00000000000E+00 0.  1.
         21   -1    0    0  501  502 -0.00000000000E+00 -0.00000000000E+00 -0.10615417105E+03  0.10615417105E+03  0.00000000000E+00 0.  1.
      99926    2    1    2    0    0 -0.71054273576E-14 -0.17763568394E-14  0.26755036586E+03  0.47985870795E+03  0.39834806555E+03 0.  0.
      99925    2    3    3    0    0 -0.39867855445E+02  0.10190499886E+02  0.19344503143E+03  0.32875476731E+03  0.26261268945E+03 0.  0.
         25    1    4    4    0    0  0.13594910999E+00 -0.28321305942E+02  0.81685732806E+02  0.15205979711E+03  0.12509000000E+03 0.  0.
         25    1    3    3    0    0  0.39867855445E+02 -0.10190499886E+02  0.74105334424E+02  0.15110394064E+03  0.12509000000E+03 0.  0.
         25    1    4    4    0    0 -0.40003804555E+02  0.38511805828E+02  0.11175929863E+03  0.17669497021E+03  0.12509000000E+03 0.  0.
<mgrwt>
<rscale>  2 0.39834807E+03</rscale>
<asrwt>0</asrwt>
<pdfrwt beam="1">  1       21 0.54956549E-01 0.39834807E+03</pdfrwt>
<pdfrwt beam="2">  1       21 0.15610908E-01 0.39834807E+03</pdfrwt>
<totfact> 0.10747678E+05</totfact>
</mgrwt>
</event>
<event>
 7    0  0.4766352E-002  0.4367827E+03  0.7546771E-02  0.1031739E+00
         21   -1    0    0  502  501  0.00000000000E+00  0.00000000000E+00  0.74300582741E+02  0.74300582741E+02  0.00000000000E+00 0. -1.
         21   -1    0    0  501  502 -0.00000000000E+00 -0.00000000000E+00 -0.64191666572E+03  0.64191666572E+03  0.00000000000E+00 0. -1.
      99926    2    1    2    0    0  0.00000000000E+00  0.71054273576E-14 -0.56761608298E+03  0.71621724846E+03  0.43678270265E+03 0.  0.
      99925    2    3    3    0    0  0.44854308961E+02 -0.61854802845E+02 -0.45618770985E+03  0.53209306182E+03  0.26301687047E+03 0.  0.
         25    1    4    4    0    0  0.48809490053E+02 -0.36595631532E+02 -0.29730645470E+03  0.32826855267E+03  0.12509000000E+03 0.  0.
         25    1    3    3    0    0 -0.44854308961E+02  0.61854802845E+02 -0.11142837313E+03  0.18412418664E+03  0.12509000000E+03 0.  0.
         25    1    4    4    0    0 -0.39551810927E+01 -0.25259171313E+02 -0.15888125516E+03  0.20382450916E+03  0.12509000000E+03 0.  0.
<mgrwt>
<rscale>  2 0.43678270E+03</rscale>
<asrwt>0</asrwt>
<pdfrwt beam="1">  1       21 0.10926557E-01 0.43678270E+03</pdfrwt>
<pdfrwt beam="2">  1       21 0.94399502E-01 0.43678270E+03</pdfrwt>
<totfact> 0.60206146E+04</totfact>
</mgrwt>
</event>
<event>
 7    0  0.4766352E-002  0.4553043E+03  0.7546771E-02  0.1026152E+00
         21   -1    0    0  502  501  0.00000000000E+00  0.00000000000E+00  0.42929086529E+03  0.42929086529E+03  0.00000000000E+00 0.  1.
         21   -1    0    0  501  502 -0.00000000000E+00 -0.00000000000E+00 -0.12072349340E+03  0.12072349340E+03  0.00000000000E+00 0.  1.
      99926    2    1    2    0    0  0.00000000000E+00  0.00000000000E+00  0.30856737189E+03  0.55001435869E+03  0.45530426285E+03 0.  0.
      99925    2    3    3    0    0 -0.97064246195E+01  0.11267528438E+03  0.18338327996E+03  0.33999412309E+03  0.26301452807E+03 0.  0.
         25    1    4    4    0    0  0.28982637898E+01  0.99540132593E+02  0.10172411175E+03  0.18950446154E+03  0.12509000000E+03 0.  0.
         25    1    4    4    0    0 -0.12604688409E+02  0.13135151782E+02  0.81659168208E+02  0.15048966155E+03  0.12509000000E+03 0.  0.
         25    1    3    3    0    0  0.97064246195E+01 -0.11267528438E+03  0.12518409193E+03  0.21002023560E+03  0.12509000000E+03 0.  0.
<mgrwt>
<rscale>  2 0.45530426E+03</rscale>
<asrwt>0</asrwt>
<pdfrwt beam="1">  1       21 0.63131009E-01 0.45530426E+03</pdfrwt>
<pdfrwt beam="2">  1       21 0.17753455E-01 0.45530426E+03</pdfrwt>
<totfact> 0.61716858E+04</totfact>
</mgrwt>
</event>
<event>
 7    0  0.4766352E-002  0.4530349E+03  0.7546771E-02  0.1026821E+00
         21   -1    0    0  502  501  0.00000000000E+00  0.00000000000E+00  0.41812342093E+03  0.41812342093E+03  0.00000000000E+00 0. -1.
         21   -1    0    0  501  502 -0.00000000000E+00 -0.00000000000E+00 -0.12271531881E+03  0.12271531881E+03  0.00000000000E+00 0. -1.
      99926    2    1    2    0    0  0.00000000000E+00 -0.44408920985E-15  0.29540810212E+03  0.54083873973E+03  0.45303487239E+03 0.  0.
      99925    2    3    3    0    0  0.46779247033E+02 -0.29252002553E+01  0.30673764201E+03  0.40677636125E+03  0.26302504120E+03 0.  0.
         25    1    4    4    0    0  0.10304725489E+01  0.31951464593E+02  0.15921238293E+03  0.20498304550E+03  0.12509000000E+03 0.  0.
         25    1    4    4    0    0  0.45748774484E+02 -0.34876664848E+02  0.14752525907E+03  0.20179331575E+03  0.12509000000E+03 0.  0.
         25    1    3    3    0    0 -0.46779247033E+02  0.29252002553E+01 -0.11329539890E+02  0.13406237848E+03  0.12509000000E+03 0.  0.
<mgrwt>
<rscale>  2 0.45303487E+03</rscale>
<asrwt>0</asrwt>
<pdfrwt beam="1">  1       21 0.61488738E-01 0.45303487E+03</pdfrwt>
<pdfrwt beam="2">  1       21 0.18046371E-01 0.45303487E+03</pdfrwt>
<totfact> 0.63457094E+04</totfact>
</mgrwt>
</event>
<event>
 7    0  0.4766352E-002  0.4515686E+03  0.7546771E-02  0.1027255E+00
         21   -1    0    0  502  501  0.00000000000E+00  0.00000000000E+00  0.42293838412E+02  0.42293838412E+02  0.00000000000E+00 0.  1.
         21   -1    0    0  501  502 -0.00000000000E+00 -0.00000000000E+00 -0.12053420750E+04  0.12053420750E+04  0.00000000000E+00 0.  1.
      99926    2    1    2    0    0  0.00000000000E+00  0.00000000000E+00 -0.11630482366E+04  0.12476359134E+04  0.45156856822E+03 0.  0.
      99925    2    3    3    0    0  0.43461055198E+02 -0.19285084188E+02 -0.10078114617E+04  0.10426804496E+04  0.26313076545E+03 0.  0.
         25    1    3    3    0    0 -0.43461055198E+02  0.19285084188E+02 -0.15523677485E+03  0.20495546384E+03  0.12509000000E+03 0.  0.
         25    1    4    4    0    0 -0.81593266028E+01 -0.19054229219E+02 -0.59113309641E+03  0.60457876578E+03  0.12509000000E+03 0.  0.
         25    1    4    4    0    0  0.51620381801E+02 -0.23085496921E+00 -0.41667836534E+03  0.43810168380E+03  0.12509000000E+03 0.  0.
<mgrwt>
<rscale>  2 0.45156857E+03</rscale>
<asrwt>0</asrwt>
<pdfrwt beam="1">  1       21 0.62196823E-02 0.45156857E+03</pdfrwt>
<pdfrwt beam="2">  1       21 0.17725618E+00 0.45156857E+03</pdfrwt>
<totfact> 0.31507422E+04</totfact>
</mgrwt>
</event>
<event>
 7    0  0.4766352E-002  0.5097153E+03  0.7546771E-02  0.1011274E+00
         21   -1    0    0  502  501  0.00000000000E+00  0.00000000000E+00  0.24361422159E+03  0.24361422159E+03  0.00000000000E+00 0. -1.
         21   -1    0    0  501  502 -0.00000000000E+00 -0.00000000000E+00 -0.26661994734E+03  0.26661994734E+03  0.00000000000E+00 0. -1.
      99926    2    1    2    0    0  0.35527136788E-14  0.28421709430E-13 -0.23005725749E+02  0.51023416893E+03  0.50971525750E+03 0.  0.
      99925    2    3    3    0    0  0.24384481022E+02  0.15726810266E+03 -0.16965258687E+02  0.30772033145E+03  0.26282336913E+03 0.  0.
         25    1    3    3    0    0 -0.24384481022E+02 -0.15726810266E+03 -0.60404670618E+01  0.20251383748E+03  0.12509000000E+03 0.  0.
         25    1    4    4    0    0 -0.14838695654E+02  0.51472254908E+02 -0.27891389287E+02  0.13890650672E+03  0.12509000000E+03 0.  0.
         25    1    4    4    0    0  0.39223176676E+02  0.10579584775E+03  0.10926130600E+02  0.16881382473E+03  0.12509000000E+03 0.  0.
<mgrwt>
<rscale>  2 0.50971526E+03</rscale>
<asrwt>0</asrwt>
<pdfrwt beam="1">  1       21 0.35825621E-01 0.50971526E+03</pdfrwt>
<pdfrwt beam="2">  1       21 0.39208816E-01 0.50971526E+03</pdfrwt>
<totfact> 0.42741885E+04</totfact>
</mgrwt>
</event>
<event>
 7    0  0.4766352E-002  0.4425658E+03  0.7546771E-02  0.1029962E+00
         21   -1    0    0  502  501  0.00000000000E+00  0.00000000000E+00  0.47080024264E+03  0.47080024264E+03  0.00000000000E+00 0. -1.
         21   -1    0    0  501  502 -0.00000000000E+00 -0.00000000000E+00 -0.10400614341E+03  0.10400614341E+03  0.00000000000E+00 0. -1.
      99926    2    1    2    0    0  0.00000000000E+00  0.00000000000E+00  0.36679409923E+03  0.57480638605E+03  0.44256578066E+03 0.  0.
      99925    2    3    3    0    0  0.18149743722E+02  0.35795918997E+02  0.35400534586E+03  0.44281463886E+03  0.26297197279E+03 0.  0.
         25    1    3    3    0    0 -0.18149743722E+02 -0.35795918997E+02  0.12788753368E+02  0.13199174719E+03  0.12509000000E+03 0.  0.
         25    1    4    4    0    0  0.28823114033E+02  0.20809043195E+02  0.23806652187E+03  0.27126917466E+03  0.12509000000E+03 0.  0.
         25    1    4    4    0    0 -0.10673370311E+02  0.14986875802E+02  0.11593882399E+03  0.17154546420E+03  0.12509000000E+03 0.  0.
<mgrwt>
<rscale>  2 0.44256578E+03</rscale>
<asrwt>0</asrwt>
<pdfrwt beam="1">  1       21 0.69235329E-01 0.44256578E+03</pdfrwt>
<pdfrwt beam="2">  1       21 0.15295021E-01 0.44256578E+03</pdfrwt>
<totfact> 0.66562933E+04</totfact>
</mgrwt>
</event>
<event>
 7    0  0.4766352E-002  0.4504303E+03  0.7546771E-02  0.1027594E+00
         21   -1    0    0  502  501  0.00000000000E+00  0.00000000000E+00  0.23877894475E+03  0.23877894475E+03  0.00000000000E+00 0. -1.
         21   -1    0    0  501  502 -0.00000000000E+00 -0.00000000000E+00 -0.21242185197E+03  0.21242185197E+03  0.00000000000E+00 0. -1.
      99926    2    1    2    0    0  0.14210854715E-13  0.00000000000E+00  0.26357092783E+02  0.45120079672E+03  0.45043030828E+03 0.  0.
      99925    2    3    3    0    0  0.65970509703E+02 -0.59526095964E+02  0.77609759467E+02  0.28942994584E+03  0.26429331156E+03 0.  0.
         25    1    4    4    0    0 -0.36275967789E+01 -0.49116845068E+01  0.42419627606E+02  0.13222789800E+03  0.12509000000E+03 0.  0.
         25    1    4    4    0    0  0.69598106482E+02 -0.54614411457E+02  0.35190131861E+02  0.15720204784E+03  0.12509000000E+03 0.  0.
         25    1    3    3    0    0 -0.65970509703E+02  0.59526095964E+02 -0.51252666684E+02  0.16177085088E+03  0.12509000000E+03 0.  0.
<mgrwt>
<rscale>  2 0.45043031E+03</rscale>
<asrwt>0</asrwt>
<pdfrwt beam="1">  1       21 0.35114551E-01 0.45043031E+03</pdfrwt>
<pdfrwt beam="2">  1       21 0.31238507E-01 0.45043031E+03</pdfrwt>
<totfact> 0.71392795E+04</totfact>
</mgrwt>
</event>
<event>
 7    0  0.4766352E-002  0.4526303E+03  0.7546771E-02  0.1026941E+00
         21   -1    0    0  502  501  0.00000000000E+00  0.00000000000E+00  0.90128461946E+02  0.90128461946E+02  0.00000000000E+00 0. -1.
         21   -1    0    0  501  502 -0.00000000000E+00 -0.00000000000E+00 -0.56828383157E+03  0.56828383157E+03  0.00000000000E+00 0. -1.
      99926    2    1    2    0    0  0.00000000000E+00  0.00000000000E+00 -0.47815536962E+03  0.65841229351E+03  0.45263030251E+03 0.  0.
      99925    2    3    3    0    0 -0.80426008276E+02  0.58798000162E+02 -0.23052156812E+03  0.36363177282E+03  0.26298730998E+03 0.  0.
         25    1    4    4    0    0 -0.17850943307E+02  0.26528606723E+02 -0.65040121271E+02  0.14456883698E+03  0.12509000000E+03 0.  0.
         25    1    4    4    0    0 -0.62575064970E+02  0.32269393439E+02 -0.16548144684E+03  0.21906293584E+03  0.12509000000E+03 0.  0.
         25    1    3    3    0    0  0.80426008276E+02 -0.58798000162E+02 -0.24763380150E+03  0.29478052069E+03  0.12509000000E+03 0.  0.
<mgrwt>
<rscale>  2 0.45263030E+03</rscale>
<asrwt>0</asrwt>
<pdfrwt beam="1">  1       21 0.13254186E-01 0.45263030E+03</pdfrwt>
<pdfrwt beam="2">  1       21 0.83571152E-01 0.45263030E+03</pdfrwt>
<totfact> 0.56263235E+04</totfact>
</mgrwt>
</event>
<event>
 7    0  0.4766352E-002  0.4507578E+03  0.7546771E-02  0.1027496E+00
         21   -1    0    0  502  501  0.00000000000E+00  0.00000000000E+00  0.75864966574E+03  0.75864966574E+03  0.00000000000E+00 0.  1.
         21   -1    0    0  501  502 -0.00000000000E+00 -0.00000000000E+00 -0.66955353022E+02  0.66955353022E+02  0.00000000000E+00 0.  1.
      99926    2    1    2    0    0  0.14210854715E-13  0.14210854715E-13  0.69169431272E+03  0.82560501876E+03  0.45075783383E+03 0.  0.
      99925    2    3    3    0    0 -0.82342937516E+02 -0.69436847357E+02  0.46880226701E+03  0.54824206653E+03  0.26304365195E+03 0.  0.
         25    1    4    4    0    0 -0.44398910781E+02 -0.74097826817E+02  0.27913640365E+03  0.31784648993E+03  0.12509000000E+03 0.  0.
         25    1    3    3    0    0  0.82342937516E+02  0.69436847357E+02  0.22289204571E+03  0.27736295223E+03  0.12509000000E+03 0.  0.
         25    1    4    4    0    0 -0.37944026735E+02  0.46609794605E+01  0.18966586336E+03  0.23039557660E+03  0.12509000000E+03 0.  0.
<mgrwt>
<rscale>  2 0.45075783E+03</rscale>
<asrwt>0</asrwt>
<pdfrwt beam="1">  1       21 0.11156612E+00 0.45075783E+03</pdfrwt>
<pdfrwt beam="2">  1       21 0.98463759E-02 0.45075783E+03</pdfrwt>
<totfact> 0.48133388E+04</totfact>
</mgrwt>
</event>
<event>
 7    0  0.4766352E-002  0.4525085E+03  0.7546771E-02  0.1026977E+00
         21   -1    0    0  502  501  0.00000000000E+00  0.00000000000E+00  0.15569140929E+04  0.15569140929E+04  0.00000000000E+00 0. -1.
         21   -1    0    0  501  502 -0.00000000000E+00 -0.00000000000E+00 -0.32879776950E+02  0.32879776950E+02  0.00000000000E+00 0. -1.
      99926    2    1    2    0    0  0.00000000000E+00  0.00000000000E+00  0.15240343160E+04  0.15897938699E+04  0.45250851089E+03 0.  0.
      99925    2    3    3    0    0  0.78668753417E+02 -0.25372330317E+02  0.70385154585E+03  0.75601943250E+03  0.26329803610E+03 0.  0.
         25    1    4    4    0    0  0.76258626382E+02 -0.12945743048E+02  0.43575804701E+03  0.45990820170E+03  0.12509000000E+03 0.  0.
         25    1    3    3    0    0 -0.78668753417E+02  0.25372330317E+02  0.82018277012E+03  0.83377443737E+03  0.12509000000E+03 0.  0.
         25    1    4    4    0    0  0.24101270356E+01 -0.12426587269E+02  0.26809349884E+03  0.29611123079E+03  0.12509000000E+03 0.  0.
<mgrwt>
<rscale>  2 0.45250851E+03</rscale>
<asrwt>0</asrwt>
<pdfrwt beam="1">  1       21 0.22895791E+00 0.45250851E+03</pdfrwt>
<pdfrwt beam="2">  1       21 0.48352624E-02 0.45250851E+03</pdfrwt>
<totfact> 0.22085595E+04</totfact>
</mgrwt>
</event>
<event>
 7    0  0.4766352E-002  0.4502687E+03  0.7546771E-02  0.1027642E+00
         21   -1    0    0  502  501  0.00000000000E+00  0.00000000000E+00  0.46086926813E+03  0.46086926813E+03  0.00000000000E+00 0.  1.
         21   -1    0    0  501  502 -0.00000000000E+00 -0.00000000000E+00 -0.10997799957E+03  0.10997799957E+03  0.00000000000E+00 0.  1.
      99926    2    1    2    0    0  0.00000000000E+00  0.88817841970E-15  0.35089126856E+03  0.57084726770E+03  0.45026872054E+03 0.  0.
      99925    2    3    3    0    0  0.80868867961E+02  0.66099490273E+01  0.13009317104E+03  0.30442134329E+03  0.26299174106E+03 0.  0.
         25    1    4    4    0    0  0.24997452688E+02 -0.17177543780E+02  0.97841182845E+02  0.16167976315E+03  0.12509000000E+03 0.  0.
         25    1    4    4    0    0  0.55871415273E+02  0.23787492807E+02  0.32251988190E+02  0.14274158014E+03  0.12509000000E+03 0.  0.
         25    1    3    3    0    0 -0.80868867961E+02 -0.66099490273E+01  0.22079809752E+03  0.26642592441E+03  0.12509000000E+03 0.  0.
<mgrwt>
<rscale>  2 0.45026872E+03</rscale>
<asrwt>0</asrwt>
<pdfrwt beam="1">  1       21 0.67774892E-01 0.45026872E+03</pdfrwt>
<pdfrwt beam="2">  1       21 0.16173235E-01 0.45026872E+03</pdfrwt>
<totfact> 0.62827325E+04</totfact>
</mgrwt>
</event>
<event>
 7    0  0.4766352E-002  0.4563240E+03  0.7546771E-02  0.1025853E+00
         21   -1    0    0  502  501  0.00000000000E+00  0.00000000000E+00  0.10707738920E+03  0.10707738920E+03  0.00000000000E+00 0.  1.
         21   -1    0    0  501  502 -0.00000000000E+00 -0.00000000000E+00 -0.48617088221E+03  0.48617088221E+03  0.00000000000E+00 0.  1.
      99926    2    1    2    0    0  0.00000000000E+00  0.00000000000E+00 -0.37909349301E+03  0.59324827141E+03  0.45632404614E+03 0.  0.
      99925    2    3    3    0    0 -0.39438498279E+02 -0.98555711741E+02 -0.29569038660E+03  0.40920422852E+03  0.26219586657E+03 0.  0.
         25    1    4    4    0    0 -0.23229193622E+02 -0.83467918052E+02 -0.12808592373E+03  0.19889696010E+03  0.12509000000E+03 0.  0.
         25    1    3    3    0    0  0.39438498279E+02  0.98555711741E+02 -0.83403106406E+02  0.18404404289E+03  0.12509000000E+03 0.  0.
         25    1    4    4    0    0 -0.16209304658E+02 -0.15087793690E+02 -0.16760446287E+03  0.21030726842E+03  0.12509000000E+03 0.  0.
<mgrwt>
<rscale>  2 0.45632405E+03</rscale>
<asrwt>0</asrwt>
<pdfrwt beam="1">  1       21 0.15746675E-01 0.45632405E+03</pdfrwt>
<pdfrwt beam="2">  1       21 0.71495717E-01 0.45632405E+03</pdfrwt>
<totfact> 0.58481449E+04</totfact>
</mgrwt>
</event>
<event>
 7    0  0.4766352E-002  0.4451767E+03  0.7546771E-02  0.1029170E+00
         21   -1    0    0  502  501  0.00000000000E+00  0.00000000000E+00  0.15703234836E+03  0.15703234836E+03  0.00000000000E+00 0. -1.
         21   -1    0    0  501  502 -0.00000000000E+00 -0.00000000000E+00 -0.31551186715E+03  0.31551186715E+03  0.00000000000E+00 0. -1.
      99926    2    1    2    0    0  0.00000000000E+00  0.35527136788E-14 -0.15847951879E+03  0.47254421551E+03  0.44517668148E+03 0.  0.
      99925    2    3    3    0    0 -0.43883698270E+02 -0.31181620862E+02 -0.66580614267E+01  0.26859487015E+03  0.26306045320E+03 0.  0.
         25    1    3    3    0    0  0.43883698270E+02  0.31181620862E+02 -0.15182145736E+03  0.20394934535E+03  0.12509000000E+03 0.  0.
         25    1    4    4    0    0 -0.31419105115E+02 -0.11228029483E+02 -0.42672508818E+02  0.13631463576E+03  0.12509000000E+03 0.  0.
         25    1    4    4    0    0 -0.12464593155E+02 -0.19953591380E+02  0.36014447392E+02  0.13228023440E+03  0.12509000000E+03 0.  0.
<mgrwt>
<rscale>  2 0.44517668E+03</rscale>
<asrwt>0</asrwt>
<pdfrwt beam="1">  1       21 0.23092992E-01 0.44517668E+03</pdfrwt>
<pdfrwt beam="2">  1       21 0.46398804E-01 0.44517668E+03</pdfrwt>
<totfact> 0.72756178E+04</totfact>
</mgrwt>
</event>
<event>
 7    0  0.4766352E-002  0.4418917E+03  0.7546771E-02  0.1030168E+00
         21   -1    0    0  502  501  0.00000000000E+00  0.00000000000E+00  0.11826158622E+04  0.11826158622E+04  0.00000000000E+00 0.  1.
         21   -1    0    0  501  502 -0.00000000000E+00 -0.00000000000E+00 -0.41278891955E+02  0.41278891955E+02  0.00000000000E+00 0.  1.
      99926    2    1    2    0    0 -0.71054273576E-14  0.00000000000E+00  0.11413369703E+04  0.12238947542E+04  0.44189171706E+03 0.  0.
      99925    2    3    3    0    0  0.46240578355E+02  0.84520508885E+02  0.65034028821E+03  0.70813593709E+03  0.26311994874E+03 0.  0.
         25    1    4    4    0    0 -0.56266101343E+01  0.57504977170E+02  0.38682676432E+03  0.41063479496E+03  0.12509000000E+03 0.  0.
         25    1    3    3    0    0 -0.46240578355E+02 -0.84520508885E+02  0.49099668208E+03  0.51575881710E+03  0.12509000000E+03 0.  0.
         25    1    4    4    0    0  0.51867188489E+02  0.27015531715E+02  0.26351352389E+03  0.29750114213E+03  0.12509000000E+03 0.  0.
<mgrwt>
<rscale>  2 0.44189172E+03</rscale>
<asrwt>0</asrwt>
<pdfrwt beam="1">  1       21 0.17391407E+00 0.44189172E+03</pdfrwt>
<pdfrwt beam="2">  1       21 0.60704261E-02 0.44189172E+03</pdfrwt>
<totfact> 0.34828485E+04</totfact>
</mgrwt>
</event>
<event>
 7    0  0.4766352E-002  0.4653405E+03  0.7546771E-02  0.1023244E+00
         21   -1    0    0  502  501  0.00000000000E+00  0.00000000000E+00  0.18053456635E+03  0.18053456635E+03  0.00000000000E+00 0. -1.
         21   -1    0    0  501  502 -0.00000000000E+00 -0.00000000000E+00 -0.29986193733E+03  0.29986193733E+03  0.00000000000E+00 0. -1.
      99926    2    1    2    0    0  0.00000000000E+00  0.00000000000E+00 -0.11932737098E+03  0.48039650368E+03  0.46534049822E+03 0.  0.
      99925    2    3    3    0    0 -0.10564559386E+03 -0.59420988901E+02 -0.93272889120E+02  0.30427668779E+03  0.26304491150E+03 0.  0.
         25    1    3    3    0    0  0.10564559386E+03  0.59420988901E+02 -0.26054481862E+02  0.17611981589E+03  0.12509000000E+03 0.  0.
         25    1    4    4    0    0 -0.69268859350E+02 -0.51999461504E+02 -0.83182351870E+02  0.17340395219E+03  0.12509000000E+03 0.  0.
         25    1    4    4    0    0 -0.36376734511E+02 -0.74215273963E+01 -0.10090537249E+02  0.13087273560E+03  0.12509000000E+03 0.  0.
<mgrwt>
<rscale>  2 0.46534050E+03</rscale>
<asrwt>0</asrwt>
<pdfrwt beam="1">  1       21 0.26549201E-01 0.46534050E+03</pdfrwt>
<pdfrwt beam="2">  1       21 0.44097344E-01 0.46534050E+03</pdfrwt>
<totfact> 0.61470272E+04</totfact>
</mgrwt>
</event>
<event>
 7    0  0.4766352E-002  0.4623810E+03  0.7546771E-02  0.1024093E+00
         21   -1    0    0  502  501  0.00000000000E+00  0.00000000000E+00  0.29833077559E+03  0.29833077559E+03  0.00000000000E+00 0.  1.
         21   -1    0    0  501  502 -0.00000000000E+00 -0.00000000000E+00 -0.17916037573E+03  0.17916037573E+03  0.00000000000E+00 0.  1.
      99926    2    1    2    0    0  0.00000000000E+00  0.00000000000E+00  0.11917039987E+03  0.47749115132E+03  0.46238102835E+03 0.  0.
      99925    2    3    3    0    0 -0.10012792822E+03  0.58270788211E+02  0.10604491925E+03  0.30649152235E+03  0.26319278410E+03 0.  0.
         25    1    4    4    0    0 -0.84931541358E+02  0.69218958540E+01  0.51160160774E+02  0.15976905054E+03  0.12509000000E+03 0.  0.
         25    1    3    3    0    0  0.10012792822E+03 -0.58270788211E+02  0.13125480616E+02  0.17099962897E+03  0.12509000000E+03 0.  0.
         25    1    4    4    0    0 -0.15196386857E+02  0.51348892357E+02  0.54884758478E+02  0.14672247181E+03  0.12509000000E+03 0.  0.
<mgrwt>
<rscale>  2 0.46238103E+03</rscale>
<asrwt>0</asrwt>
<pdfrwt beam="1">  1       21 0.43872173E-01 0.46238103E+03</pdfrwt>
<pdfrwt beam="2">  1       21 0.26347114E-01 0.46238103E+03</pdfrwt>
<totfact> 0.63105482E+04</totfact>
</mgrwt>
</event>
<event>
 7    0  0.4766352E-002  0.4504906E+03  0.7546771E-02  0.1027576E+00
         21   -1    0    0  502  501  0.00000000000E+00  0.00000000000E+00  0.49655865387E+02  0.49655865387E+02  0.00000000000E+00 0. -1.
         21   -1    0    0  501  502 -0.00000000000E+00 -0.00000000000E+00 -0.10217411586E+04  0.10217411586E+04  0.00000000000E+00 0. -1.
      99926    2    1    2    0    0  0.00000000000E+00  0.00000000000E+00 -0.97208529323E+03  0.10713970240E+04  0.45049058340E+03 0.  0.
      99925    2    3    3    0    0 -0.22211838507E+02  0.91856721411E+02 -0.48576793718E+03  0.56043410761E+03  0.26303018294E+03 0.  0.
         25    1    4    4    0    0 -0.43199836707E+02  0.72392042487E+02 -0.24899973449E+03  0.29112747996E+03  0.12509000000E+03 0.  0.
         25    1    3    3    0    0  0.22211838507E+02 -0.91856721411E+02 -0.48631735605E+03  0.51096291640E+03  0.12509000000E+03 0.  0.
         25    1    4    4    0    0  0.20987998199E+02  0.19464678924E+02 -0.23676820269E+03  0.26930662765E+03  0.12509000000E+03 0.  0.
<mgrwt>
<rscale>  2 0.45049058E+03</rscale>
<asrwt>0</asrwt>
<pdfrwt beam="1">  1       21 0.73023339E-02 0.45049058E+03</pdfrwt>
<pdfrwt beam="2">  1       21 0.15025604E+00 0.45049058E+03</pdfrwt>
<totfact> 0.37815197E+04</totfact>
</mgrwt>
</event>
<event>
 7    0  0.4766352E-002  0.4654689E+03  0.7546771E-02  0.1023207E+00
         21   -1    0    0  502  501  0.00000000000E+00  0.00000000000E+00  0.47693784986E+03  0.47693784986E+03  0.00000000000E+00 0.  1.
         21   -1    0    0  501  502 -0.00000000000E+00 -0.00000000000E+00 -0.11356893704E+03  0.11356893704E+03  0.00000000000E+00 0.  1.
      99926    2    1    2    0    0  0.00000000000E+00 -0.71054273576E-14  0.36336891282E+03  0.59050678690E+03  0.46546890183E+03 0.  0.
      99925    2    3    3    0    0  0.17099727027E+02 -0.45046647834E+02  0.36974831902E+03  0.45630616817E+03  0.26302071885E+03 0.  0.
         25    1    4    4    0    0  0.18678454406E+01 -0.41189077074E+02  0.12801469001E+03  0.18367171224E+03  0.12509000000E+03 0.  0.
         25    1    4    4    0    0  0.15231881587E+02 -0.38575707602E+01  0.24173362900E+03  0.27263445593E+03  0.12509000000E+03 0.  0.
         25    1    3    3    0    0 -0.17099727027E+02  0.45046647834E+02 -0.63794061995E+01  0.13420061874E+03  0.12509000000E+03 0.  0.
<mgrwt>
<rscale>  2 0.46546890E+03</rscale>
<asrwt>0</asrwt>
<pdfrwt beam="1">  1       21 0.70137918E-01 0.46546890E+03</pdfrwt>
<pdfrwt beam="2">  1       21 0.16701315E-01 0.46546890E+03</pdfrwt>
<totfact> 0.54605922E+04</totfact>
</mgrwt>
</event>
<event>
 7    0  0.4766352E-002  0.4613641E+03  0.7546771E-02  0.1024386E+00
         21   -1    0    0  502  501  0.00000000000E+00  0.00000000000E+00  0.43390991596E+03  0.43390991596E+03  0.00000000000E+00 0.  1.
         21   -1    0    0  501  502 -0.00000000000E+00 -0.00000000000E+00 -0.12263884592E+03  0.12263884592E+03  0.00000000000E+00 0.  1.
      99926    2    1    2    0    0  0.00000000000E+00  0.00000000000E+00  0.31127107005E+03  0.55654876188E+03  0.46136411358E+03 0.  0.
      99925    2    3    3    0    0  0.40184092393E+02  0.10416826415E+03  0.24468813803E+03  0.37614204506E+03  0.26295392112E+03 0.  0.
         25    1    4    4    0    0  0.15115096937E+01  0.35370437855E+02  0.71416584125E+02  0.14832797822E+03  0.12509000000E+03 0.  0.
         25    1    3    3    0    0 -0.40184092393E+02 -0.10416826415E+03  0.66582932017E+02  0.18040671682E+03  0.12509000000E+03 0.  0.
         25    1    4    4    0    0  0.38672582699E+02  0.68797826299E+02  0.17327155391E+03  0.22781406684E+03  0.12509000000E+03 0.  0.
<mgrwt>
<rscale>  2 0.46136411E+03</rscale>
<asrwt>0</asrwt>
<pdfrwt beam="1">  1       21 0.63810281E-01 0.46136411E+03</pdfrwt>
<pdfrwt beam="2">  1       21 0.18035125E-01 0.46136411E+03</pdfrwt>
<totfact> 0.58437758E+04</totfact>
</mgrwt>
</event>
<event>
 7    0  0.4766352E-002  0.4432760E+03  0.7546771E-02  0.1029746E+00
         21   -1    0    0  502  501  0.00000000000E+00  0.00000000000E+00  0.10536813679E+03  0.10536813679E+03  0.00000000000E+00 0. -1.
         21   -1    0    0  501  502 -0.00000000000E+00 -0.00000000000E+00 -0.46620743230E+03  0.46620743230E+03  0.00000000000E+00 0. -1.
      99926    2    1    2    0    0  0.14210854715E-13 -0.17763568394E-14 -0.36083929551E+03  0.57157556909E+03  0.44327602462E+03 0.  0.
      99925    2    3    3    0    0 -0.89936162451E+02 -0.94361291730E+01 -0.16931639481E+03  0.32559572552E+03  0.26299616172E+03 0.  0.
         25    1    4    4    0    0 -0.31128554527E+02  0.15618191038E+02 -0.43291978098E+02  0.13687446170E+03  0.12509000000E+03 0.  0.
         25    1    4    4    0    0 -0.58807607924E+02 -0.25054320211E+02 -0.12602441671E+03  0.18872126382E+03  0.12509000000E+03 0.  0.
         25    1    3    3    0    0  0.89936162451E+02  0.94361291730E+01 -0.19152290070E+03  0.24597984357E+03  0.12509000000E+03 0.  0.
<mgrwt>
<rscale>  2 0.44327602E+03</rscale>
<asrwt>0</asrwt>
<pdfrwt beam="1">  1       21 0.15495315E-01 0.44327602E+03</pdfrwt>
<pdfrwt beam="2">  1       21 0.68559915E-01 0.44327602E+03</pdfrwt>
<totfact> 0.66408442E+04</totfact>
</mgrwt>
</event>
<event>
 7    0  0.4766352E-002  0.4559452E+03  0.7546771E-02  0.1025964E+00
         21   -1    0    0  502  501  0.00000000000E+00  0.00000000000E+00  0.15873465265E+04  0.15873465265E+04  0.00000000000E+00 0.  1.
         21   -1    0    0  501  502 -0.00000000000E+00 -0.00000000000E+00 -0.32741115510E+02  0.32741115510E+02  0.00000000000E+00 0.  1.
      99926    2    1    2    0    0  0.00000000000E+00 -0.14210854715E-13  0.15546054110E+04  0.16200876420E+04  0.45594515450E+03 0.  0.
      99925    2    3    3    0    0  0.27493568855E+02  0.83367334903E+02  0.71838174017E+03  0.77001497183E+03  0.26295384265E+03 0.  0.
         25    1    4    4    0    0  0.89221806261E+01  0.28515636228E+02  0.45388413193E+03  0.47175317713E+03  0.12509000000E+03 0.  0.
         25    1    3    3    0    0 -0.27493568855E+02 -0.83367334903E+02  0.83622367083E+03  0.85007267019E+03  0.12509000000E+03 0.  0.
         25    1    4    4    0    0  0.18571388229E+02  0.54851698675E+02  0.26449760824E+03  0.29826179470E+03  0.12509000000E+03 0.  0.
<mgrwt>
<rscale>  2 0.45594515E+03</rscale>
<asrwt>0</asrwt>
<pdfrwt beam="1">  1       21 0.23343326E+00 0.45594515E+03</pdfrwt>
<pdfrwt beam="2">  1       21 0.48148710E-02 0.45594515E+03</pdfrwt>
<totfact> 0.20826378E+04</totfact>
</mgrwt>
</event>
<event>
 7    0  0.4766352E-002  0.4582648E+03  0.7546771E-02  0.1025286E+00
         21   -1    0    0  502  501  0.00000000000E+00  0.00000000000E+00  0.90051199797E+02  0.90051199797E+02  0.00000000000E+00 0.  1.
         21   -1    0    0  501  502 -0.00000000000E+00 -0.00000000000E+00 -0.58302001040E+03  0.58302001040E+03  0.00000000000E+00 0.  1.
      99926    2    1    2    0    0  0.00000000000E+00  0.00000000000E+00 -0.49296881060E+03  0.67307121020E+03  0.45826477692E+03 0.  0.
      99925    2    3    3    0    0 -0.62473943558E+02 -0.97407562063E+02 -0.32347064273E+03  0.43272070826E+03  0.26310212442E+03 0.  0.
         25    1    4    4    0    0  0.68361594428E+01 -0.60458363661E+02 -0.17109697117E+03  0.22050766077E+03  0.12509000000E+03 0.  0.
         25    1    4    4    0    0 -0.69310103001E+02 -0.36949198402E+02 -0.15237367156E+03  0.21221304749E+03  0.12509000000E+03 0.  0.
         25    1    3    3    0    0  0.62473943558E+02  0.97407562063E+02 -0.16949816787E+03  0.24035050194E+03  0.12509000000E+03 0.  0.
<mgrwt>
<rscale>  2 0.45826478E+03</rscale>
<asrwt>0</asrwt>
<pdfrwt beam="1">  1       21 0.13242824E-01 0.45826478E+03</pdfrwt>
<pdfrwt beam="2">  1       21 0.85738237E-01 0.45826478E+03</pdfrwt>
<totfact> 0.53012338E+04</totfact>
</mgrwt>
</event>
<event>
 6    0  0.4766352E-002  0.4619678E+03  0.7546771E-02  0.1024212E+00
         21   -1    0    0  502  501  0.00000000000E+00  0.00000000000E+00  0.11820504402E+03  0.11820504402E+03  0.00000000000E+00 0. -1.
         21   -1    0    0  501  502 -0.00000000000E+00 -0.00000000000E+00 -0.45136442007E+03  0.45136442007E+03  0.00000000000E+00 0. -1.
      99926    2    1    2    0    0  0.00000000000E+00  0.00000000000E+00 -0.33315937605E+03  0.56956946409E+03  0.46196775273E+03 0.  0.
         25    1    3    3    0    0  0.61294209108E+02  0.25492224736E+02 -0.57325882877E+02  0.15277630228E+03  0.12509000000E+03 0.  0.
         25    1    3    3    0    0 -0.91736125750E+02 -0.73143941517E+02 -0.12113593521E+03  0.20996898783E+03  0.12509000000E+03 0.  0.
         25    1    3    3    0    0  0.30441916642E+02  0.47651716782E+02 -0.15469755796E+03  0.20682417398E+03  0.12509000000E+03 0.  0.
<mgrwt>
<rscale>  2 0.46196775E+03</rscale>
<asrwt>0</asrwt>
<pdfrwt beam="1">  1       21 0.17383094E-01 0.46196775E+03</pdfrwt>
<pdfrwt beam="2">  1       21 0.66377122E-01 0.46196775E+03</pdfrwt>
<totfact> 0.57364734E+04</totfact>
</mgrwt>
</event>
<event>
 7    0  0.4766352E-002  0.4485660E+03  0.7546771E-02  0.1028151E+00
         21   -1    0    0  502  501  0.00000000000E+00  0.00000000000E+00  0.69465728921E+02  0.69465728921E+02  0.00000000000E+00 0. -1.
         21   -1    0    0  501  502 -0.00000000000E+00 -0.00000000000E+00 -0.72413936594E+03  0.72413936594E+03  0.00000000000E+00 0. -1.
      99926    2    1    2    0    0 -0.14210854715E-13  0.00000000000E+00 -0.65467363701E+03  0.79360509486E+03  0.44856602143E+03 0.  0.
      99925    2    3    3    0    0 -0.89812125003E+02  0.10589277397E+02 -0.51577157500E+03  0.58595240037E+03  0.26294780344E+03 0.  0.
         25    1    3    3    0    0  0.89812125003E+02 -0.10589277397E+02 -0.13890206202E+03  0.20765269448E+03  0.12509000000E+03 0.  0.
         25    1    4    4    0    0 -0.24452496729E+02 -0.12539184000E+02 -0.30947797342E+03  0.33493175404E+03  0.12509000000E+03 0.  0.
         25    1    4    4    0    0 -0.65359628273E+02  0.23128461397E+02 -0.20629360158E+03  0.25102064634E+03  0.12509000000E+03 0.  0.
<mgrwt>
<rscale>  2 0.44856602E+03</rscale>
<asrwt>0</asrwt>
<pdfrwt beam="1">  1       21 0.10215549E-01 0.44856602E+03</pdfrwt>
<pdfrwt beam="2">  1       21 0.10649107E+00 0.44856602E+03</pdfrwt>
<totfact> 0.50581894E+04</totfact>
</mgrwt>
</event>
<event>
 7    0  0.4766352E-002  0.4529610E+03  0.7546771E-02  0.1026843E+00
         21   -1    0    0  502  501  0.00000000000E+00  0.00000000000E+00  0.62532211963E+03  0.62532211963E+03  0.00000000000E+00 0. -1.
         21   -1    0    0  501  502 -0.00000000000E+00 -0.00000000000E+00 -0.82027185779E+02  0.82027185779E+02  0.00000000000E+00 0. -1.
      99926    2    1    2    0    0  0.35527136788E-14  0.00000000000E+00  0.54329493385E+03  0.70734930541E+03  0.45296098586E+03 0.  0.
      99925    2    3    3    0    0  0.85349762980E+01  0.89685587716E+02  0.44443260349E+03  0.52421651498E+03  0.26299480046E+03 0.  0.
         25    1    4    4    0    0 -0.24827770431E+02  0.69656007660E+02  0.20483880366E+03  0.25114701108E+03  0.12509000000E+03 0.  0.
         25    1    4    4    0    0  0.33362746729E+02  0.20029580057E+02  0.23959379983E+03  0.27306950391E+03  0.12509000000E+03 0.  0.
         25    1    3    3    0    0 -0.85349762980E+01 -0.89685587716E+02  0.98862330358E+02  0.18313279042E+03  0.12509000000E+03 0.  0.
<mgrwt>
<rscale>  2 0.45296099E+03</rscale>
<asrwt>0</asrwt>
<pdfrwt beam="1">  1       21 0.91959133E-01 0.45296099E+03</pdfrwt>
<pdfrwt beam="2">  1       21 0.12062822E-01 0.45296099E+03</pdfrwt>
<totfact> 0.53356637E+04</totfact>
</mgrwt>
</event>
<event>
 7    0  0.4766352E-002  0.4540664E+03  0.7546771E-02  0.1026516E+00
         21   -1    0    0  502  501  0.00000000000E+00  0.00000000000E+00  0.50763393992E+02  0.50763393992E+02  0.00000000000E+00 0. -1.
         21   -1    0    0  501  502 -0.00000000000E+00 -0.00000000000E+00 -0.10153786793E+04  0.10153786793E+04  0.00000000000E+00 0. -1.
      99926    2    1    2    0    0  0.00000000000E+00  0.71054273576E-14 -0.96461528528E+03  0.10661420733E+04  0.45406637377E+03 0.  0.
      99925    2    3    3    0    0 -0.47773153144E+02  0.49760891997E+02 -0.39950371633E+03  0.48325527980E+03  0.26300955412E+03 0.  0.
         25    1    3    3    0    0  0.47773153144E+02 -0.49760891997E+02 -0.56511156896E+03  0.58288679347E+03  0.12509000000E+03 0.  0.
         25    1    4    4    0    0 -0.30149533668E+02  0.34677005702E+02 -0.13473005751E+03  0.18950246859E+03  0.12509000000E+03 0.  0.
         25    1    4    4    0    0 -0.17623619476E+02  0.15083886295E+02 -0.26477365882E+03  0.29375281121E+03  0.12509000000E+03 0.  0.
<mgrwt>
<rscale>  2 0.45406637E+03</rscale>
<asrwt>0</asrwt>
<pdfrwt beam="1">  1       21 0.74652056E-02 0.45406637E+03</pdfrwt>
<pdfrwt beam="2">  1       21 0.14932038E+00 0.45406637E+03</pdfrwt>
<totfact> 0.36959163E+04</totfact>
</mgrwt>
</event>
<event>
 7    0  0.4766352E-002  0.4623816E+03  0.7546771E-02  0.1024093E+00
         21   -1    0    0  502  501  0.00000000000E+00  0.00000000000E+00  0.49539759652E+03  0.49539759652E+03  0.00000000000E+00 0.  1.
         21   -1    0    0  501  502 -0.00000000000E+00 -0.00000000000E+00 -0.10789147983E+03  0.10789147983E+03  0.00000000000E+00 0.  1.
      99926    2    1    2    0    0  0.00000000000E+00  0.00000000000E+00  0.38750611669E+03  0.60328907635E+03  0.46238157312E+03 0.  0.
      99925    2    3    3    0    0 -0.89692030280E+02  0.24339596424E+02  0.14268556531E+03  0.31307934748E+03  0.26272120398E+03 0.  0.
         25    1    4    4    0    0 -0.47909986428E+02  0.30882523383E+02  0.11249070052E+03  0.17762534406E+03  0.12509000000E+03 0.  0.
         25    1    4    4    0    0 -0.41782043853E+02 -0.65429269589E+01  0.30194864793E+02  0.13545400342E+03  0.12509000000E+03 0.  0.
         25    1    3    3    0    0  0.89692030280E+02 -0.24339596424E+02  0.24482055138E+03  0.29020972887E+03  0.12509000000E+03 0.  0.
<mgrwt>
<rscale>  2 0.46238157E+03</rscale>
<asrwt>0</asrwt>
<pdfrwt beam="1">  1       21 0.72852587E-01 0.46238157E+03</pdfrwt>
<pdfrwt beam="2">  1       21 0.15866394E-01 0.46238157E+03</pdfrwt>
<totfact> 0.55186655E+04</totfact>
</mgrwt>
</event>
<event>
 7    0  0.4766352E-002  0.4518027E+03  0.7546771E-02  0.1027186E+00
         21   -1    0    0  502  501  0.00000000000E+00  0.00000000000E+00  0.60188528723E+03  0.60188528723E+03  0.00000000000E+00 0. -1.
         21   -1    0    0  501  502 -0.00000000000E+00 -0.00000000000E+00 -0.84785958330E+02  0.84785958330E+02  0.00000000000E+00 0. -1.
      99926    2    1    2    0    0  0.71054273576E-14 -0.14210854715E-13  0.51709932890E+03  0.68667124556E+03  0.45180270421E+03 0.  0.
      99925    2    3    3    0    0  0.51174280884E+02 -0.97121526382E+02  0.34577837983E+03  0.44782030124E+03  0.26254320851E+03 0.  0.
         25    1    4    4    0    0  0.20707441951E+02 -0.22243960614E+02  0.20980838208E+03  0.24615169556E+03  0.12509000000E+03 0.  0.
         25    1    3    3    0    0 -0.51174280884E+02  0.97121526382E+02  0.17132094906E+03  0.23885094431E+03  0.12509000000E+03 0.  0.
         25    1    4    4    0    0  0.30466838932E+02 -0.74877565767E+02  0.13596999775E+03  0.20166860568E+03  0.12509000000E+03 0.  0.
<mgrwt>
<rscale>  2 0.45180270E+03</rscale>
<asrwt>0</asrwt>
<pdfrwt beam="1">  1       21 0.88512540E-01 0.45180270E+03</pdfrwt>
<pdfrwt beam="2">  1       21 0.12468524E-01 0.45180270E+03</pdfrwt>
<totfact> 0.55004293E+04</totfact>
</mgrwt>
</event>
<event>
 7    0  0.4766352E-002  0.4493918E+03  0.7546771E-02  0.1027904E+00
         21   -1    0    0  502  501  0.00000000000E+00  0.00000000000E+00  0.35507861848E+02  0.35507861848E+02  0.00000000000E+00 0. -1.
         21   -1    0    0  501  502 -0.00000000000E+00 -0.00000000000E+00 -0.14218893652E+04  0.14218893652E+04  0.00000000000E+00 0. -1.
      99926    2    1    2    0    0 -0.14210854715E-13  0.00000000000E+00 -0.13863815034E+04  0.14573972271E+04  0.44939181632E+03 0.  0.
      99925    2    3    3    0    0 -0.10049036853E+03  0.13569988260E+02 -0.75933322622E+03  0.81000282740E+03  0.26312577449E+03 0.  0.
         25    1    3    3    0    0  0.10049036853E+03 -0.13569988260E+02 -0.62704827718E+03  0.64739439970E+03  0.12509000000E+03 0.  0.
         25    1    4    4    0    0 -0.91321365022E+02  0.11138116119E+02 -0.38159086743E+03  0.41197420738E+03  0.12509000000E+03 0.  0.
         25    1    4    4    0    0 -0.91690035053E+01  0.24318721413E+01 -0.37774235879E+03  0.39802862002E+03  0.12509000000E+03 0.  0.
<mgrwt>
<rscale>  2 0.44939182E+03</rscale>
<asrwt>0</asrwt>
<pdfrwt beam="1">  1       21 0.52217461E-02 0.44939182E+03</pdfrwt>
<pdfrwt beam="2">  1       21 0.20910131E+00 0.44939182E+03</pdfrwt>
<totfact> 0.25954331E+04</totfact>
</mgrwt>
</event>
<event>
 7    0  0.4766352E-002  0.4503501E+03  0.7546771E-02  0.1027618E+00
         21   -1    0    0  502  501  0.00000000000E+00  0.00000000000E+00  0.24690700375E+04  0.24690700375E+04  0.00000000000E+00 0.  1.
         21   -1    0    0  501  502 -0.00000000000E+00 -0.00000000000E+00 -0.20535587785E+02  0.20535587785E+02  0.00000000000E+00 0.  1.
      99926    2    1    2    0    0  0.00000000000E+00  0.00000000000E+00  0.24485344497E+04  0.24896056253E+04  0.45035010603E+03 0.  0.
      99925    2    3    3    0    0 -0.94927738372E+02 -0.51764469648E+02  0.16156927933E+04  0.16405098894E+04  0.26290427777E+03 0.  0.
         25    1    3    3    0    0  0.94927738372E+02  0.51764469648E+02  0.83284165643E+03  0.84909573584E+03  0.12509000000E+03 0.  0.
         25    1    4    4    0    0 -0.90217389250E+02 -0.30551731824E+02  0.87440674660E+03  0.88842965520E+03  0.12509000000E+03 0.  0.
         25    1    4    4    0    0 -0.47103491221E+01 -0.21212737824E+02  0.74128604665E+03  0.75208023421E+03  0.12509000000E+03 0.  0.
<mgrwt>
<rscale>  2 0.45035011E+03</rscale>
<asrwt>0</asrwt>
<pdfrwt beam="1">  1       21 0.36309833E+00 0.45035011E+03</pdfrwt>
<pdfrwt beam="2">  1       21 0.30199411E-02 0.45035011E+03</pdfrwt>
<totfact> 0.75064418E+03</totfact>
</mgrwt>
</event>
<event>
 7    0  0.4766352E-002  0.4520764E+03  0.7546771E-02  0.1027105E+00
         21   -1    0    0  502  501  0.00000000000E+00  0.00000000000E+00  0.19532263552E+03  0.19532263552E+03  0.00000000000E+00 0. -1.
         21   -1    0    0  501  502 -0.00000000000E+00 -0.00000000000E+00 -0.26158390939E+03  0.26158390939E+03  0.00000000000E+00 0. -1.
      99926    2    1    2    0    0 -0.35527136788E-14  0.00000000000E+00 -0.66261273875E+02  0.45690654491E+03  0.45207635900E+03 0.  0.
      99925    2    3    3    0    0  0.22396476378E+02  0.83371120099E+02  0.27443621284E+02  0.27835554016E+03  0.26320392962E+03 0.  0.
         25    1    4    4    0    0 -0.22661593898E+02  0.63533516770E+02  0.22045101726E+02  0.14381776734E+03  0.12509000000E+03 0.  0.
         25    1    4    4    0    0  0.45058070275E+02  0.19837603329E+02  0.53985195580E+01  0.13453777282E+03  0.12509000000E+03 0.  0.
         25    1    3    3    0    0 -0.22396476378E+02 -0.83371120099E+02 -0.93704895159E+02  0.17855100475E+03  0.12509000000E+03 0.  0.
<mgrwt>
<rscale>  2 0.45207636E+03</rscale>
<asrwt>0</asrwt>
<pdfrwt beam="1">  1       21 0.28723917E-01 0.45207636E+03</pdfrwt>
<pdfrwt beam="2">  1       21 0.38468222E-01 0.45207636E+03</pdfrwt>
<totfact> 0.70025061E+04</totfact>
</mgrwt>
</event>
<event>
 7    0  0.4766352E-002  0.4573161E+03  0.7546771E-02  0.1025563E+00
         21   -1    0    0  502  501  0.00000000000E+00  0.00000000000E+00  0.12336698709E+03  0.12336698709E+03  0.00000000000E+00 0.  1.
         21   -1    0    0  501  502 -0.00000000000E+00 -0.00000000000E+00 -0.42381270870E+03  0.42381270870E+03  0.00000000000E+00 0.  1.
      99926    2    1    2    0    0  0.00000000000E+00  0.00000000000E+00 -0.30044572162E+03  0.54717969579E+03  0.45731606997E+03 0.  0.
      99925    2    3    3    0    0  0.44402423629E+01  0.11226621329E+03 -0.22000647072E+03  0.36078924651E+03  0.26294983331E+03 0.  0.
         25    1    4    4    0    0 -0.83150987296E+01  0.55751453895E+02 -0.60455839346E+02  0.14993259182E+03  0.12509000000E+03 0.  0.
         25    1    4    4    0    0  0.12755341092E+02  0.56514759395E+02 -0.15955063138E+03  0.21085665470E+03  0.12509000000E+03 0.  0.
         25    1    3    3    0    0 -0.44402423629E+01 -0.11226621329E+03 -0.80439250890E+02  0.18639044928E+03  0.12509000000E+03 0.  0.
<mgrwt>
<rscale>  2 0.45731607E+03</rscale>
<asrwt>0</asrwt>
<pdfrwt beam="1">  1       21 0.18142204E-01 0.45731607E+03</pdfrwt>
<pdfrwt beam="2">  1       21 0.62325398E-01 0.45731607E+03</pdfrwt>
<totfact> 0.60928984E+04</totfact>
</mgrwt>
</event>
<event>
 7    0  0.4766352E-002  0.4447401E+03  0.7546771E-02  0.1029302E+00
         21   -1    0    0  502  501  0.00000000000E+00  0.00000000000E+00  0.26417369239E+03  0.26417369239E+03  0.00000000000E+00 0.  1.
         21   -1    0    0  501  502 -0.00000000000E+00 -0.00000000000E+00 -0.18718154562E+03  0.18718154562E+03  0.00000000000E+00 0.  1.
      99926    2    1    2    0    0  0.71054273576E-14  0.00000000000E+00  0.76992146770E+02  0.45135523801E+03  0.44474010412E+03 0.  0.
      99925    2    3    3    0    0  0.62227743144E+02 -0.70758831591E+02  0.91575929358E+02  0.29406792422E+03  0.26307924462E+03 0.  0.
         25    1    4    4    0    0 -0.96268340803E+00 -0.23536333452E+02  0.68000562216E+02  0.14431379114E+03  0.12509000000E+03 0.  0.
         25    1    4    4    0    0  0.63190426552E+02 -0.47222498139E+02  0.23575367143E+02  0.14975413308E+03  0.12509000000E+03 0.  0.
         25    1    3    3    0    0 -0.62227743144E+02  0.70758831591E+02 -0.14583782588E+02  0.15728731379E+03  0.12509000000E+03 0.  0.
<mgrwt>
<rscale>  2 0.44474010E+03</rscale>
<asrwt>0</asrwt>
<pdfrwt beam="1">  1       21 0.38849073E-01 0.44474010E+03</pdfrwt>
<pdfrwt beam="2">  1       21 0.27526698E-01 0.44474010E+03</pdfrwt>
<totfact> 0.74745832E+04</totfact>
</mgrwt>
</event>
<event>
 7    0  0.4766352E-002  0.4822731E+03  0.7546771E-02  0.1018512E+00
         21   -1    0    0  502  501  0.00000000000E+00  0.00000000000E+00  0.10880116323E+03  0.10880116323E+03  0.00000000000E+00 0. -1.
         21   -1    0    0  501  502 -0.00000000000E+00 -0.00000000000E+00 -0.53443215439E+03  0.53443215439E+03  0.00000000000E+00 0. -1.
      99926    2    1    2    0    0  0.00000000000E+00  0.00000000000E+00 -0.42563099116E+03  0.64323331762E+03  0.48227311791E+03 0.  0.
      99925    2    3    3    0    0 -0.31372934689E+02 -0.70018424033E+02 -0.11015464251E+03  0.29529700823E+03  0.26301984159E+03 0.  0.
         25    1    4    4    0    0 -0.44885278704E+02 -0.25089843388E+02 -0.83857835291E+02  0.15913463836E+03  0.12509000000E+03 0.  0.
         25    1    3    3    0    0  0.31372934689E+02  0.70018424033E+02 -0.31547634865E+03  0.34793630939E+03  0.12509000000E+03 0.  0.
         25    1    4    4    0    0  0.13512344015E+02 -0.44928580645E+02 -0.26296807221E+02  0.13616236987E+03  0.12509000000E+03 0.  0.
<mgrwt>
<rscale>  2 0.48227312E+03</rscale>
<asrwt>0</asrwt>
<pdfrwt beam="1">  1       21 0.16000171E-01 0.48227312E+03</pdfrwt>
<pdfrwt beam="2">  1       21 0.78592964E-01 0.48227312E+03</pdfrwt>
<totfact> 0.45483106E+04</totfact>
</mgrwt>
</event>
<event>
 7    0  0.4766352E-002  0.4552069E+03  0.7546771E-02  0.1026181E+00
         21   -1    0    0  502  501  0.00000000000E+00  0.00000000000E+00  0.31063108826E+03  0.31063108826E+03  0.00000000000E+00 0. -1.
         21   -1    0    0  501  502 -0.00000000000E+00 -0.00000000000E+00 -0.16676805145E+03  0.16676805145E+03  0.00000000000E+00 0. -1.
      99926    2    1    2    0    0  0.00000000000E+00  0.00000000000E+00  0.14386303681E+03  0.47739913971E+03  0.45520694770E+03 0.  0.
      99925    2    3    3    0    0  0.99659778495E+02  0.22031277281E+02  0.14249656454E+03  0.31594690536E+03  0.26286827019E+03 0.  0.
         25    1    3    3    0    0 -0.99659778495E+02 -0.22031277281E+02  0.13664722612E+01  0.16145223434E+03  0.12509000000E+03 0.  0.
         25    1    4    4    0    0  0.57101131009E+02  0.13713027699E+02  0.11711905800E+03  0.18114350151E+03  0.12509000000E+03 0.  0.
         25    1    4    4    0    0  0.42558647486E+02  0.83182495819E+01  0.25377506540E+02  0.13480340385E+03  0.12509000000E+03 0.  0.
<mgrwt>
<rscale>  2 0.45520695E+03</rscale>
<asrwt>0</asrwt>
<pdfrwt beam="1">  1       21 0.45681042E-01 0.45520695E+03</pdfrwt>
<pdfrwt beam="2">  1       21 0.24524713E-01 0.45520695E+03</pdfrwt>
<totfact> 0.66780159E+04</totfact>
</mgrwt>
</event>
<event>
 7    0  0.4766352E-002  0.4549017E+03  0.7546771E-02  0.1026270E+00
         21   -1    0    0  502  501  0.00000000000E+00  0.00000000000E+00  0.69333045107E+02  0.69333045107E+02  0.00000000000E+00 0. -1.
         21   -1    0    0  501  502 -0.00000000000E+00 -0.00000000000E+00 -0.74616504365E+03  0.74616504365E+03  0.00000000000E+00 0. -1.
      99926    2    1    2    0    0  0.17763568394E-14  0.00000000000E+00 -0.67683199855E+03  0.81549808876E+03  0.45490172402E+03 0.  0.
      99925    2    3    3    0    0  0.14896131279E+02 -0.32193503551E+02 -0.61842688690E+03  0.67296043912E+03  0.26299357745E+03 0.  0.
         25    1    4    4    0    0  0.26202609151E+02 -0.41322531491E+02 -0.25302437398E+03  0.28646635102E+03  0.12509000000E+03 0.  0.
         25    1    4    4    0    0 -0.11306477872E+02  0.91290279396E+01 -0.36540251292E+03  0.38649408811E+03  0.12509000000E+03 0.  0.
         25    1    3    3    0    0 -0.14896131279E+02  0.32193503551E+02 -0.58405111643E+02  0.14253764964E+03  0.12509000000E+03 0.  0.
<mgrwt>
<rscale>  2 0.45490172E+03</rscale>
<asrwt>0</asrwt>
<pdfrwt beam="1">  1       21 0.10196036E-01 0.45490172E+03</pdfrwt>
<pdfrwt beam="2">  1       21 0.10973015E+00 0.45490172E+03</pdfrwt>
<totfact> 0.47060591E+04</totfact>
</mgrwt>
</event>
<event>
 7    0  0.4766352E-002  0.4558695E+03  0.7546771E-02  0.1025986E+00
         21   -1    0    0  502  501  0.00000000000E+00  0.00000000000E+00  0.50730364741E+03  0.50730364741E+03  0.00000000000E+00 0. -1.
         21   -1    0    0  501  502 -0.00000000000E+00 -0.00000000000E+00 -0.10241251309E+03  0.10241251309E+03  0.00000000000E+00 0. -1.
      99926    2    1    2    0    0  0.00000000000E+00 -0.71054273576E-14  0.40489113432E+03  0.60971616051E+03  0.45586946128E+03 0.  0.
      99925    2    3    3    0    0  0.77838838942E+02 -0.55199117804E+02  0.17127689036E+03  0.32806220521E+03  0.26302701356E+03 0.  0.
         25    1    4    4    0    0  0.25385543228E+02  0.11157060721E+01  0.48198489608E+02  0.13644146403E+03  0.12509000000E+03 0.  0.
         25    1    3    3    0    0 -0.77838838942E+02  0.55199117804E+02  0.23361424396E+03  0.28165395530E+03  0.12509000000E+03 0.  0.
         25    1    4    4    0    0  0.52453295715E+02 -0.56314823876E+02  0.12307840075E+03  0.19162074118E+03  0.12509000000E+03 0.  0.
<mgrwt>
<rscale>  2 0.45586946E+03</rscale>
<asrwt>0</asrwt>
<pdfrwt beam="1">  1       21 0.74603477E-01 0.45586946E+03</pdfrwt>
<pdfrwt beam="2">  1       21 0.15060664E-01 0.45586946E+03</pdfrwt>
<totfact> 0.57686955E+04</totfact>
</mgrwt>
</event>
<event>
 7    0  0.4766352E-002  0.4618955E+03  0.7546771E-02  0.1024233E+00
         21   -1    0    0  502  501  0.00000000000E+00  0.00000000000E+00  0.27345177141E+03  0.27345177141E+03  0.00000000000E+00 0.  1.
         21   -1    0    0  501  502 -0.00000000000E+00 -0.00000000000E+00 -0.19505038807E+03  0.19505038807E+03  0.00000000000E+00 0.  1.
      99926    2    1    2    0    0  0.00000000000E+00 -0.17763568394E-14  0.78401383344E+02  0.46850215948E+03  0.46189554720E+03 0.  0.
      99925    2    3    3    0    0  0.54182365375E+02 -0.12120196353E+02 -0.58539605809E+02  0.27489696717E+03  0.26279046641E+03 0.  0.
         25    1    4    4    0    0  0.57062252662E+02 -0.97287991218E+01 -0.27058282254E+01  0.13786072616E+03  0.12509000000E+03 0.  0.
         25    1    4    4    0    0 -0.28798872870E+01 -0.23913972315E+01 -0.55833777584E+02  0.13703624101E+03  0.12509000000E+03 0.  0.
         25    1    3    3    0    0 -0.54182365375E+02  0.12120196353E+02  0.13694098915E+03  0.19360519231E+03  0.12509000000E+03 0.  0.
<mgrwt>
<rscale>  2 0.46189555E+03</rscale>
<asrwt>0</asrwt>
<pdfrwt beam="1">  1       21 0.40213496E-01 0.46189555E+03</pdfrwt>
<pdfrwt beam="2">  1       21 0.28683881E-01 0.46189555E+03</pdfrwt>
<totfact> 0.63971738E+04</totfact>
</mgrwt>
</event>
<event>
 7    0  0.4766352E-002  0.4540363E+03  0.7546771E-02  0.1026525E+00
         21   -1    0    0  502  501  0.00000000000E+00  0.00000000000E+00  0.89161165582E+02  0.89161165582E+02  0.00000000000E+00 0. -1.
         21   -1    0    0  501  502 -0.00000000000E+00 -0.00000000000E+00 -0.57802342203E+03  0.57802342203E+03  0.00000000000E+00 0. -1.
      99926    2    1    2    0    0 -0.35527136788E-14  0.00000000000E+00 -0.48886225645E+03  0.66718458762E+03  0.45403630710E+03 0.  0.
      99925    2    3    3    0    0  0.12387369367E+02 -0.10529462009E+03 -0.36216947203E+03  0.45996737389E+03  0.26298831653E+03 0.  0.
         25    1    4    4    0    0 -0.26828206647E+02 -0.55455990194E+02 -0.14270382759E+03  0.19951694171E+03  0.12509000000E+03 0.  0.
         25    1    4    4    0    0  0.39215576014E+02 -0.49838629901E+02 -0.21946564444E+03  0.26045043218E+03  0.12509000000E+03 0.  0.
         25    1    3    3    0    0 -0.12387369367E+02  0.10529462009E+03 -0.12669278442E+03  0.20721721373E+03  0.12509000000E+03 0.  0.
<mgrwt>
<rscale>  2 0.45403631E+03</rscale>
<asrwt>0</asrwt>
<pdfrwt beam="1">  1       21 0.13111936E-01 0.45403631E+03</pdfrwt>
<pdfrwt beam="2">  1       21 0.85003447E-01 0.45403631E+03</pdfrwt>
<totfact> 0.55138728E+04</totfact>
</mgrwt>
</event>
<event>
 7    0  0.4766352E-002  0.4672234E+03  0.7546771E-02  0.1022707E+00
         21   -1    0    0  502  501  0.00000000000E+00  0.00000000000E+00  0.13175621719E+03  0.13175621719E+03  0.00000000000E+00 0.  1.
         21   -1    0    0  501  502 -0.00000000000E+00 -0.00000000000E+00 -0.41420757935E+03  0.41420757935E+03  0.00000000000E+00 0.  1.
      99926    2    1    2    0    0  0.00000000000E+00  0.00000000000E+00 -0.28245136216E+03  0.54596379654E+03  0.46722338891E+03 0.  0.
      99925    2    3    3    0    0  0.48637987492E+02 -0.84809107584E+02 -0.26578870543E+03  0.38632861625E+03  0.26276971903E+03 0.  0.
         25    1    4    4    0    0  0.55277936695E+02 -0.39309636869E+02 -0.17266138989E+03  0.22374172945E+03  0.12509000000E+03 0.  0.
         25    1    3    3    0    0 -0.48637987492E+02  0.84809107584E+02 -0.16662656728E+02  0.15963518029E+03  0.12509000000E+03 0.  0.
         25    1    4    4    0    0 -0.66399492034E+01 -0.45499470715E+02 -0.93127315540E+02  0.16258688680E+03  0.12509000000E+03 0.  0.
<mgrwt>
<rscale>  2 0.46722339E+03</rscale>
<asrwt>0</asrwt>
<pdfrwt beam="1">  1       21 0.19375915E-01 0.46722339E+03</pdfrwt>
<pdfrwt beam="2">  1       21 0.60912878E-01 0.46722339E+03</pdfrwt>
<totfact> 0.56467587E+04</totfact>
</mgrwt>
</event>
<event>
 7    0  0.4766352E-002  0.4508396E+03  0.7546771E-02  0.1027472E+00
         21   -1    0    0  502  501  0.00000000000E+00  0.00000000000E+00  0.26441298822E+03  0.26441298822E+03  0.00000000000E+00 0.  1.
         21   -1    0    0  501  502 -0.00000000000E+00 -0.00000000000E+00 -0.19217696740E+03  0.19217696740E+03  0.00000000000E+00 0.  1.
      99926    2    1    2    0    0  0.00000000000E+00  0.00000000000E+00  0.72236020812E+02  0.45658995562E+03  0.45083959994E+03 0.  0.
      99925    2    3    3    0    0  0.83296776438E+01  0.39679828331E+02 -0.56972930165E+02  0.27223612892E+03  0.26310211480E+03 0.  0.
         25    1    4    4    0    0  0.12616807474E+02  0.30217684959E+02  0.10498644015E+02  0.12973057443E+03  0.12509000000E+03 0.  0.
         25    1    4    4    0    0 -0.42871298302E+01  0.94621433717E+01 -0.67471574180E+02  0.14250555449E+03  0.12509000000E+03 0.  0.
         25    1    3    3    0    0 -0.83296776438E+01 -0.39679828331E+02  0.12920895098E+03  0.18435382670E+03  0.12509000000E+03 0.  0.
<mgrwt>
<rscale>  2 0.45083960E+03</rscale>
<asrwt>0</asrwt>
<pdfrwt beam="1">  1       21 0.38884263E-01 0.45083960E+03</pdfrwt>
<pdfrwt beam="2">  1       21 0.28261319E-01 0.45083960E+03</pdfrwt>
<totfact> 0.70748010E+04</totfact>
</mgrwt>
</event>
<event>
 7    0  0.4766352E-002  0.4557122E+03  0.7546771E-02  0.1026032E+00
         21   -1    0    0  502  501  0.00000000000E+00  0.00000000000E+00  0.28071310995E+03  0.28071310995E+03  0.00000000000E+00 0. -1.
         21   -1    0    0  501  502 -0.00000000000E+00 -0.00000000000E+00 -0.18495182423E+03  0.18495182423E+03  0.00000000000E+00 0. -1.
      99926    2    1    2    0    0 -0.14210854715E-13 -0.71054273576E-14  0.95761285726E+02  0.46566493418E+03  0.45571219765E+03 0.  0.
      99925    2    3    3    0    0 -0.86280034839E+02 -0.54677903084E+02  0.10915954589E+03  0.30361266184E+03  0.26425541521E+03 0.  0.
         25    1    3    3    0    0  0.86280034839E+02  0.54677903084E+02 -0.13398260167E+02  0.16205227235E+03  0.12509000000E+03 0.  0.
         25    1    4    4    0    0 -0.71260087204E+01 -0.17399827239E+02  0.23795180679E+02  0.12871384040E+03  0.12509000000E+03 0.  0.
         25    1    4    4    0    0 -0.79154026119E+02 -0.37278075845E+02  0.85364365214E+02  0.17489882143E+03  0.12509000000E+03 0.  0.
<mgrwt>
<rscale>  2 0.45571220E+03</rscale>
<asrwt>0</asrwt>
<pdfrwt beam="1">  1       21 0.41281340E-01 0.45571220E+03</pdfrwt>
<pdfrwt beam="2">  1       21 0.27198798E-01 0.45571220E+03</pdfrwt>
<totfact> 0.67378716E+04</totfact>
</mgrwt>
</event>
<event>
 7    0  0.4766352E-002  0.4561993E+03  0.7546771E-02  0.1025889E+00
         21   -1    0    0  502  501  0.00000000000E+00  0.00000000000E+00  0.29533007138E+02  0.29533007138E+02  0.00000000000E+00 0.  1.
         21   -1    0    0  501  502 -0.00000000000E+00 -0.00000000000E+00 -0.17617386645E+04  0.17617386645E+04  0.00000000000E+00 0.  1.
      99926    2    1    2    0    0 -0.19984014443E-14 -0.14210854715E-13 -0.17322056574E+04  0.17912716717E+04  0.45619925714E+03 0.  0.
      99925    2    3    3    0    0 -0.17139207737E+01  0.10251403004E+03 -0.89124416374E+03  0.93489803488E+03  0.26307054632E+03 0.  0.
         25    1    4    4    0    0  0.21440004155E+02  0.32375276062E+02 -0.52004737960E+03  0.53628781210E+03  0.12509000000E+03 0.  0.
         25    1    4    4    0    0 -0.23153924928E+02  0.70138753976E+02 -0.37119678414E+03  0.39861022278E+03  0.12509000000E+03 0.  0.
         25    1    3    3    0    0  0.17139207737E+01 -0.10251403004E+03 -0.84096149364E+03  0.85637363677E+03  0.12509000000E+03 0.  0.
<mgrwt>
<rscale>  2 0.45619926E+03</rscale>
<asrwt>0</asrwt>
<pdfrwt beam="1">  1       21 0.43430873E-02 0.45619926E+03</pdfrwt>
<pdfrwt beam="2">  1       21 0.25907933E+00 0.45619926E+03</pdfrwt>
<totfact> 0.17266425E+04</totfact>
</mgrwt>
</event>
<event>
 7    0  0.4766352E-002  0.4551951E+03  0.7546771E-02  0.1026184E+00
         21   -1    0    0  502  501  0.00000000000E+00  0.00000000000E+00  0.74418059829E+03  0.74418059829E+03  0.00000000000E+00 0. -1.
         21   -1    0    0  501  502 -0.00000000000E+00 -0.00000000000E+00 -0.69607637191E+02  0.69607637191E+02  0.00000000000E+00 0. -1.
      99926    2    1    2    0    0  0.71054273576E-14  0.00000000000E+00  0.67457296110E+03  0.81378823548E+03  0.45519513657E+03 0.  0.
      99925    2    3    3    0    0  0.49918373481E+02 -0.80212851792E+02  0.31282780966E+03  0.41953830422E+03  0.26310683118E+03 0.  0.
         25    1    4    4    0    0 -0.71987156616E+01 -0.37833434824E+02  0.18782422695E+03  0.22892933108E+03  0.12509000000E+03 0.  0.
         25    1    3    3    0    0 -0.49918373481E+02  0.80212851792E+02  0.36174515144E+03  0.39424993125E+03  0.12509000000E+03 0.  0.
         25    1    4    4    0    0  0.57117089143E+02 -0.42379416968E+02  0.12500358271E+03  0.19060897315E+03  0.12509000000E+03 0.  0.
<mgrwt>
<rscale>  2 0.45519514E+03</rscale>
<asrwt>0</asrwt>
<pdfrwt beam="1">  1       21 0.10943832E+00 0.45519514E+03</pdfrwt>
<pdfrwt beam="2">  1       21 0.10236418E-01 0.45519514E+03</pdfrwt>
<totfact> 0.47033054E+04</totfact>
</mgrwt>
</event>
<event>
 7    0  0.4766352E-002  0.4590297E+03  0.7546771E-02  0.1025063E+00
         21   -1    0    0  502  501  0.00000000000E+00  0.00000000000E+00  0.47778962908E+03  0.47778962908E+03  0.00000000000E+00 0.  1.
         21   -1    0    0  501  502 -0.00000000000E+00 -0.00000000000E+00 -0.11025159628E+03  0.11025159628E+03  0.00000000000E+00 0.  1.
      99926    2    1    2    0    0  0.00000000000E+00  0.00000000000E+00  0.36753803280E+03  0.58804122536E+03  0.45902971274E+03 0.  0.
      99925    2    3    3    0    0 -0.46026718708E+02  0.16713437118E+01  0.36808456178E+03  0.45474059139E+03  0.26302377954E+03 0.  0.
         25    1    4    4    0    0  0.70352273877E+00  0.70690545195E+00  0.23494095358E+03  0.26616865786E+03  0.12509000000E+03 0.  0.
         25    1    4    4    0    0 -0.46730241447E+02  0.96443825982E+00  0.13314360821E+03  0.18857193353E+03  0.12509000000E+03 0.  0.
         25    1    3    3    0    0  0.46026718708E+02 -0.16713437118E+01 -0.54652898782E+00  0.13330063398E+03  0.12509000000E+03 0.  0.
<mgrwt>
<rscale>  2 0.45902971E+03</rscale>
<asrwt>0</asrwt>
<pdfrwt beam="1">  1       21 0.70263180E-01 0.45902971E+03</pdfrwt>
<pdfrwt beam="2">  1       21 0.16213470E-01 0.45902971E+03</pdfrwt>
<totfact> 0.57564927E+04</totfact>
</mgrwt>
</event>
<event>
 7    0  0.4766352E-002  0.4553117E+03  0.7546771E-02  0.1026150E+00
         21   -1    0    0  502  501  0.00000000000E+00  0.00000000000E+00  0.39079342649E+03  0.39079342649E+03  0.00000000000E+00 0.  1.
         21   -1    0    0  501  502 -0.00000000000E+00 -0.00000000000E+00 -0.13262039912E+03  0.13262039912E+03  0.00000000000E+00 0.  1.
      99926    2    1    2    0    0  0.71054273576E-14 -0.14210854715E-13  0.25817302737E+03  0.52341382560E+03  0.45531167432E+03 0.  0.
      99925    2    3    3    0    0  0.42345923181E+02 -0.86436428071E+02  0.92863207202E+02  0.29485469091E+03  0.26277610278E+03 0.  0.
         25    1    4    4    0    0  0.20907197457E+02 -0.56868340203E+02  0.87887425037E+02  0.16444703282E+03  0.12509000000E+03 0.  0.
         25    1    4    4    0    0  0.21438725724E+02 -0.29568087868E+02  0.49757821653E+01  0.13040765809E+03  0.12509000000E+03 0.  0.
         25    1    3    3    0    0 -0.42345923181E+02  0.86436428071E+02  0.16530982017E+03  0.22855913469E+03  0.12509000000E+03 0.  0.
<mgrwt>
<rscale>  2 0.45531167E+03</rscale>
<asrwt>0</asrwt>
<pdfrwt beam="1">  1       21 0.57469621E-01 0.45531167E+03</pdfrwt>
<pdfrwt beam="2">  1       21 0.19503000E-01 0.45531167E+03</pdfrwt>
<totfact> 0.63497493E+04</totfact>
</mgrwt>
</event>
<event>
 7    0  0.4766352E-002  0.4594752E+03  0.7546771E-02  0.1024934E+00
         21   -1    0    0  502  501  0.00000000000E+00  0.00000000000E+00  0.33575806715E+03  0.33575806715E+03  0.00000000000E+00 0.  1.
         21   -1    0    0  501  502 -0.00000000000E+00 -0.00000000000E+00 -0.15719466324E+03  0.15719466324E+03  0.00000000000E+00 0.  1.
      99926    2    1    2    0    0  0.35527136788E-14  0.00000000000E+00  0.17856340392E+03  0.49295273039E+03  0.45947524980E+03 0.  0.
      99925    2    3    3    0    0 -0.17475841165E+02 -0.11564557194E+03  0.12258184374E+03  0.31278406909E+03  0.26292254017E+03 0.  0.
         25    1    4    4    0    0  0.10725761838E+02 -0.19605140465E+02  0.45233363327E+02  0.13488131360E+03  0.12509000000E+03 0.  0.
         25    1    4    4    0    0 -0.28201603003E+02 -0.96040431479E+02  0.77348480416E+02  0.17790275550E+03  0.12509000000E+03 0.  0.
         25    1    3    3    0    0  0.17475841165E+02  0.11564557194E+03  0.55981560173E+02  0.18016866130E+03  0.12509000000E+03 0.  0.
<mgrwt>
<rscale>  2 0.45947525E+03</rscale>
<asrwt>0</asrwt>
<pdfrwt beam="1">  1       21 0.49376186E-01 0.45947525E+03</pdfrwt>
<pdfrwt beam="2">  1       21 0.23116862E-01 0.45947525E+03</pdfrwt>
<totfact> 0.63483089E+04</totfact>
</mgrwt>
</event>
<event>
 7    0  0.4766352E-002  0.4566969E+03  0.7546771E-02  0.1025744E+00
         21   -1    0    0  502  501  0.00000000000E+00  0.00000000000E+00  0.18991815219E+03  0.18991815219E+03  0.00000000000E+00 0. -1.
         21   -1    0    0  501  502 -0.00000000000E+00 -0.00000000000E+00 -0.27455524123E+03  0.27455524123E+03  0.00000000000E+00 0. -1.
      99926    2    1    2    0    0  0.14210854715E-13  0.35527136788E-14 -0.84637089036E+02  0.46447339342E+03  0.45669694148E+03 0.  0.
      99925    2    3    3    0    0 -0.97309114624E+02 -0.22515435336E+02  0.42345356271E+01  0.28138411906E+03  0.26302677155E+03 0.  0.
         25    1    3    3    0    0  0.97309114624E+02  0.22515435336E+02 -0.88871624663E+02  0.18308927437E+03  0.12509000000E+03 0.  0.
         25    1    4    4    0    0 -0.72045960691E+02 -0.31221654367E+02  0.30486834023E+02  0.15080572702E+03  0.12509000000E+03 0.  0.
         25    1    4    4    0    0 -0.25263153933E+02  0.87062190314E+01 -0.26252298396E+02  0.13057839204E+03  0.12509000000E+03 0.  0.
<mgrwt>
<rscale>  2 0.45669694E+03</rscale>
<asrwt>0</asrwt>
<pdfrwt beam="1">  1       21 0.27929140E-01 0.45669694E+03</pdfrwt>
<pdfrwt beam="2">  1       21 0.40375770E-01 0.45669694E+03</pdfrwt>
<totfact> 0.66941682E+04</totfact>
</mgrwt>
</event>
<event>
 7    0  0.4766352E-002  0.4586958E+03  0.7546771E-02  0.1025160E+00
         21   -1    0    0  502  501  0.00000000000E+00  0.00000000000E+00  0.59896719112E+03  0.59896719112E+03  0.00000000000E+00 0. -1.
         21   -1    0    0  501  502 -0.00000000000E+00 -0.00000000000E+00 -0.87818584821E+02  0.87818584821E+02  0.00000000000E+00 0. -1.
      99926    2    1    2    0    0 -0.14210854715E-13 -0.88817841970E-15  0.51114860630E+03  0.68678577594E+03  0.45869576444E+03 0.  0.
      99925    2    3    3    0    0 -0.11613700422E+03  0.11348051737E+01  0.33320302610E+03  0.44020672342E+03  0.26318930678E+03 0.  0.
         25    1    3    3    0    0  0.11613700422E+03 -0.11348051737E+01  0.17794558020E+03  0.24657905253E+03  0.12509000000E+03 0.  0.
         25    1    4    4    0    0 -0.31862874848E+02  0.25460824750E+02  0.12117870115E+03  0.17887225079E+03  0.12509000000E+03 0.  0.
         25    1    4    4    0    0 -0.84274129377E+02 -0.24326019577E+02  0.21202432495E+03  0.26133447262E+03  0.12509000000E+03 0.  0.
<mgrwt>
<rscale>  2 0.45869576E+03</rscale>
<asrwt>0</asrwt>
<pdfrwt beam="1">  1       21 0.88083409E-01 0.45869576E+03</pdfrwt>
<pdfrwt beam="2">  1       21 0.12914498E-01 0.45869576E+03</pdfrwt>
<totfact> 0.52094114E+04</totfact>
</mgrwt>
</event>
<event>
 7    0  0.4766352E-002  0.4502975E+03  0.7546771E-02  0.1027633E+00
         21   -1    0    0  502  501  0.00000000000E+00  0.00000000000E+00  0.43880971306E+02  0.43880971306E+02  0.00000000000E+00 0.  1.
         21   -1    0    0  501  502 -0.00000000000E+00 -0.00000000000E+00 -0.11552152241E+04  0.11552152241E+04  0.00000000000E+00 0.  1.
      99926    2    1    2    0    0  0.00000000000E+00  0.00000000000E+00 -0.11113342528E+04  0.11990961954E+04  0.45029752876E+03 0.  0.
      99925    2    3    3    0    0  0.80645352877E+02 -0.29195181438E+02 -0.88024529693E+03  0.92268048460E+03  0.26296665631E+03 0.  0.
         25    1    3    3    0    0 -0.80645352877E+02  0.29195181438E+02 -0.23108895588E+03  0.27641571082E+03  0.12509000000E+03 0.  0.
         25    1    4    4    0    0  0.29493026057E+02 -0.10927953764E+02 -0.55898796598E+03  0.57367613945E+03  0.12509000000E+03 0.  0.
         25    1    4    4    0    0  0.51152326820E+02 -0.18267227675E+02 -0.32125733094E+03  0.34900434515E+03  0.12509000000E+03 0.  0.
<mgrwt>
<rscale>  2 0.45029753E+03</rscale>
<asrwt>0</asrwt>
<pdfrwt beam="1">  1       21 0.64530841E-02 0.45029753E+03</pdfrwt>
<pdfrwt beam="2">  1       21 0.16988459E+00 0.45029753E+03</pdfrwt>
<totfact> 0.33391123E+04</totfact>
</mgrwt>
</event>
<event>
 7    0  0.4766352E-002  0.4498413E+03  0.7546771E-02  0.1027769E+00
         21   -1    0    0  502  501  0.00000000000E+00  0.00000000000E+00  0.11447971154E+03  0.11447971154E+03  0.00000000000E+00 0. -1.
         21   -1    0    0  501  502 -0.00000000000E+00 -0.00000000000E+00 -0.44190630676E+03  0.44190630676E+03  0.00000000000E+00 0. -1.
      99926    2    1    2    0    0 -0.71054273576E-14  0.00000000000E+00 -0.32742659521E+03  0.55638601830E+03  0.44984133437E+03 0.  0.
      99925    2    3    3    0    0  0.50247441463E+02  0.66236376090E+02 -0.12109345658E+03  0.30117446862E+03  0.26292655330E+03 0.  0.
         25    1    4    4    0    0  0.13802051373E+02  0.70414468740E+02 -0.77537438860E+02  0.16373227096E+03  0.12509000000E+03 0.  0.
         25    1    4    4    0    0  0.36445390090E+02 -0.41780926504E+01 -0.43556017719E+02  0.13744219766E+03  0.12509000000E+03 0.  0.
         25    1    3    3    0    0 -0.50247441463E+02 -0.66236376090E+02 -0.20633313863E+03  0.25521154968E+03  0.12509000000E+03 0.  0.
<mgrwt>
<rscale>  2 0.44984133E+03</rscale>
<asrwt>0</asrwt>
<pdfrwt beam="1">  1       21 0.16835251E-01 0.44984133E+03</pdfrwt>
<pdfrwt beam="2">  1       21 0.64986223E-01 0.44984133E+03</pdfrwt>
<totfact> 0.64019242E+04</totfact>
</mgrwt>
</event>
<event>
 7    0  0.4766352E-002  0.3976369E+03  0.7546771E-02  0.1044601E+00
         21   -1    0    0  502  501  0.00000000000E+00  0.00000000000E+00  0.25122452225E+03  0.25122452225E+03  0.00000000000E+00 0. -1.
         21   -1    0    0  501  502 -0.00000000000E+00 -0.00000000000E+00 -0.15734443359E+03  0.15734443359E+03  0.00000000000E+00 0. -1.
      99926    2    1    2    0    0 -0.35527136788E-14  0.35527136788E-14  0.93880088656E+02  0.40856895584E+03  0.39763692061E+03 0.  0.
      99925    2    3    3    0    0 -0.31432731724E+02 -0.23152465651E+02  0.75615733846E+02  0.27626193393E+03  0.26282858225E+03 0.  0.
         25    1    3    3    0    0  0.31432731724E+02  0.23152465651E+02  0.18264354810E+02  0.13230702191E+03  0.12509000000E+03 0.  0.
         25    1    4    4    0    0 -0.38401701753E+02  0.21683424384E+02  0.38987768131E+02  0.13824766094E+03  0.12509000000E+03 0.  0.
         25    1    4    4    0    0  0.69689700287E+01 -0.44835890036E+02  0.36627965715E+02  0.13801427300E+03  0.12509000000E+03 0.  0.
<mgrwt>
<rscale>  2 0.39763692E+03</rscale>
<asrwt>0</asrwt>
<pdfrwt beam="1">  1       21 0.36944783E-01 0.39763692E+03</pdfrwt>
<pdfrwt beam="2">  1       21 0.23138887E-01 0.39763692E+03</pdfrwt>
<totfact> 0.11719773E+05</totfact>
</mgrwt>
</event>
<event>
 7    0  0.4766352E-002  0.4751314E+03  0.7546771E-02  0.1020482E+00
         21   -1    0    0  502  501  0.00000000000E+00  0.00000000000E+00  0.47531468965E+02  0.47531468965E+02  0.00000000000E+00 0. -1.
         21   -1    0    0  501  502 -0.00000000000E+00 -0.00000000000E+00 -0.11873706658E+04  0.11873706658E+04  0.00000000000E+00 0. -1.
      99926    2    1    2    0    0  0.00000000000E+00  0.00000000000E+00 -0.11398391968E+04  0.12349021348E+04  0.47513144266E+03 0.  0.
      99925    2    3    3    0    0 -0.11987918723E+03  0.34555180032E+02 -0.80983447202E+03  0.86058180871E+03  0.26306671665E+03 0.  0.
         25    1    3    3    0    0  0.11987918723E+03 -0.34555180032E+02 -0.33000472481E+03  0.37432032605E+03  0.12509000000E+03 0.  0.
         25    1    4    4    0    0 -0.20782928530E+02  0.24773271935E+02 -0.31168332676E+03  0.33740131802E+03  0.12509000000E+03 0.  0.
         25    1    4    4    0    0 -0.99096258700E+02  0.97819080968E+01 -0.49815114527E+03  0.52318049070E+03  0.12509000000E+03 0.  0.
<mgrwt>
<rscale>  2 0.47513144E+03</rscale>
<asrwt>0</asrwt>
<pdfrwt beam="1">  1       21 0.69899224E-02 0.47513144E+03</pdfrwt>
<pdfrwt beam="2">  1       21 0.17461332E+00 0.47513144E+03</pdfrwt>
<totfact> 0.26638790E+04</totfact>
</mgrwt>
</event>
<event>
 6    0  0.4766352E-002  0.4567960E+03  0.7546771E-02  0.1025715E+00
         21   -1    0    0  502  501  0.00000000000E+00  0.00000000000E+00  0.10274838805E+03  0.10274838805E+03  0.00000000000E+00 0. -1.
         21   -1    0    0  501  502 -0.00000000000E+00 -0.00000000000E+00 -0.50770292102E+03  0.50770292102E+03  0.00000000000E+00 0. -1.
      99926    2    1    2    0    0 -0.14210854715E-13  0.00000000000E+00 -0.40495453298E+03  0.61045130907E+03  0.45679604527E+03 0.  0.
         25    1    3    3    0    0  0.74641687938E+02 -0.15211143670E+02 -0.10656245603E+03  0.18112378531E+03  0.12509000000E+03 0.  0.
         25    1    3    3    0    0 -0.71769400731E+02  0.32511238202E+02 -0.25685312305E+03  0.29635934676E+03  0.12509000000E+03 0.  0.
         25    1    3    3    0    0 -0.28722872079E+01 -0.17300094533E+02 -0.41538953891E+02  0.13296817700E+03  0.12509000000E+03 0.  0.
<mgrwt>
<rscale>  2 0.45679605E+03</rscale>
<asrwt>0</asrwt>
<pdfrwt beam="1">  1       21 0.15110057E-01 0.45679605E+03</pdfrwt>
<pdfrwt beam="2">  1       21 0.74662196E-01 0.45679605E+03</pdfrwt>
<totfact> 0.57223385E+04</totfact>
</mgrwt>
</event>
<event>
 7    0  0.4766352E-002  0.4515710E+03  0.7546771E-02  0.1027255E+00
         21   -1    0    0  502  501  0.00000000000E+00  0.00000000000E+00  0.20613267981E+03  0.20613267981E+03  0.00000000000E+00 0. -1.
         21   -1    0    0  501  502 -0.00000000000E+00 -0.00000000000E+00 -0.24731201694E+03  0.24731201694E+03  0.00000000000E+00 0. -1.
      99926    2    1    2    0    0  0.00000000000E+00  0.00000000000E+00 -0.41179337136E+02  0.45344469675E+03  0.45157098579E+03 0.  0.
      99925    2    3    3    0    0  0.52121219193E+02 -0.50639839605E+02  0.57248033270E+02  0.27846906933E+03  0.26265313708E+03 0.  0.
         25    1    4    4    0    0  0.28483760895E+02 -0.47904697808E+01 -0.72263729013E+01  0.12858460950E+03  0.12509000000E+03 0.  0.
         25    1    3    3    0    0 -0.52121219193E+02  0.50639839605E+02 -0.98427370406E+02  0.17497562742E+03  0.12509000000E+03 0.  0.
         25    1    4    4    0    0  0.23637458298E+02 -0.45849369824E+02  0.64474406171E+02  0.14988445983E+03  0.12509000000E+03 0.  0.
<mgrwt>
<rscale>  2 0.45157099E+03</rscale>
<asrwt>0</asrwt>
<pdfrwt beam="1">  1       21 0.30313630E-01 0.45157099E+03</pdfrwt>
<pdfrwt beam="2">  1       21 0.36369414E-01 0.45157099E+03</pdfrwt>
<totfact> 0.70570964E+04</totfact>
</mgrwt>
</event>
<event>
 7    0  0.4766352E-002  0.4556706E+03  0.7546771E-02  0.1026044E+00
         21   -1    0    0  502  501  0.00000000000E+00  0.00000000000E+00  0.71292810006E+02  0.71292810006E+02  0.00000000000E+00 0. -1.
         21   -1    0    0  501  502 -0.00000000000E+00 -0.00000000000E+00 -0.72810881776E+03  0.72810881776E+03  0.00000000000E+00 0. -1.
      99926    2    1    2    0    0  0.71054273576E-14  0.71054273576E-14 -0.65681600776E+03  0.79940162777E+03  0.45567059861E+03 0.  0.
      99925    2    3    3    0    0  0.38596957828E+02  0.48914809882E+02 -0.58035316240E+03  0.64010172633E+03  0.26275091467E+03 0.  0.
         25    1    4    4    0    0  0.12855046098E+02 -0.10138491838E+01 -0.35143215099E+03  0.37325372731E+03  0.12509000000E+03 0.  0.
         25    1    4    4    0    0  0.25741911730E+02  0.49928659065E+02 -0.22892101141E+03  0.26684799902E+03  0.12509000000E+03 0.  0.
         25    1    3    3    0    0 -0.38596957828E+02 -0.48914809882E+02 -0.76462845357E+02  0.15929990144E+03  0.12509000000E+03 0.  0.
<mgrwt>
<rscale>  2 0.45567060E+03</rscale>
<asrwt>0</asrwt>
<pdfrwt beam="1">  1       21 0.10484236E-01 0.45567060E+03</pdfrwt>
<pdfrwt beam="2">  1       21 0.10707483E+00 0.45567060E+03</pdfrwt>
<totfact> 0.47543062E+04</totfact>
</mgrwt>
</event>
<event>
 7    0  0.4766352E-002  0.4478399E+03  0.7546771E-02  0.1028368E+00
         21   -1    0    0  502  501  0.00000000000E+00  0.00000000000E+00  0.80837190748E+02  0.80837190748E+02  0.00000000000E+00 0. -1.
         21   -1    0    0  501  502 -0.00000000000E+00 -0.00000000000E+00 -0.62026072007E+03  0.62026072007E+03  0.00000000000E+00 0. -1.
      99926    2    1    2    0    0 -0.88817841970E-15  0.00000000000E+00 -0.53942352932E+03  0.70109791081E+03  0.44783985594E+03 0.  0.
      99925    2    3    3    0    0  0.62117028508E+01 -0.84669703053E+02 -0.44019979435E+03  0.52026538733E+03  0.26399369395E+03 0.  0.
         25    1    3    3    0    0 -0.62117028508E+01  0.84669703053E+02 -0.99223734967E+02  0.18083252348E+03  0.12509000000E+03 0.  0.
         25    1    4    4    0    0  0.28381497177E+02 -0.77897895701E+02 -0.23521552806E+03  0.27901154865E+03  0.12509000000E+03 0.  0.
         25    1    4    4    0    0 -0.22169794326E+02 -0.67718073517E+01 -0.20498426629E+03  0.24125383869E+03  0.12509000000E+03 0.  0.
<mgrwt>
<rscale>  2 0.44783986E+03</rscale>
<asrwt>0</asrwt>
<pdfrwt beam="1">  1       21 0.11887822E-01 0.44783986E+03</pdfrwt>
<pdfrwt beam="2">  1       21 0.91214812E-01 0.44783986E+03</pdfrwt>
<totfact> 0.55928767E+04</totfact>
</mgrwt>
</event>
<event>
 7    0  0.4766352E-002  0.4381408E+03  0.7546771E-02  0.1031319E+00
         21   -1    0    0  502  501  0.00000000000E+00  0.00000000000E+00  0.48393743460E+03  0.48393743460E+03  0.00000000000E+00 0.  1.
         21   -1    0    0  501  502 -0.00000000000E+00 -0.00000000000E+00 -0.99169533525E+02  0.99169533525E+02  0.00000000000E+00 0.  1.
      99926    2    1    2    0    0  0.00000000000E+00 -0.71054273576E-14  0.38476790108E+03  0.58310696813E+03  0.43814084331E+03 0.  0.
      99925    2    3    3    0    0 -0.84354215164E+02  0.40727502598E+02  0.21495913347E+03  0.35233242720E+03  0.26297594398E+03 0.  0.
         25    1    3    3    0    0  0.84354215164E+02 -0.40727502598E+02  0.16980876761E+03  0.23077454093E+03  0.12509000000E+03 0.  0.
         25    1    4    4    0    0 -0.18077850637E+02  0.37608680457E+02  0.13919673258E+03  0.19174060600E+03  0.12509000000E+03 0.  0.
         25    1    4    4    0    0 -0.66276364527E+02  0.31188221413E+01  0.75762400884E+02  0.16059182119E+03  0.12509000000E+03 0.  0.
<mgrwt>
<rscale>  2 0.43814084E+03</rscale>
<asrwt>0</asrwt>
<pdfrwt beam="1">  1       21 0.71167268E-01 0.43814084E+03</pdfrwt>
<pdfrwt beam="2">  1       21 0.14583755E-01 0.43814084E+03</pdfrwt>
<totfact> 0.68399953E+04</totfact>
</mgrwt>
</event>
<event>
 7    0  0.4766352E-002  0.4478769E+03  0.7546771E-02  0.1028357E+00
         21   -1    0    0  502  501  0.00000000000E+00  0.00000000000E+00  0.65149070618E+02  0.65149070618E+02  0.00000000000E+00 0.  1.
         21   -1    0    0  501  502 -0.00000000000E+00 -0.00000000000E+00 -0.76974904012E+03  0.76974904012E+03  0.00000000000E+00 0.  1.
      99926    2    1    2    0    0  0.00000000000E+00  0.00000000000E+00 -0.70459996950E+03  0.83489811074E+03  0.44787692315E+03 0.  0.
      99925    2    3    3    0    0  0.97492693257E+02 -0.32190991864E+02 -0.39278133260E+03  0.48358705823E+03  0.26275117973E+03 0.  0.
         25    1    4    4    0    0  0.27103114215E+02 -0.18941419667E+02 -0.12737463759E+03  0.18156310909E+03  0.12509000000E+03 0.  0.
         25    1    4    4    0    0  0.70389579042E+02 -0.13249572196E+02 -0.26540669501E+03  0.30202394915E+03  0.12509000000E+03 0.  0.
         25    1    3    3    0    0 -0.97492693257E+02  0.32190991864E+02 -0.31181863690E+03  0.35131105251E+03  0.12509000000E+03 0.  0.
<mgrwt>
<rscale>  2 0.44787692E+03</rscale>
<asrwt>0</asrwt>
<pdfrwt beam="1">  1       21 0.95807454E-02 0.44787692E+03</pdfrwt>
<pdfrwt beam="2">  1       21 0.11319839E+00 0.44787692E+03</pdfrwt>
<totfact> 0.48792861E+04</totfact>
</mgrwt>
</event>
<event>
 7    0  0.4766352E-002  0.4539359E+03  0.7546771E-02  0.1026555E+00
         21   -1    0    0  502  501  0.00000000000E+00  0.00000000000E+00  0.47204056418E+03  0.47204056418E+03  0.00000000000E+00 0. -1.
         21   -1    0    0  501  502 -0.00000000000E+00 -0.00000000000E+00 -0.10913142528E+03  0.10913142528E+03  0.00000000000E+00 0. -1.
      99926    2    1    2    0    0  0.00000000000E+00  0.00000000000E+00  0.36290913891E+03  0.58117198946E+03  0.45393594067E+03 0.  0.
      99925    2    3    3    0    0 -0.49971196561E+02  0.98224065781E+02  0.25543331523E+03  0.38281965557E+03  0.26298217160E+03 0.  0.
         25    1    3    3    0    0  0.49971196561E+02 -0.98224065781E+02  0.10747582368E+03  0.19835233389E+03  0.12509000000E+03 0.  0.
         25    1    4    4    0    0 -0.35024190881E+02  0.90406629781E+02  0.15490465940E+03  0.22145657421E+03  0.12509000000E+03 0.  0.
         25    1    4    4    0    0 -0.14947005680E+02  0.78174360000E+01  0.10052865583E+03  0.16136308136E+03  0.12509000000E+03 0.  0.
<mgrwt>
<rscale>  2 0.45393594E+03</rscale>
<asrwt>0</asrwt>
<pdfrwt beam="1">  1       21 0.69417729E-01 0.45393594E+03</pdfrwt>
<pdfrwt beam="2">  1       21 0.16048739E-01 0.45393594E+03</pdfrwt>
<totfact> 0.60358535E+04</totfact>
</mgrwt>
</event>
<event>
 7    0  0.4766352E-002  0.4723551E+03  0.7546771E-02  0.1021258E+00
         21   -1    0    0  502  501  0.00000000000E+00  0.00000000000E+00  0.41237217977E+02  0.41237217977E+02  0.00000000000E+00 0.  1.
         21   -1    0    0  501  502 -0.00000000000E+00 -0.00000000000E+00 -0.13526576204E+04  0.13526576204E+04  0.00000000000E+00 0.  1.
      99926    2    1    2    0    0  0.00000000000E+00  0.00000000000E+00 -0.13114204024E+04  0.13938948384E+04  0.47235510854E+03 0.  0.
      99925    2    3    3    0    0 -0.95040908595E+02  0.87752129536E+01 -0.10680161723E+04  0.11040622902E+04  0.26303083009E+03 0.  0.
         25    1    3    3    0    0  0.95040908595E+02 -0.87752129536E+01 -0.24340423014E+03  0.28983254824E+03  0.12509000000E+03 0.  0.
         25    1    4    4    0    0 -0.90316039553E+02  0.81013123094E+01 -0.60678399008E+03  0.62614450168E+03  0.12509000000E+03 0.  0.
         25    1    4    4    0    0 -0.47248690417E+01  0.67390064418E+00 -0.46123218222E+03  0.47791778848E+03  0.12509000000E+03 0.  0.
<mgrwt>
<rscale>  2 0.47235511E+03</rscale>
<asrwt>0</asrwt>
<pdfrwt beam="1">  1       21 0.60642963E-02 0.47235511E+03</pdfrwt>
<pdfrwt beam="2">  1       21 0.19892025E+00 0.47235511E+03</pdfrwt>
<totfact> 0.23204149E+04</totfact>
</mgrwt>
</event>
<event>
 7    0  0.4766352E-002  0.4554958E+03  0.7546771E-02  0.1026096E+00
         21   -1    0    0  502  501  0.00000000000E+00  0.00000000000E+00  0.35710843507E+02  0.35710843507E+02  0.00000000000E+00 0. -1.
         21   -1    0    0  501  502 -0.00000000000E+00 -0.00000000000E+00 -0.14524750996E+04  0.14524750996E+04  0.00000000000E+00 0. -1.
      99926    2    1    2    0    0  0.00000000000E+00  0.00000000000E+00 -0.14167642561E+04  0.14881859431E+04  0.45549582206E+03 0.  0.
      99925    2    3    3    0    0 -0.79606534395E+02 -0.64661746044E+02 -0.10540426334E+04  0.10910300223E+04  0.26234003685E+03 0.  0.
         25    1    3    3    0    0  0.79606534395E+02  0.64661746044E+02 -0.36272162271E+03  0.39715592077E+03  0.12509000000E+03 0.  0.
         25    1    4    4    0    0 -0.65814137250E+02 -0.67351479976E+01 -0.59109745960E+03  0.60779978425E+03  0.12509000000E+03 0.  0.
         25    1    4    4    0    0 -0.13792397144E+02 -0.57926598047E+02 -0.46294517375E+03  0.48323023806E+03  0.12509000000E+03 0.  0.
<mgrwt>
<rscale>  2 0.45549582E+03</rscale>
<asrwt>0</asrwt>
<pdfrwt beam="1">  1       21 0.52515950E-02 0.45549582E+03</pdfrwt>
<pdfrwt beam="2">  1       21 0.21359927E+00 0.45549582E+03</pdfrwt>
<totfact> 0.23977681E+04</totfact>
</mgrwt>
</event>
<event>
 7    0  0.4766352E-002  0.4549470E+03  0.7546771E-02  0.1026257E+00
         21   -1    0    0  502  501  0.00000000000E+00  0.00000000000E+00  0.48116346271E+02  0.48116346271E+02  0.00000000000E+00 0. -1.
         21   -1    0    0  501  502 -0.00000000000E+00 -0.00000000000E+00 -0.10753973157E+04  0.10753973157E+04  0.00000000000E+00 0. -1.
      99926    2    1    2    0    0 -0.11102230246E-15  0.00000000000E+00 -0.10272809694E+04  0.11235136620E+04  0.45494698426E+03 0.  0.
      99925    2    3    3    0    0  0.70985051644E+00  0.32477949939E+02 -0.91395030893E+03  0.95162221998E+03  0.26310522849E+03 0.  0.
         25    1    3    3    0    0 -0.70985051644E+00 -0.32477949939E+02 -0.11333066051E+03  0.17189144200E+03  0.12509000000E+03 0.  0.
         25    1    4    4    0    0 -0.23814183496E+01  0.52845615695E+02 -0.40709402479E+03  0.42915193506E+03  0.12509000000E+03 0.  0.
         25    1    4    4    0    0  0.30912688660E+01 -0.20367665756E+02 -0.50685628414E+03  0.52247028492E+03  0.12509000000E+03 0.  0.
<mgrwt>
<rscale>  2 0.45494698E+03</rscale>
<asrwt>0</asrwt>
<pdfrwt beam="1">  1       21 0.70759333E-02 0.45494698E+03</pdfrwt>
<pdfrwt beam="2">  1       21 0.15814666E+00 0.45494698E+03</pdfrwt>
<totfact> 0.34693424E+04</totfact>
</mgrwt>
</event>
<event>
 7    0  0.4766352E-002  0.4454492E+03  0.7546771E-02  0.1029088E+00
         21   -1    0    0  502  501  0.00000000000E+00  0.00000000000E+00  0.58535511882E+02  0.58535511882E+02  0.00000000000E+00 0.  1.
         21   -1    0    0  501  502 -0.00000000000E+00 -0.00000000000E+00 -0.84745556403E+03  0.84745556403E+03  0.00000000000E+00 0.  1.
      99926    2    1    2    0    0  0.00000000000E+00  0.00000000000E+00 -0.78892005215E+03  0.90599107591E+03  0.44544919009E+03 0.  0.
      99925    2    3    3    0    0 -0.99899258084E+02  0.24358969236E+02 -0.46872561124E+03  0.54718024938E+03  0.26292452440E+03 0.  0.
         25    1    4    4    0    0 -0.90162135007E+02  0.27647691175E+02 -0.25137533605E+03  0.29619364121E+03  0.12509000000E+03 0.  0.
         25    1    4    4    0    0 -0.97371230778E+01 -0.32887219395E+01 -0.21735027519E+03  0.25098660817E+03  0.12509000000E+03 0.  0.
         25    1    3    3    0    0  0.99899258084E+02 -0.24358969236E+02 -0.32019444091E+03  0.35881082653E+03  0.12509000000E+03 0.  0.
<mgrwt>
<rscale>  2 0.44544919E+03</rscale>
<asrwt>0</asrwt>
<pdfrwt beam="1">  1       21 0.86081635E-02 0.44544919E+03</pdfrwt>
<pdfrwt beam="2">  1       21 0.12462582E+00 0.44544919E+03</pdfrwt>
<totfact> 0.46343382E+04</totfact>
</mgrwt>
</event>
<event>
 7    0  0.4766352E-002  0.4559964E+03  0.7546771E-02  0.1025949E+00
         21   -1    0    0  502  501  0.00000000000E+00  0.00000000000E+00  0.14081326828E+03  0.14081326828E+03  0.00000000000E+00 0.  1.
         21   -1    0    0  501  502 -0.00000000000E+00 -0.00000000000E+00 -0.36916396700E+03  0.36916396700E+03  0.00000000000E+00 0.  1.
      99926    2    1    2    0    0  0.71054273576E-14  0.00000000000E+00 -0.22835069873E+03  0.50997723528E+03  0.45599642421E+03 0.  0.
      99925    2    3    3    0    0  0.51471797904E+02 -0.88898314485E+02 -0.88281006490E+02  0.29592284247E+03  0.26310556112E+03 0.  0.
         25    1    4    4    0    0 -0.48896096343E+00 -0.13383209658E+02 -0.55048931341E+02  0.13732167464E+03  0.12509000000E+03 0.  0.
         25    1    3    3    0    0 -0.51471797904E+02  0.88898314485E+02 -0.14006969224E+03  0.21405439281E+03  0.12509000000E+03 0.  0.
         25    1    4    4    0    0  0.51960758867E+02 -0.75515104827E+02 -0.33232075149E+02  0.15860116783E+03  0.12509000000E+03 0.  0.
<mgrwt>
<rscale>  2 0.45599642E+03</rscale>
<asrwt>0</asrwt>
<pdfrwt beam="1">  1       21 0.20707834E-01 0.45599642E+03</pdfrwt>
<pdfrwt beam="2">  1       21 0.54288818E-01 0.45599642E+03</pdfrwt>
<totfact> 0.64067114E+04</totfact>
</mgrwt>
</event>
<event>
 7    0  0.4766352E-002  0.4558682E+03  0.7546771E-02  0.1025986E+00
         21   -1    0    0  502  501  0.00000000000E+00  0.00000000000E+00  0.31594820368E+03  0.31594820368E+03  0.00000000000E+00 0. -1.
         21   -1    0    0  501  502 -0.00000000000E+00 -0.00000000000E+00 -0.16443823456E+03  0.16443823456E+03  0.00000000000E+00 0. -1.
      99926    2    1    2    0    0  0.00000000000E+00  0.00000000000E+00  0.15150996911E+03  0.48038643824E+03  0.45586824775E+03 0.  0.
      99925    2    3    3    0    0  0.71944681214E+02 -0.14406480256E+02  0.18723647849E+03  0.33102956562E+03  0.26294389251E+03 0.  0.
         25    1    4    4    0    0  0.29027745366E+02  0.14697920719E+02  0.13212279985E+03  0.18483122359E+03  0.12509000000E+03 0.  0.
         25    1    3    3    0    0 -0.71944681214E+02  0.14406480256E+02 -0.35726509371E+02  0.14935687262E+03  0.12509000000E+03 0.  0.
         25    1    4    4    0    0  0.42916935848E+02 -0.29104400975E+02  0.55113678639E+02  0.14619834203E+03  0.12509000000E+03 0.  0.
<mgrwt>
<rscale>  2 0.45586825E+03</rscale>
<asrwt>0</asrwt>
<pdfrwt beam="1">  1       21 0.46462971E-01 0.45586825E+03</pdfrwt>
<pdfrwt beam="2">  1       21 0.24182093E-01 0.45586825E+03</pdfrwt>
<totfact> 0.66214474E+04</totfact>
</mgrwt>
</event>
<event>
 7    0  0.4766352E-002  0.4616957E+03  0.7546771E-02  0.1024291E+00
         21   -1    0    0  502  501  0.00000000000E+00  0.00000000000E+00  0.17219582253E+03  0.17219582253E+03  0.00000000000E+00 0.  1.
         21   -1    0    0  501  502 -0.00000000000E+00 -0.00000000000E+00 -0.30947747189E+03  0.30947747189E+03  0.00000000000E+00 0.  1.
      99926    2    1    2    0    0 -0.35527136788E-14  0.00000000000E+00 -0.13728164936E+03  0.48167329441E+03  0.46169569123E+03 0.  0.
      99925    2    3    3    0    0  0.25291395329E+02 -0.66593369620E+02 -0.18590851647E+03  0.32973116115E+03  0.26284278682E+03 0.  0.
         25    1    4    4    0    0 -0.10356042899E+02 -0.42656806507E+02 -0.13148892950E+03  0.18671823008E+03  0.12509000000E+03 0.  0.
         25    1    4    4    0    0  0.35647438227E+02 -0.23936563113E+02 -0.54419586977E+02  0.14301293107E+03  0.12509000000E+03 0.  0.
         25    1    3    3    0    0 -0.25291395329E+02  0.66593369620E+02  0.48626867110E+02  0.15194213326E+03  0.12509000000E+03 0.  0.
<mgrwt>
<rscale>  2 0.46169569E+03</rscale>
<asrwt>0</asrwt>
<pdfrwt beam="1">  1       21 0.25322915E-01 0.46169569E+03</pdfrwt>
<pdfrwt beam="2">  1       21 0.45511392E-01 0.46169569E+03</pdfrwt>
<totfact> 0.63154976E+04</totfact>
</mgrwt>
</event>
<event>
 7    0  0.4766352E-002  0.4530903E+03  0.7546771E-02  0.1026804E+00
         21   -1    0    0  502  501  0.00000000000E+00  0.00000000000E+00  0.25454504401E+03  0.25454504401E+03  0.00000000000E+00 0. -1.
         21   -1    0    0  501  502 -0.00000000000E+00 -0.00000000000E+00 -0.20162526202E+03  0.20162526202E+03  0.00000000000E+00 0. -1.
      99926    2    1    2    0    0  0.00000000000E+00  0.00000000000E+00  0.52919781991E+02  0.45617030602E+03  0.45309032739E+03 0.  0.
      99925    2    3    3    0    0 -0.41891223410E+02  0.49961527642E+02  0.12432401366E+03  0.29806558995E+03  0.26293650697E+03 0.  0.
         25    1    4    4    0    0 -0.15552285268E+02  0.11080629169E+02  0.10214668410E+03  0.16262259096E+03  0.12509000000E+03 0.  0.
         25    1    3    3    0    0  0.41891223410E+02 -0.49961527642E+02 -0.71404231670E+02  0.15810471607E+03  0.12509000000E+03 0.  0.
         25    1    4    4    0    0 -0.26338938142E+02  0.38880898473E+02  0.22177329563E+02  0.13544299899E+03  0.12509000000E+03 0.  0.
<mgrwt>
<rscale>  2 0.45309033E+03</rscale>
<asrwt>0</asrwt>
<pdfrwt beam="1">  1       21 0.37433095E-01 0.45309033E+03</pdfrwt>
<pdfrwt beam="2">  1       21 0.29650774E-01 0.45309033E+03</pdfrwt>
<totfact> 0.69513138E+04</totfact>
</mgrwt>
</event>
<event>
 7    0  0.4766352E-002  0.4535141E+03  0.7546771E-02  0.1026679E+00
         21   -1    0    0  502  501  0.00000000000E+00  0.00000000000E+00  0.32460538536E+04  0.32460538536E+04  0.00000000000E+00 0.  1.
         21   -1    0    0  501  502 -0.00000000000E+00 -0.00000000000E+00 -0.15840388047E+02  0.15840388047E+02  0.00000000000E+00 0.  1.
      99926    2    1    2    0    0  0.14210854715E-13  0.35527136788E-14  0.32302134655E+04  0.32618942416E+04  0.45351406886E+03 0.  0.
      99925    2    3    3    0    0  0.84812715392E+02  0.24434885527E+02  0.25286269531E+04  0.25437985636E+04  0.26299544432E+03 0.  0.
         25    1    4    4    0    0  0.64092674936E+02 -0.19423303751E+02  0.14248999038E+04  0.14319470590E+04  0.12509000000E+03 0.  0.
         25    1    3    3    0    0 -0.84812715392E+02 -0.24434885527E+02  0.70158651244E+03  0.71809567807E+03  0.12509000000E+03 0.  0.
         25    1    4    4    0    0  0.20720040456E+02  0.43858189277E+02  0.11037270493E+04  0.11118515046E+04  0.12509000000E+03 0.  0.
<mgrwt>
<rscale>  2 0.45351407E+03</rscale>
<asrwt>0</asrwt>
<pdfrwt beam="1">  1       21 0.47736040E+00 0.45351407E+03</pdfrwt>
<pdfrwt beam="2">  1       21 0.23294711E-02 0.45351407E+03</pdfrwt>
<totfact> 0.20578678E+03</totfact>
</mgrwt>
</event>
<event>
 7    0  0.4766352E-002  0.4570942E+03  0.7546771E-02  0.1025627E+00
         21   -1    0    0  502  501  0.00000000000E+00  0.00000000000E+00  0.20952143320E+03  0.20952143320E+03  0.00000000000E+00 0.  1.
         21   -1    0    0  501  502 -0.00000000000E+00 -0.00000000000E+00 -0.24930045101E+03  0.24930045101E+03  0.00000000000E+00 0.  1.
      99926    2    1    2    0    0  0.00000000000E+00  0.00000000000E+00 -0.39779017805E+02  0.45882188421E+03  0.45709424758E+03 0.  0.
      99925    2    3    3    0    0 -0.76059085268E+02  0.41334233842E+02 -0.10118844295E+03  0.29477271800E+03  0.26297975388E+03 0.  0.
         25    1    4    4    0    0 -0.68537218817E+01  0.44772577307E+02 -0.60133860984E+02  0.14599707709E+03  0.12509000000E+03 0.  0.
         25    1    3    3    0    0  0.76059085268E+02 -0.41334233842E+02  0.61409425141E+02  0.16404916621E+03  0.12509000000E+03 0.  0.
         25    1    4    4    0    0 -0.69205363387E+02 -0.34383434647E+01 -0.41054581962E+02  0.14877564091E+03  0.12509000000E+03 0.  0.
<mgrwt>
<rscale>  2 0.45709425E+03</rscale>
<asrwt>0</asrwt>
<pdfrwt beam="1">  1       21 0.30811976E-01 0.45709425E+03</pdfrwt>
<pdfrwt beam="2">  1       21 0.36661831E-01 0.45709425E+03</pdfrwt>
<totfact> 0.67137872E+04</totfact>
</mgrwt>
</event>
<event>
 7    0  0.4766352E-002  0.4548803E+03  0.7546771E-02  0.1026277E+00
         21   -1    0    0  502  501  0.00000000000E+00  0.00000000000E+00  0.74931125459E+02  0.74931125459E+02  0.00000000000E+00 0.  1.
         21   -1    0    0  501  502 -0.00000000000E+00 -0.00000000000E+00 -0.69035429213E+03  0.69035429213E+03  0.00000000000E+00 0.  1.
      99926    2    1    2    0    0  0.00000000000E+00  0.00000000000E+00 -0.61542316667E+03  0.76528541759E+03  0.45488030986E+03 0.  0.
      99925    2    3    3    0    0  0.78647985581E+02  0.75793111389E+02 -0.33463339213E+03  0.43906385645E+03  0.26242610681E+03 0.  0.
         25    1    4    4    0    0  0.39510790218E+01  0.49003265993E+02 -0.18327762951E+03  0.22727764668E+03  0.12509000000E+03 0.  0.
         25    1    3    3    0    0 -0.78647985581E+02 -0.75793111389E+02 -0.28078977454E+03  0.32622156114E+03  0.12509000000E+03 0.  0.
         25    1    4    4    0    0  0.74696906559E+02  0.26789845396E+02 -0.15135576262E+03  0.21178620976E+03  0.12509000000E+03 0.  0.
<mgrwt>
<rscale>  2 0.45488031E+03</rscale>
<asrwt>0</asrwt>
<pdfrwt beam="1">  1       21 0.11019283E-01 0.45488031E+03</pdfrwt>
<pdfrwt beam="2">  1       21 0.10152269E+00 0.45488031E+03</pdfrwt>
<totfact> 0.49536087E+04</totfact>
</mgrwt>
</event>
<event>
 7    0  0.4766352E-002  0.4622314E+03  0.7546771E-02  0.1024136E+00
         21   -1    0    0  502  501  0.00000000000E+00  0.00000000000E+00  0.11467135184E+03  0.11467135184E+03  0.00000000000E+00 0.  1.
         21   -1    0    0  501  502 -0.00000000000E+00 -0.00000000000E+00 -0.46580483101E+03  0.46580483101E+03  0.00000000000E+00 0.  1.
      99926    2    1    2    0    0  0.00000000000E+00  0.00000000000E+00 -0.35113347917E+03  0.58047618286E+03  0.46223141247E+03 0.  0.
      99925    2    3    3    0    0  0.74458128464E+02  0.85666113914E+02 -0.26813917475E+03  0.39227879012E+03  0.26287133007E+03 0.  0.
         25    1    3    3    0    0 -0.74458128464E+02 -0.85666113914E+02 -0.82994304416E+02  0.18819739274E+03  0.12509000000E+03 0.  0.
         25    1    4    4    0    0  0.45429250505E+02  0.60916833504E+01 -0.10247542643E+03  0.16807631163E+03  0.12509000000E+03 0.  0.
         25    1    4    4    0    0  0.29028877959E+02  0.79574430564E+02 -0.16566374832E+03  0.22420247849E+03  0.12509000000E+03 0.  0.
<mgrwt>
<rscale>  2 0.46223141E+03</rscale>
<asrwt>0</asrwt>
<pdfrwt beam="1">  1       21 0.16863434E-01 0.46223141E+03</pdfrwt>
<pdfrwt beam="2">  1       21 0.68500710E-01 0.46223141E+03</pdfrwt>
<totfact> 0.56591017E+04</totfact>
</mgrwt>
</event>
<event>
 7    0  0.4766352E-002  0.4419489E+03  0.7546771E-02  0.1030151E+00
         21   -1    0    0  502  501  0.00000000000E+00  0.00000000000E+00  0.11886150155E+03  0.11886150155E+03  0.00000000000E+00 0.  1.
         21   -1    0    0  501  502 -0.00000000000E+00 -0.00000000000E+00 -0.41081182928E+03  0.41081182928E+03  0.00000000000E+00 0.  1.
      99926    2    1    2    0    0  0.71054273576E-14  0.00000000000E+00 -0.29195032773E+03  0.52967333082E+03  0.44194891506E+03 0.  0.
      99925    2    3    3    0    0 -0.61454668502E+02 -0.75509953316E+02 -0.21539745141E+03  0.35364412784E+03  0.26303930838E+03 0.  0.
         25    1    4    4    0    0 -0.27520653787E+02 -0.58698858253E+02 -0.15562564445E+03  0.20992806305E+03  0.12509000000E+03 0.  0.
         25    1    4    4    0    0 -0.33934014715E+02 -0.16811095063E+02 -0.59771806966E+02  0.14371606479E+03  0.12509000000E+03 0.  0.
         25    1    3    3    0    0  0.61454668502E+02  0.75509953316E+02 -0.76552876316E+02  0.17602920298E+03  0.12509000000E+03 0.  0.
<mgrwt>
<rscale>  2 0.44194892E+03</rscale>
<asrwt>0</asrwt>
<pdfrwt beam="1">  1       21 0.17479633E-01 0.44194892E+03</pdfrwt>
<pdfrwt beam="2">  1       21 0.60413504E-01 0.44194892E+03</pdfrwt>
<totfact> 0.70206853E+04</totfact>
</mgrwt>
</event>
<event>
 7    0  0.4766352E-002  0.4361135E+03  0.7546771E-02  0.1031946E+00
         21   -1    0    0  502  501  0.00000000000E+00  0.00000000000E+00  0.33654069889E+03  0.33654069889E+03  0.00000000000E+00 0. -1.
         21   -1    0    0  501  502 -0.00000000000E+00 -0.00000000000E+00 -0.14128674157E+03  0.14128674157E+03  0.00000000000E+00 0. -1.
      99926    2    1    2    0    0 -0.88817841970E-15  0.00000000000E+00  0.19525395732E+03  0.47782744046E+03  0.43611346575E+03 0.  0.
      99925    2    3    3    0    0  0.45547187395E+01 -0.88200104810E+02  0.88900507469E+02  0.29139094096E+03  0.26306914736E+03 0.  0.
         25    1    4    4    0    0 -0.22353482755E+02 -0.55541290852E+02  0.77451548517E+02  0.15884194549E+03  0.12509000000E+03 0.  0.
         25    1    3    3    0    0 -0.45547187395E+01  0.88200104810E+02  0.10635344985E+03  0.18643649950E+03  0.12509000000E+03 0.  0.
         25    1    4    4    0    0  0.26908201495E+02 -0.32658813959E+02  0.11448958952E+02  0.13254899546E+03  0.12509000000E+03 0.  0.
<mgrwt>
<rscale>  2 0.43611347E+03</rscale>
<asrwt>0</asrwt>
<pdfrwt beam="1">  1       21 0.49491279E-01 0.43611347E+03</pdfrwt>
<pdfrwt beam="2">  1       21 0.20777462E-01 0.43611347E+03</pdfrwt>
<totfact> 0.77899010E+04</totfact>
</mgrwt>
</event>
<event>
 7    0  0.4766352E-002  0.4416636E+03  0.7546771E-02  0.1030238E+00
         21   -1    0    0  502  501  0.00000000000E+00  0.00000000000E+00  0.20874826666E+03  0.20874826666E+03  0.00000000000E+00 0.  1.
         21   -1    0    0  501  502 -0.00000000000E+00 -0.00000000000E+00 -0.23361482124E+03  0.23361482124E+03  0.00000000000E+00 0.  1.
      99926    2    1    2    0    0  0.00000000000E+00 -0.17763568394E-14 -0.24866554574E+02  0.44236308790E+03  0.44166362313E+03 0.  0.
      99925    2    3    3    0    0 -0.78484742296E+02 -0.45683836498E+01 -0.78016691069E+02  0.28534980817E+03  0.26297753522E+03 0.  0.
         25    1    4    4    0    0 -0.74942958200E+02 -0.22210374128E+02 -0.51377654702E+02  0.15619513182E+03  0.12509000000E+03 0.  0.
         25    1    4    4    0    0 -0.35417840957E+01  0.17641990479E+02 -0.26639036367E+02  0.12915467634E+03  0.12509000000E+03 0.  0.
         25    1    3    3    0    0  0.78484742296E+02  0.45683836498E+01  0.53150136495E+02  0.15701327973E+03  0.12509000000E+03 0.  0.
<mgrwt>
<rscale>  2 0.44166362E+03</rscale>
<asrwt>0</asrwt>
<pdfrwt beam="1">  1       21 0.30698275E-01 0.44166362E+03</pdfrwt>
<pdfrwt beam="2">  1       21 0.34355121E-01 0.44166362E+03</pdfrwt>
<totfact> 0.77395116E+04</totfact>
</mgrwt>
</event>
<event>
 7    0  0.4766352E-002  0.4479962E+03  0.7546771E-02  0.1028321E+00
         21   -1    0    0  502  501  0.00000000000E+00  0.00000000000E+00  0.57299093830E+03  0.57299093830E+03  0.00000000000E+00 0. -1.
         21   -1    0    0  501  502 -0.00000000000E+00 -0.00000000000E+00 -0.87567108579E+02  0.87567108579E+02  0.00000000000E+00 0. -1.
      99926    2    1    2    0    0  0.00000000000E+00  0.61062266354E-15  0.48542382972E+03  0.66055804688E+03  0.44799624868E+03 0.  0.
      99925    2    3    3    0    0 -0.10621738096E+03  0.44206578128E+00  0.29369655315E+03  0.40819088554E+03  0.26283037546E+03 0.  0.
         25    1    4    4    0    0 -0.40478876781E+02  0.28903180476E+02  0.10493703792E+03  0.17068457263E+03  0.12509000000E+03 0.  0.
         25    1    4    4    0    0 -0.65738504179E+02 -0.28461114695E+02  0.18875951523E+03  0.23750631291E+03  0.12509000000E+03 0.  0.
         25    1    3    3    0    0  0.10621738096E+03 -0.44206578128E+00  0.19172727657E+03  0.25236716134E+03  0.12509000000E+03 0.  0.
<mgrwt>
<rscale>  2 0.44799625E+03</rscale>
<asrwt>0</asrwt>
<pdfrwt beam="1">  1       21 0.84263372E-01 0.44799625E+03</pdfrwt>
<pdfrwt beam="2">  1       21 0.12877516E-01 0.44799625E+03</pdfrwt>
<totfact> 0.58247235E+04</totfact>
</mgrwt>
</event>
<event>
 7    0  0.4766352E-002  0.4343437E+03  0.7546771E-02  0.1032497E+00
         21   -1    0    0  502  501  0.00000000000E+00  0.00000000000E+00  0.14357494336E+03  0.14357494336E+03  0.00000000000E+00 0. -1.
         21   -1    0    0  501  502 -0.00000000000E+00 -0.00000000000E+00 -0.32849478599E+03  0.32849478599E+03  0.00000000000E+00 0. -1.
      99926    2    1    2    0    0  0.00000000000E+00 -0.71054273576E-14 -0.18491984262E+03  0.47206972935E+03  0.43434373620E+03 0.  0.
      99925    2    3    3    0    0  0.61892619518E+02 -0.40522250235E+02 -0.57622686587E+02  0.27887339618E+03  0.26263519942E+03 0.  0.
         25    1    4    4    0    0  0.39947171612E+00 -0.43206585080E+02 -0.15566790858E+02  0.13325464964E+03  0.12509000000E+03 0.  0.
         25    1    3    3    0    0 -0.61892619518E+02  0.40522250235E+02 -0.12729715604E+03  0.19319633317E+03  0.12509000000E+03 0.  0.
         25    1    4    4    0    0  0.61493147802E+02  0.26843348451E+01 -0.42055895729E+02  0.14561874655E+03  0.12509000000E+03 0.  0.
<mgrwt>
<rscale>  2 0.43434374E+03</rscale>
<asrwt>0</asrwt>
<pdfrwt beam="1">  1       21 0.21113962E-01 0.43434374E+03</pdfrwt>
<pdfrwt beam="2">  1       21 0.48308057E-01 0.43434374E+03</pdfrwt>
<totfact> 0.79546588E+04</totfact>
</mgrwt>
</event>
<event>
 7    0  0.4766352E-002  0.4531998E+03  0.7546771E-02  0.1026772E+00
         21   -1    0    0  502  501  0.00000000000E+00  0.00000000000E+00  0.96741896033E+02  0.96741896033E+02  0.00000000000E+00 0.  1.
         21   -1    0    0  501  502 -0.00000000000E+00 -0.00000000000E+00 -0.53076807701E+03  0.53076807701E+03  0.00000000000E+00 0.  1.
      99926    2    1    2    0    0  0.00000000000E+00  0.14210854715E-13 -0.43402618098E+03  0.62750997304E+03  0.45319977989E+03 0.  0.
      99925    2    3    3    0    0  0.92789474222E+01  0.99030768386E+02 -0.20324789850E+03  0.34679781492E+03  0.26280377516E+03 0.  0.
         25    1    4    4    0    0  0.24825914885E+02  0.75185590603E+02 -0.14003873046E+03  0.20378310335E+03  0.12509000000E+03 0.  0.
         25    1    4    4    0    0 -0.15546967463E+02  0.23845177782E+02 -0.63209168039E+02  0.14301471157E+03  0.12509000000E+03 0.  0.
         25    1    3    3    0    0 -0.92789474222E+01 -0.99030768386E+02 -0.23077828248E+03  0.28071215812E+03  0.12509000000E+03 0.  0.
<mgrwt>
<rscale>  2 0.45319978E+03</rscale>
<asrwt>0</asrwt>
<pdfrwt beam="1">  1       21 0.14226749E-01 0.45319978E+03</pdfrwt>
<pdfrwt beam="2">  1       21 0.78054130E-01 0.45319978E+03</pdfrwt>
<totfact> 0.57833677E+04</totfact>
</mgrwt>
</event>
<event>
 7    0  0.4766352E-002  0.4056005E+03  0.7546771E-02  0.1041857E+00
         21   -1    0    0  502  501  0.00000000000E+00  0.00000000000E+00  0.10566678261E+04  0.10566678261E+04  0.00000000000E+00 0.  1.
         21   -1    0    0  501  502 -0.00000000000E+00 -0.00000000000E+00 -0.38922302727E+02  0.38922302727E+02  0.00000000000E+00 0.  1.
      99926    2    1    2    0    0  0.00000000000E+00  0.00000000000E+00  0.10177455234E+04  0.10955901289E+04  0.40560051780E+03 0.  0.
      99925    2    3    3    0    0 -0.32567325931E+02  0.39209991203E+02  0.73343455979E+03  0.78082309396E+03  0.26298364290E+03 0.  0.
         25    1    3    3    0    0  0.32567325931E+02 -0.39209991203E+02  0.28431096360E+03  0.31476703489E+03  0.12509000000E+03 0.  0.
         25    1    4    4    0    0  0.23503340174E+02  0.23969633232E+02  0.33299312536E+03  0.35729382860E+03  0.12509000000E+03 0.  0.
         25    1    4    4    0    0 -0.56070666105E+02  0.15240357971E+02  0.40044143443E+03  0.42352926536E+03  0.12509000000E+03 0.  0.
<mgrwt>
<rscale>  2 0.40560052E+03</rscale>
<asrwt>0</asrwt>
<pdfrwt beam="1">  1       21 0.15539231E+00 0.40560052E+03</pdfrwt>
<pdfrwt beam="2">  1       21 0.57238687E-02 0.40560052E+03</pdfrwt>
<totfact> 0.53465038E+04</totfact>
</mgrwt>
</event>
<event>
 7    0  0.4766352E-002  0.4570973E+03  0.7546771E-02  0.1025626E+00
         21   -1    0    0  502  501  0.00000000000E+00  0.00000000000E+00  0.11583243923E+03  0.11583243923E+03  0.00000000000E+00 0. -1.
         21   -1    0    0  501  502 -0.00000000000E+00 -0.00000000000E+00 -0.45094859497E+03  0.45094859497E+03  0.00000000000E+00 0. -1.
      99926    2    1    2    0    0  0.00000000000E+00  0.00000000000E+00 -0.33511615574E+03  0.56678103419E+03  0.45709725758E+03 0.  0.
      99925    2    3    3    0    0  0.47798760011E+02 -0.10050901292E+03 -0.17385805595E+03  0.33431928253E+03  0.26297523823E+03 0.  0.
         25    1    4    4    0    0  0.23882525123E+02 -0.34758151963E+02 -0.12789675152E+03  0.18380313187E+03  0.12509000000E+03 0.  0.
         25    1    3    3    0    0 -0.47798760011E+02  0.10050901292E+03 -0.16125809979E+03  0.23246175166E+03  0.12509000000E+03 0.  0.
         25    1    4    4    0    0  0.23916234887E+02 -0.65750860955E+02 -0.45961304427E+02  0.15051615067E+03  0.12509000000E+03 0.  0.
<mgrwt>
<rscale>  2 0.45709726E+03</rscale>
<asrwt>0</asrwt>
<pdfrwt beam="1">  1       21 0.17034182E-01 0.45709726E+03</pdfrwt>
<pdfrwt beam="2">  1       21 0.66315970E-01 0.45709726E+03</pdfrwt>
<totfact> 0.59773436E+04</totfact>
</mgrwt>
</event>
<event>
 7    0  0.4766352E-002  0.5062698E+03  0.7546771E-02  0.1012155E+00
         21   -1    0    0  502  501  0.00000000000E+00  0.00000000000E+00  0.35274851138E+03  0.35274851138E+03  0.00000000000E+00 0. -1.
         21   -1    0    0  501  502 -0.00000000000E+00 -0.00000000000E+00 -0.18165144616E+03  0.18165144616E+03  0.00000000000E+00 0. -1.
      99926    2    1    2    0    0  0.35527136788E-14  0.00000000000E+00  0.17109706522E+03  0.53439995755E+03  0.50626979853E+03 0.  0.
      99925    2    3    3    0    0 -0.20595384568E+02 -0.11581366082E+03  0.21227784037E+03  0.35782040539E+03  0.26293837130E+03 0.  0.
         25    1    3    3    0    0  0.20595384568E+02  0.11581366082E+03 -0.41180775154E+02  0.17657955216E+03  0.12509000000E+03 0.  0.
         25    1    4    4    0    0  0.25899333342E+02 -0.36852595483E+02  0.95132483587E+02  0.16348268041E+03  0.12509000000E+03 0.  0.
         25    1    4    4    0    0 -0.46494717909E+02 -0.78961065339E+02  0.11714535679E+03  0.19433772498E+03  0.12509000000E+03 0.  0.
<mgrwt>
<rscale>  2 0.50626980E+03</rscale>
<asrwt>0</asrwt>
<pdfrwt beam="1">  1       21 0.51874781E-01 0.50626980E+03</pdfrwt>
<pdfrwt beam="2">  1       21 0.26713448E-01 0.50626980E+03</pdfrwt>
<totfact> 0.42709352E+04</totfact>
</mgrwt>
</event>
<event>
 7    0  0.4766352E-002  0.4638903E+03  0.7546771E-02  0.1023659E+00
         21   -1    0    0  502  501  0.00000000000E+00  0.00000000000E+00  0.14226002158E+04  0.14226002158E+04  0.00000000000E+00 0. -1.
         21   -1    0    0  501  502 -0.00000000000E+00 -0.00000000000E+00 -0.37817051666E+02  0.37817051666E+02  0.00000000000E+00 0. -1.
      99926    2    1    2    0    0  0.00000000000E+00  0.14210854715E-13  0.13847831641E+04  0.14604172674E+04  0.46389027090E+03 0.  0.
      99925    2    3    3    0    0  0.86257751970E+02  0.74764599563E+02  0.99382167623E+03  0.10343556073E+04  0.26302063250E+03 0.  0.
         25    1    4    4    0    0  0.63214283673E+02  0.31527045679E+02  0.63909034003E+03  0.65503738145E+03  0.12509000000E+03 0.  0.
         25    1    4    4    0    0  0.23043468296E+02  0.43237553884E+02  0.35473133620E+03  0.37931822587E+03  0.12509000000E+03 0.  0.
         25    1    3    3    0    0 -0.86257751970E+02 -0.74764599563E+02  0.39096148787E+03  0.42606166012E+03  0.12509000000E+03 0.  0.
<mgrwt>
<rscale>  2 0.46389027E+03</rscale>
<asrwt>0</asrwt>
<pdfrwt beam="1">  1       21 0.20920588E+00 0.46389027E+03</pdfrwt>
<pdfrwt beam="2">  1       21 0.55613321E-02 0.46389027E+03</pdfrwt>
<totfact> 0.23126359E+04</totfact>
</mgrwt>
</event>
<event>
 6    0  0.4766352E-002  0.4618107E+03  0.7546771E-02  0.1024257E+00
         21   -1    0    0  502  501  0.00000000000E+00  0.00000000000E+00  0.10630213138E+03  0.10630213138E+03  0.00000000000E+00 0. -1.
         21   -1    0    0  501  502 -0.00000000000E+00 -0.00000000000E+00 -0.50156353217E+03  0.50156353217E+03  0.00000000000E+00 0. -1.
      99926    2    1    2    0    0  0.00000000000E+00  0.00000000000E+00 -0.39526140079E+03  0.60786566355E+03  0.46181066463E+03 0.  0.
         25    1    3    3    0    0 -0.10667540886E+02 -0.81043551374E+02 -0.17730985089E+03  0.23187959153E+03  0.12509000000E+03 0.  0.
         25    1    3    3    0    0  0.35196404546E+02 -0.33576262159E+02 -0.82905087396E+02  0.15775586800E+03  0.12509000000E+03 0.  0.
         25    1    3    3    0    0 -0.24528863660E+02  0.11461981353E+03 -0.13504646250E+03  0.21823020401E+03  0.12509000000E+03 0.  0.
<mgrwt>
<rscale>  2 0.46181066E+03</rscale>
<asrwt>0</asrwt>
<pdfrwt beam="1">  1       21 0.15632666E-01 0.46181066E+03</pdfrwt>
<pdfrwt beam="2">  1       21 0.73759343E-01 0.46181066E+03</pdfrwt>
<totfact> 0.55168080E+04</totfact>
</mgrwt>
</event>
<event>
 7    0  0.4766352E-002  0.4817864E+03  0.7546771E-02  0.1018645E+00
         21   -1    0    0  502  501  0.00000000000E+00  0.00000000000E+00  0.54520869655E+02  0.54520869655E+02  0.00000000000E+00 0. -1.
         21   -1    0    0  501  502 -0.00000000000E+00 -0.00000000000E+00 -0.10643543063E+04  0.10643543063E+04  0.00000000000E+00 0. -1.
      99926    2    1    2    0    0  0.00000000000E+00  0.00000000000E+00 -0.10098334366E+04  0.11188751759E+04  0.48178635264E+03 0.  0.
      99925    2    3    3    0    0  0.30940909641E+02  0.39439010527E+02 -0.91684572839E+03  0.95514675010E+03  0.26303317113E+03 0.  0.
         25    1    4    4    0    0  0.11763899364E+02 -0.19531311654E+02 -0.39597785901E+03  0.41589161375E+03  0.12509000000E+03 0.  0.
         25    1    4    4    0    0  0.19177010277E+02  0.58970322182E+02 -0.52086786939E+03  0.53925513635E+03  0.12509000000E+03 0.  0.
         25    1    3    3    0    0 -0.30940909641E+02 -0.39439010527E+02 -0.92987708207E+02  0.16372842581E+03  0.12509000000E+03 0.  0.
<mgrwt>
<rscale>  2 0.48178635E+03</rscale>
<asrwt>0</asrwt>
<pdfrwt beam="1">  1       21 0.80177748E-02 0.48178635E+03</pdfrwt>
<pdfrwt beam="2">  1       21 0.15652270E+00 0.48178635E+03</pdfrwt>
<totfact> 0.28422548E+04</totfact>
</mgrwt>
</event>
<event>
 7    0  0.4766352E-002  0.4495727E+03  0.7546771E-02  0.1027850E+00
         21   -1    0    0  502  501  0.00000000000E+00  0.00000000000E+00  0.40411116213E+03  0.40411116213E+03  0.00000000000E+00 0. -1.
         21   -1    0    0  501  502 -0.00000000000E+00 -0.00000000000E+00 -0.12503711514E+03  0.12503711514E+03  0.00000000000E+00 0. -1.
      99926    2    1    2    0    0 -0.14210854715E-13 -0.17763568394E-14  0.27907404700E+03  0.52914827727E+03  0.44957265890E+03 0.  0.
      99925    2    3    3    0    0  0.74178192750E+02  0.10787587210E+01  0.26908804363E+03  0.38337174842E+03  0.26279641219E+03 0.  0.
         25    1    4    4    0    0  0.62315108671E+02 -0.31062378172E+02  0.14863194331E+03  0.20636619583E+03  0.12509000000E+03 0.  0.
         25    1    4    4    0    0  0.11863084078E+02  0.32141136893E+02  0.12045610032E+03  0.17700555259E+03  0.12509000000E+03 0.  0.
         25    1    3    3    0    0 -0.74178192750E+02 -0.10787587210E+01  0.99860033642E+01  0.14577652885E+03  0.12509000000E+03 0.  0.
<mgrwt>
<rscale>  2 0.44957266E+03</rscale>
<asrwt>0</asrwt>
<pdfrwt beam="1">  1       21 0.59428112E-01 0.44957266E+03</pdfrwt>
<pdfrwt beam="2">  1       21 0.18387811E-01 0.44957266E+03</pdfrwt>
<totfact> 0.66058448E+04</totfact>
</mgrwt>
</event>
<event>
 7    0  0.4766352E-002  0.4563750E+03  0.7546771E-02  0.1025838E+00
         21   -1    0    0  502  501  0.00000000000E+00  0.00000000000E+00  0.12820510942E+03  0.12820510942E+03  0.00000000000E+00 0. -1.
         21   -1    0    0  501  502 -0.00000000000E+00 -0.00000000000E+00 -0.40614244225E+03  0.40614244225E+03  0.00000000000E+00 0. -1.
      99926    2    1    2    0    0  0.00000000000E+00  0.00000000000E+00 -0.27793733282E+03  0.53434755167E+03  0.45637500479E+03 0.  0.
      99925    2    3    3    0    0  0.10303580969E+03 -0.33933641129E+02 -0.21737905241E+03  0.35804473403E+03  0.26301047330E+03 0.  0.
         25    1    4    4    0    0  0.65353969047E+02 -0.16915402150E+02 -0.64102898883E+02  0.15592934889E+03  0.12509000000E+03 0.  0.
         25    1    3    3    0    0 -0.10303580969E+03  0.33933641129E+02 -0.60558280416E+02  0.17630281764E+03  0.12509000000E+03 0.  0.
         25    1    4    4    0    0  0.37681840647E+02 -0.17018238979E+02 -0.15327615352E+03  0.20211538514E+03  0.12509000000E+03 0.  0.
<mgrwt>
<rscale>  2 0.45637500E+03</rscale>
<asrwt>0</asrwt>
<pdfrwt beam="1">  1       21 0.18853693E-01 0.45637500E+03</pdfrwt>
<pdfrwt beam="2">  1       21 0.59726829E-01 0.45637500E+03</pdfrwt>
<totfact> 0.62232192E+04</totfact>
</mgrwt>
</event>
<event>
 7    0  0.4766352E-002  0.4581353E+03  0.7546771E-02  0.1025323E+00
         21   -1    0    0  502  501  0.00000000000E+00  0.00000000000E+00  0.20830877787E+03  0.20830877787E+03  0.00000000000E+00 0. -1.
         21   -1    0    0  501  502 -0.00000000000E+00 -0.00000000000E+00 -0.25189519432E+03  0.25189519432E+03  0.00000000000E+00 0. -1.
      99926    2    1    2    0    0  0.00000000000E+00  0.00000000000E+00 -0.43586416457E+02  0.46020397219E+03  0.45813526422E+03 0.  0.
      99925    2    3    3    0    0  0.30779952298E+02 -0.29941190829E+02  0.80104505166E+02  0.27912158055E+03  0.26390953868E+03 0.  0.
         25    1    3    3    0    0 -0.30779952298E+02  0.29941190829E+02 -0.12369092162E+03  0.18108239164E+03  0.12509000000E+03 0.  0.
         25    1    4    4    0    0  0.49338011824E+02 -0.37618251083E+02  0.29600526217E+02  0.14273426876E+03  0.12509000000E+03 0.  0.
         25    1    4    4    0    0 -0.18558059526E+02  0.76770602536E+01  0.50503978949E+02  0.13638731179E+03  0.12509000000E+03 0.  0.
<mgrwt>
<rscale>  2 0.45813526E+03</rscale>
<asrwt>0</asrwt>
<pdfrwt beam="1">  1       21 0.30633644E-01 0.45813526E+03</pdfrwt>
<pdfrwt beam="2">  1       21 0.37043411E-01 0.45813526E+03</pdfrwt>
<totfact> 0.66487414E+04</totfact>
</mgrwt>
</event>
<event>
 7    0  0.4766352E-002  0.4317221E+03  0.7546771E-02  0.1033317E+00
         21   -1    0    0  502  501  0.00000000000E+00  0.00000000000E+00  0.52520267880E+02  0.52520267880E+02  0.00000000000E+00 0. -1.
         21   -1    0    0  501  502 -0.00000000000E+00 -0.00000000000E+00 -0.88720007795E+03  0.88720007795E+03  0.00000000000E+00 0. -1.
      99926    2    1    2    0    0  0.00000000000E+00  0.00000000000E+00 -0.83467981007E+03  0.93972034583E+03  0.43172206688E+03 0.  0.
      99925    2    3    3    0    0 -0.27534698043E+02 -0.82967139279E+02 -0.48882743197E+03  0.56169510681E+03  0.26250224566E+03 0.  0.
         25    1    4    4    0    0 -0.32979904846E+01 -0.56221106632E+02 -0.17820444380E+03  0.22489113247E+03  0.12509000000E+03 0.  0.
         25    1    4    4    0    0 -0.24236707558E+02 -0.26746032647E+02 -0.31062298817E+03  0.33680397434E+03  0.12509000000E+03 0.  0.
         25    1    3    3    0    0  0.27534698043E+02  0.82967139279E+02 -0.34585237810E+03  0.37802523901E+03  0.12509000000E+03 0.  0.
<mgrwt>
<rscale>  2 0.43172207E+03</rscale>
<asrwt>0</asrwt>
<pdfrwt beam="1">  1       21 0.77235693E-02 0.43172207E+03</pdfrwt>
<pdfrwt beam="2">  1       21 0.13047059E+00 0.43172207E+03</pdfrwt>
<totfact> 0.50072673E+04</totfact>
</mgrwt>
</event>
<event>
 7    0  0.4766352E-002  0.4540555E+03  0.7546771E-02  0.1026520E+00
         21   -1    0    0  502  501  0.00000000000E+00  0.00000000000E+00  0.10656911909E+04  0.10656911909E+04  0.00000000000E+00 0. -1.
         21   -1    0    0  501  502 -0.00000000000E+00 -0.00000000000E+00 -0.48364484213E+02  0.48364484213E+02  0.00000000000E+00 0. -1.
      99926    2    1    2    0    0  0.00000000000E+00  0.00000000000E+00  0.10173267067E+04  0.11140556751E+04  0.45405552426E+03 0.  0.
      99925    2    3    3    0    0  0.10183320711E+03 -0.11358219736E+02  0.75335749081E+03  0.80449749599E+03  0.26300133246E+03 0.  0.
         25    1    4    4    0    0  0.64882539992E+02 -0.41838864832E+02  0.43272705291E+03  0.45701252174E+03  0.12509000000E+03 0.  0.
         25    1    4    4    0    0  0.36950667121E+02  0.30480645095E+02  0.32063043789E+03  0.34748497425E+03  0.12509000000E+03 0.  0.
         25    1    3    3    0    0 -0.10183320711E+03  0.11358219736E+02  0.26396921587E+03  0.30955817911E+03  0.12509000000E+03 0.  0.
<mgrwt>
<rscale>  2 0.45405552E+03</rscale>
<asrwt>0</asrwt>
<pdfrwt beam="1">  1       21 0.15671928E+00 0.45405552E+03</pdfrwt>
<pdfrwt beam="2">  1       21 0.71124248E-02 0.45405552E+03</pdfrwt>
<totfact> 0.35264299E+04</totfact>
</mgrwt>
</event>
<event>
 7    0  0.4766352E-002  0.4006873E+03  0.7546771E-02  0.1043542E+00
         21   -1    0    0  502  501  0.00000000000E+00  0.00000000000E+00  0.13857517596E+03  0.13857517596E+03  0.00000000000E+00 0.  1.
         21   -1    0    0  501  502 -0.00000000000E+00 -0.00000000000E+00 -0.28964476762E+03  0.28964476762E+03  0.00000000000E+00 0.  1.
      99926    2    1    2    0    0 -0.88817841970E-15  0.35527136788E-14 -0.15106959166E+03  0.42821994358E+03  0.40068728275E+03 0.  0.
      99925    2    3    3    0    0  0.36380523920E+01 -0.28706312485E+02 -0.61696018684E+02  0.27178327445E+03  0.26310161867E+03 0.  0.
         25    1    4    4    0    0 -0.28077308483E+02  0.12549941270E+02 -0.37449418195E+02  0.13414843756E+03  0.12509000000E+03 0.  0.
         25    1    4    4    0    0  0.31715360875E+02 -0.41256253755E+02 -0.24246600490E+02  0.13763483689E+03  0.12509000000E+03 0.  0.
         25    1    3    3    0    0 -0.36380523920E+01  0.28706312485E+02 -0.89373572978E+02  0.15643666913E+03  0.12509000000E+03 0.  0.
<mgrwt>
<rscale>  2 0.40068728E+03</rscale>
<asrwt>0</asrwt>
<pdfrwt beam="1">  1       21 0.20378703E-01 0.40068728E+03</pdfrwt>
<pdfrwt beam="2">  1       21 0.42594818E-01 0.40068728E+03</pdfrwt>
<totfact> 0.11152736E+05</totfact>
</mgrwt>
</event>
<event>
 7    0  0.4766352E-002  0.4523946E+03  0.7546771E-02  0.1027010E+00
         21   -1    0    0  502  501  0.00000000000E+00  0.00000000000E+00  0.11330615504E+04  0.11330615504E+04  0.00000000000E+00 0. -1.
         21   -1    0    0  501  502 -0.00000000000E+00 -0.00000000000E+00 -0.45156602092E+02  0.45156602092E+02  0.00000000000E+00 0. -1.
      99926    2    1    2    0    0 -0.14210854715E-13  0.14210854715E-13  0.10879049483E+04  0.11782181525E+04  0.45239456044E+03 0.  0.
      99925    2    3    3    0    0  0.85719696094E+02 -0.64589305743E+02  0.61650787995E+03  0.67883618559E+03  0.26309115551E+03 0.  0.
         25    1    4    4    0    0  0.12825400712E+02 -0.29862507094E+01  0.30269793120E+03  0.32779102222E+03  0.12509000000E+03 0.  0.
         25    1    3    3    0    0 -0.85719696094E+02  0.64589305743E+02  0.47139706840E+03  0.49938196694E+03  0.12509000000E+03 0.  0.
         25    1    4    4    0    0  0.72894295382E+02 -0.61603055033E+02  0.31380994875E+03  0.35104516337E+03  0.12509000000E+03 0.  0.
<mgrwt>
<rscale>  2 0.45239456E+03</rscale>
<asrwt>0</asrwt>
<pdfrwt beam="1">  1       21 0.16662668E+00 0.45239456E+03</pdfrwt>
<pdfrwt beam="2">  1       21 0.66406775E-02 0.45239456E+03</pdfrwt>
<totfact> 0.33529573E+04</totfact>
</mgrwt>
</event>
<event>
 7    0  0.4766352E-002  0.4608675E+03  0.7546771E-02  0.1024530E+00
         21   -1    0    0  502  501  0.00000000000E+00  0.00000000000E+00  0.55677086257E+03  0.55677086257E+03  0.00000000000E+00 0. -1.
         21   -1    0    0  501  502 -0.00000000000E+00 -0.00000000000E+00 -0.95370842582E+02  0.95370842582E+02  0.00000000000E+00 0. -1.
      99926    2    1    2    0    0  0.00000000000E+00  0.00000000000E+00  0.46140001998E+03  0.65214170515E+03  0.46086747027E+03 0.  0.
      99925    2    3    3    0    0  0.20087378255E+02  0.78021709479E+02  0.16578917516E+03  0.32119734488E+03  0.26304142990E+03 0.  0.
         25    1    4    4    0    0 -0.17483827436E+02  0.64622876089E+02  0.67088367908E+02  0.15693998071E+03  0.12509000000E+03 0.  0.
         25    1    3    3    0    0 -0.20087378255E+02 -0.78021709479E+02  0.29561084482E+03  0.33094436027E+03  0.12509000000E+03 0.  0.
         25    1    4    4    0    0  0.37571205691E+02  0.13398833390E+02  0.98700807253E+02  0.16425736418E+03  0.12509000000E+03 0.  0.
<mgrwt>
<rscale>  2 0.46086747E+03</rscale>
<asrwt>0</asrwt>
<pdfrwt beam="1">  1       21 0.81878067E-01 0.46086747E+03</pdfrwt>
<pdfrwt beam="2">  1       21 0.14025124E-01 0.46086747E+03</pdfrwt>
<totfact> 0.53078421E+04</totfact>
</mgrwt>
</event>
<event>
 7    0  0.4766352E-002  0.4553240E+03  0.7546771E-02  0.1026146E+00
         21   -1    0    0  502  501  0.00000000000E+00  0.00000000000E+00  0.16562239728E+03  0.16562239728E+03  0.00000000000E+00 0. -1.
         21   -1    0    0  501  502 -0.00000000000E+00 -0.00000000000E+00 -0.31294071926E+03  0.31294071926E+03  0.00000000000E+00 0. -1.
      99926    2    1    2    0    0  0.00000000000E+00  0.00000000000E+00 -0.14731832198E+03  0.47856311655E+03  0.45532402586E+03 0.  0.
      99925    2    3    3    0    0  0.10248146704E+03 -0.44273454513E+02 -0.11450660710E+03  0.30772194295E+03  0.26290386312E+03 0.  0.
         25    1    4    4    0    0  0.31676792458E+02 -0.23624782616E+02 -0.15787911894E+02  0.13212992014E+03  0.12509000000E+03 0.  0.
         25    1    4    4    0    0  0.70804674580E+02 -0.20648671898E+02 -0.98718695204E+02  0.17559202282E+03  0.12509000000E+03 0.  0.
         25    1    3    3    0    0 -0.10248146704E+03  0.44273454513E+02 -0.32811714884E+02  0.17084117359E+03  0.12509000000E+03 0.  0.
<mgrwt>
<rscale>  2 0.45532403E+03</rscale>
<asrwt>0</asrwt>
<pdfrwt beam="1">  1       21 0.24356235E-01 0.45532403E+03</pdfrwt>
<pdfrwt beam="2">  1       21 0.46020694E-01 0.45532403E+03</pdfrwt>
<totfact> 0.66633306E+04</totfact>
</mgrwt>
</event>
<event>
 7    0  0.4766352E-002  0.4767589E+03  0.7546771E-02  0.1020030E+00
         21   -1    0    0  502  501  0.00000000000E+00  0.00000000000E+00  0.72270336867E+02  0.72270336867E+02  0.00000000000E+00 0.  1.
         21   -1    0    0  501  502 -0.00000000000E+00 -0.00000000000E+00 -0.78628066556E+03  0.78628066556E+03  0.00000000000E+00 0.  1.
      99926    2    1    2    0    0 -0.71054273576E-14  0.00000000000E+00 -0.71401032870E+03  0.85855100243E+03  0.47675892681E+03 0.  0.
      99925    2    3    3    0    0  0.58392551168E+02 -0.97769185110E+02 -0.56321454896E+03  0.63193375050E+03  0.26298504380E+03 0.  0.
         25    1    4    4    0    0 -0.10693350143E+02 -0.50057581358E+02 -0.28954029070E+03  0.31953277958E+03  0.12509000000E+03 0.  0.
         25    1    3    3    0    0 -0.58392551168E+02  0.97769185110E+02 -0.15079577973E+03  0.22661725193E+03  0.12509000000E+03 0.  0.
         25    1    4    4    0    0  0.69085901312E+02 -0.47711603751E+02 -0.27367425827E+03  0.31240097092E+03  0.12509000000E+03 0.  0.
<mgrwt>
<rscale>  2 0.47675893E+03</rscale>
<asrwt>0</asrwt>
<pdfrwt beam="1">  1       21 0.10627991E-01 0.47675893E+03</pdfrwt>
<pdfrwt beam="2">  1       21 0.11562951E+00 0.47675893E+03</pdfrwt>
<totfact> 0.38123526E+04</totfact>
</mgrwt>
</event>
<event>
 7    0  0.4766352E-002  0.4580178E+03  0.7546771E-02  0.1025358E+00
         21   -1    0    0  502  501  0.00000000000E+00  0.00000000000E+00  0.13852750597E+03  0.13852750597E+03  0.00000000000E+00 0.  1.
         21   -1    0    0  501  502 -0.00000000000E+00 -0.00000000000E+00 -0.37858966278E+03  0.37858966278E+03  0.00000000000E+00 0.  1.
      99926    2    1    2    0    0 -0.71054273576E-14 -0.14210854715E-13 -0.24006215681E+03  0.51711716875E+03  0.45801782398E+03 0.  0.
      99925    2    3    3    0    0  0.48285884822E+02  0.85744262908E+02 -0.21985989272E+03  0.35668261864E+03  0.26305990329E+03 0.  0.
         25    1    4    4    0    0  0.21533119817E+02  0.21143263067E+02 -0.59959000329E+02  0.14196232825E+03  0.12509000000E+03 0.  0.
         25    1    4    4    0    0  0.26752765005E+02  0.64600999841E+02 -0.15990089239E+03  0.21472029039E+03  0.12509000000E+03 0.  0.
         25    1    3    3    0    0 -0.48285884822E+02 -0.85744262908E+02 -0.20202264085E+02  0.16043455011E+03  0.12509000000E+03 0.  0.
<mgrwt>
<rscale>  2 0.45801782E+03</rscale>
<asrwt>0</asrwt>
<pdfrwt beam="1">  1       21 0.20371692E-01 0.45801782E+03</pdfrwt>
<pdfrwt beam="2">  1       21 0.55674949E-01 0.45801782E+03</pdfrwt>
<totfact> 0.62572248E+04</totfact>
</mgrwt>
</event>
<event>
 7    0  0.4766352E-002  0.4563888E+03  0.7546771E-02  0.1025834E+00
         21   -1    0    0  502  501  0.00000000000E+00  0.00000000000E+00  0.35967972759E+03  0.35967972759E+03  0.00000000000E+00 0.  1.
         21   -1    0    0  501  502 -0.00000000000E+00 -0.00000000000E+00 -0.14477514894E+03  0.14477514894E+03  0.00000000000E+00 0.  1.
      99926    2    1    2    0    0 -0.88817841970E-15  0.00000000000E+00  0.21490457865E+03  0.50445487653E+03  0.45638880851E+03 0.  0.
      99925    2    3    3    0    0  0.33335736310E+01  0.70076512410E+02  0.23481264211E+03  0.35965960936E+03  0.26324176607E+03 0.  0.
         25    1    3    3    0    0 -0.33335736310E+01 -0.70076512410E+02 -0.19908063464E+02  0.14479526717E+03  0.12509000000E+03 0.  0.
         25    1    4    4    0    0 -0.13578041355E+02  0.74982779595E+01  0.14701766657E+03  0.19365507936E+03  0.12509000000E+03 0.  0.
         25    1    4    4    0    0  0.16911614986E+02  0.62578234450E+02  0.87794975543E+02  0.16600453000E+03  0.12509000000E+03 0.  0.
<mgrwt>
<rscale>  2 0.45638881E+03</rscale>
<asrwt>0</asrwt>
<pdfrwt beam="1">  1       21 0.52894078E-01 0.45638881E+03</pdfrwt>
<pdfrwt beam="2">  1       21 0.21290463E-01 0.45638881E+03</pdfrwt>
<totfact> 0.64247641E+04</totfact>
</mgrwt>
</event>
<event>
 7    0  0.4766352E-002  0.4520655E+03  0.7546771E-02  0.1027108E+00
         21   -1    0    0  502  501  0.00000000000E+00  0.00000000000E+00  0.15407571094E+03  0.15407571094E+03  0.00000000000E+00 0. -1.
         21   -1    0    0  501  502 -0.00000000000E+00 -0.00000000000E+00 -0.33159549560E+03  0.33159549560E+03  0.00000000000E+00 0. -1.
      99926    2    1    2    0    0  0.71054273576E-14  0.00000000000E+00 -0.17751978465E+03  0.48567120654E+03  0.45206553388E+03 0.  0.
      99925    2    3    3    0    0 -0.42872274358E+02 -0.10039406561E+03 -0.94513554227E+02  0.30005185758E+03  0.26302339247E+03 0.  0.
         25    1    3    3    0    0  0.42872274358E+02  0.10039406561E+03 -0.83006230426E+02  0.18561934896E+03  0.12509000000E+03 0.  0.
         25    1    4    4    0    0  0.19343141940E+02 -0.43939589225E+02 -0.48615781150E+02  0.14253366942E+03  0.12509000000E+03 0.  0.
         25    1    4    4    0    0 -0.62215416298E+02 -0.56454476385E+02 -0.45897773078E+02  0.15751818816E+03  0.12509000000E+03 0.  0.
<mgrwt>
<rscale>  2 0.45206553E+03</rscale>
<asrwt>0</asrwt>
<pdfrwt beam="1">  1       21 0.22658193E-01 0.45206553E+03</pdfrwt>
<pdfrwt beam="2">  1       21 0.48764043E-01 0.45206553E+03</pdfrwt>
<totfact> 0.67856568E+04</totfact>
</mgrwt>
</event>
<event>
 7    0  0.4766352E-002  0.4133849E+03  0.7546771E-02  0.1039241E+00
         21   -1    0    0  502  501  0.00000000000E+00  0.00000000000E+00  0.36569402218E+02  0.36569402218E+02  0.00000000000E+00 0.  1.
         21   -1    0    0  501  502 -0.00000000000E+00 -0.00000000000E+00 -0.11682379787E+04  0.11682379787E+04  0.00000000000E+00 0.  1.
      99926    2    1    2    0    0  0.00000000000E+00  0.00000000000E+00 -0.11316685765E+04  0.12048073809E+04  0.41338487892E+03 0.  0.
      99925    2    3    3    0    0  0.26809377394E+02  0.47353967858E+02 -0.62818620965E+03  0.68317231423E+03  0.26295504549E+03 0.  0.
         25    1    4    4    0    0  0.14809854403E+02 -0.17184892681E+02 -0.28704763188E+03  0.31394028635E+03  0.12509000000E+03 0.  0.
         25    1    4    4    0    0  0.11999522991E+02  0.64538860538E+02 -0.34113857777E+03  0.36923202788E+03  0.12509000000E+03 0.  0.
         25    1    3    3    0    0 -0.26809377394E+02 -0.47353967858E+02 -0.50348236684E+03  0.52163506670E+03  0.12509000000E+03 0.  0.
<mgrwt>
<rscale>  2 0.41338488E+03</rscale>
<asrwt>0</asrwt>
<pdfrwt beam="1">  1       21 0.53778539E-02 0.41338488E+03</pdfrwt>
<pdfrwt beam="2">  1       21 0.17179968E+00 0.41338488E+03</pdfrwt>
<totfact> 0.44877040E+04</totfact>
</mgrwt>
</event>
<event>
 7    0  0.4766352E-002  0.4562867E+03  0.7546771E-02  0.1025864E+00
         21   -1    0    0  502  501  0.00000000000E+00  0.00000000000E+00  0.32332270712E+03  0.32332270712E+03  0.00000000000E+00 0. -1.
         21   -1    0    0  501  502 -0.00000000000E+00 -0.00000000000E+00 -0.16098280617E+03  0.16098280617E+03  0.00000000000E+00 0. -1.
      99926    2    1    2    0    0 -0.35527136788E-14  0.00000000000E+00  0.16233990095E+03  0.48430551329E+03  0.45628673744E+03 0.  0.
      99925    2    3    3    0    0  0.30105225536E+02  0.38129387167E+02 -0.77758880214E+01  0.26763280037E+03  0.26307161882E+03 0.  0.
         25    1    4    4    0    0 -0.11053056820E+02  0.44170751539E+02  0.14614798314E+02  0.13391910165E+03  0.12509000000E+03 0.  0.
         25    1    4    4    0    0  0.41158282356E+02 -0.60413643717E+01 -0.22390686336E+02  0.13371369872E+03  0.12509000000E+03 0.  0.
         25    1    3    3    0    0 -0.30105225536E+02 -0.38129387167E+02  0.17011578897E+03  0.21667271292E+03  0.12509000000E+03 0.  0.
<mgrwt>
<rscale>  2 0.45628674E+03</rscale>
<asrwt>0</asrwt>
<pdfrwt beam="1">  1       21 0.47547457E-01 0.45628674E+03</pdfrwt>
<pdfrwt beam="2">  1       21 0.23673942E-01 0.45628674E+03</pdfrwt>
<totfact> 0.65714209E+04</totfact>
</mgrwt>
</event>
<event>
 7    0  0.4766352E-002  0.4528921E+03  0.7546771E-02  0.1026863E+00
         21   -1    0    0  502  501  0.00000000000E+00  0.00000000000E+00  0.10593892165E+03  0.10593892165E+03  0.00000000000E+00 0.  1.
         21   -1    0    0  501  502 -0.00000000000E+00 -0.00000000000E+00 -0.48403182932E+03  0.48403182932E+03  0.00000000000E+00 0.  1.
      99926    2    1    2    0    0  0.00000000000E+00  0.71054273576E-14 -0.37809290767E+03  0.58997075098E+03  0.45289208448E+03 0.  0.
      99925    2    3    3    0    0 -0.42952247543E+02 -0.36529594698E+02 -0.11388682269E+03  0.29226003518E+03  0.26318513052E+03 0.  0.
         25    1    4    4    0    0 -0.31916214416E+02  0.10898045746E+02 -0.26941455156E+02  0.13232823678E+03  0.12509000000E+03 0.  0.
         25    1    4    4    0    0 -0.11036033127E+02 -0.47427640444E+02 -0.86945367532E+02  0.15993179840E+03  0.12509000000E+03 0.  0.
         25    1    3    3    0    0  0.42952247543E+02  0.36529594698E+02 -0.26420608498E+03  0.29771071579E+03  0.12509000000E+03 0.  0.
<mgrwt>
<rscale>  2 0.45289208E+03</rscale>
<asrwt>0</asrwt>
<pdfrwt beam="1">  1       21 0.15579253E-01 0.45289208E+03</pdfrwt>
<pdfrwt beam="2">  1       21 0.71181151E-01 0.45289208E+03</pdfrwt>
<totfact> 0.60298173E+04</totfact>
</mgrwt>
</event>
<event>
 7    0  0.4766352E-002  0.4519875E+03  0.7546771E-02  0.1027131E+00
         21   -1    0    0  502  501  0.00000000000E+00  0.00000000000E+00  0.12777300026E+04  0.12777300026E+04  0.00000000000E+00 0. -1.
         21   -1    0    0  501  502 -0.00000000000E+00 -0.00000000000E+00 -0.39971799739E+02  0.39971799739E+02  0.00000000000E+00 0. -1.
      99926    2    1    2    0    0  0.00000000000E+00  0.00000000000E+00  0.12377582028E+04  0.13177018023E+04  0.45198746790E+03 0.  0.
      99925    2    3    3    0    0 -0.10756693339E+03 -0.19307274570E+02  0.82456542795E+03  0.87237137070E+03  0.26302138207E+03 0.  0.
         25    1    4    4    0    0 -0.22108675702E+02  0.23861553962E+00  0.45709212762E+03  0.47441497838E+03  0.12509000000E+03 0.  0.
         25    1    3    3    0    0  0.10756693339E+03  0.19307274570E+02  0.41319277490E+03  0.44533043163E+03  0.12509000000E+03 0.  0.
         25    1    4    4    0    0 -0.85458257692E+02 -0.19545890110E+02  0.36747330034E+03  0.39795639232E+03  0.12509000000E+03 0.  0.
<mgrwt>
<rscale>  2 0.45198747E+03</rscale>
<asrwt>0</asrwt>
<pdfrwt beam="1">  1       21 0.18790144E+00 0.45198747E+03</pdfrwt>
<pdfrwt beam="2">  1       21 0.58782067E-02 0.45198747E+03</pdfrwt>
<totfact> 0.29284951E+04</totfact>
</mgrwt>
</event>
<event>
 7    0  0.4766352E-002  0.4568036E+03  0.7546771E-02  0.1025712E+00
         21   -1    0    0  502  501  0.00000000000E+00  0.00000000000E+00  0.62394082051E+03  0.62394082051E+03  0.00000000000E+00 0.  1.
         21   -1    0    0  501  502 -0.00000000000E+00 -0.00000000000E+00 -0.83609501332E+02  0.83609501332E+02  0.00000000000E+00 0.  1.
      99926    2    1    2    0    0  0.00000000000E+00  0.00000000000E+00  0.54033131917E+03  0.70755032184E+03  0.45680359396E+03 0.  0.
      99925    2    3    3    0    0  0.72725991635E+02  0.51344381031E+02  0.22649458464E+03  0.35817041491E+03  0.26279447087E+03 0.  0.
         25    1    4    4    0    0  0.27709921676E+02  0.37576776485E+02  0.16151370324E+03  0.20955676635E+03  0.12509000000E+03 0.  0.
         25    1    3    3    0    0 -0.72725991635E+02 -0.51344381031E+02  0.31383673453E+03  0.34937990693E+03  0.12509000000E+03 0.  0.
         25    1    4    4    0    0  0.45016069959E+02  0.13767604546E+02  0.64980881402E+02  0.14861364856E+03  0.12509000000E+03 0.  0.
<mgrwt>
<rscale>  2 0.45680359E+03</rscale>
<asrwt>0</asrwt>
<pdfrwt beam="1">  1       21 0.91756001E-01 0.45680359E+03</pdfrwt>
<pdfrwt beam="2">  1       21 0.12295515E-01 0.45680359E+03</pdfrwt>
<totfact> 0.51756543E+04</totfact>
</mgrwt>
</event>
<event>
 7    0  0.4766352E-002  0.4550144E+03  0.7546771E-02  0.1026237E+00
         21   -1    0    0  502  501  0.00000000000E+00  0.00000000000E+00  0.17116439051E+03  0.17116439051E+03  0.00000000000E+00 0. -1.
         21   -1    0    0  501  502 -0.00000000000E+00 -0.00000000000E+00 -0.30239652269E+03  0.30239652269E+03  0.00000000000E+00 0. -1.
      99926    2    1    2    0    0  0.14210854715E-13  0.14210854715E-13 -0.13123213217E+03  0.47356091320E+03  0.45501435801E+03 0.  0.
      99925    2    3    3    0    0  0.52506659231E+02  0.99394327837E+02 -0.95796771083E+02  0.30169074539E+03  0.26306672696E+03 0.  0.
         25    1    4    4    0    0  0.12679781054E+02  0.88967335268E+02 -0.44064083364E+02  0.16020335557E+03  0.12509000000E+03 0.  0.
         25    1    3    3    0    0 -0.52506659231E+02 -0.99394327837E+02 -0.35435361091E+02  0.17187016782E+03  0.12509000000E+03 0.  0.
         25    1    4    4    0    0  0.39826878176E+02  0.10426992569E+02 -0.51732687719E+02  0.14148738982E+03  0.12509000000E+03 0.  0.
<mgrwt>
<rscale>  2 0.45501436E+03</rscale>
<asrwt>0</asrwt>
<pdfrwt beam="1">  1       21 0.25171234E-01 0.45501436E+03</pdfrwt>
<pdfrwt beam="2">  1       21 0.44470076E-01 0.45501436E+03</pdfrwt>
<totfact> 0.67164264E+04</totfact>
</mgrwt>
</event>
<event>
 7    0  0.4766352E-002  0.4385026E+03  0.7546771E-02  0.1031207E+00
         21   -1    0    0  502  501  0.00000000000E+00  0.00000000000E+00  0.52042575990E+03  0.52042575990E+03  0.00000000000E+00 0. -1.
         21   -1    0    0  501  502 -0.00000000000E+00 -0.00000000000E+00 -0.92368836617E+02  0.92368836617E+02  0.00000000000E+00 0. -1.
      99926    2    1    2    0    0  0.00000000000E+00 -0.35527136788E-14  0.42805692328E+03  0.61279459652E+03  0.43850255182E+03 0.  0.
      99925    2    3    3    0    0 -0.87180800951E+02 -0.28798148794E+02  0.23052783588E+03  0.36160726822E+03  0.26303404320E+03 0.  0.
         25    1    4    4    0    0 -0.74423578652E+02 -0.41172392025E+02  0.11040763471E+03  0.18727356681E+03  0.12509000000E+03 0.  0.
         25    1    3    3    0    0  0.87180800951E+02  0.28798148794E+02  0.19752908740E+03  0.25118732830E+03  0.12509000000E+03 0.  0.
         25    1    4    4    0    0 -0.12757222298E+02  0.12374243231E+02  0.12012020117E+03  0.17433370141E+03  0.12509000000E+03 0.  0.
<mgrwt>
<rscale>  2 0.43850255E+03</rscale>
<asrwt>0</asrwt>
<pdfrwt beam="1">  1       21 0.76533199E-01 0.43850255E+03</pdfrwt>
<pdfrwt beam="2">  1       21 0.13583653E-01 0.43850255E+03</pdfrwt>
<totfact> 0.66097452E+04</totfact>
</mgrwt>
</event>
<event>
 7    0  0.4766352E-002  0.4757256E+03  0.7546771E-02  0.1020317E+00
         21   -1    0    0  502  501  0.00000000000E+00  0.00000000000E+00  0.26657058322E+03  0.26657058322E+03  0.00000000000E+00 0. -1.
         21   -1    0    0  501  502 -0.00000000000E+00 -0.00000000000E+00 -0.21224661752E+03  0.21224661752E+03  0.00000000000E+00 0. -1.
      99926    2    1    2    0    0  0.00000000000E+00  0.00000000000E+00  0.54323965696E+02  0.47881720074E+03  0.47572557055E+03 0.  0.
      99925    2    3    3    0    0  0.96658037543E+02 -0.80113968151E+02 -0.63549056349E+01  0.29149272919E+03  0.26299544147E+03 0.  0.
         25    1    4    4    0    0  0.14549244536E+02 -0.63004478466E+02 -0.37401957287E+01  0.14086426796E+03  0.12509000000E+03 0.  0.
         25    1    3    3    0    0 -0.96658037543E+02  0.80113968151E+02  0.60678871331E+02  0.18732447155E+03  0.12509000000E+03 0.  0.
         25    1    4    4    0    0  0.82108793007E+02 -0.17109489685E+02 -0.26147099061E+01  0.15062846124E+03  0.12509000000E+03 0.  0.
<mgrwt>
<rscale>  2 0.47572557E+03</rscale>
<asrwt>0</asrwt>
<pdfrwt beam="1">  1       21 0.39201557E-01 0.47572557E+03</pdfrwt>
<pdfrwt beam="2">  1       21 0.31212738E-01 0.47572557E+03</pdfrwt>
<totfact> 0.56838518E+04</totfact>
</mgrwt>
</event>
<event>
 7    0  0.4766352E-002  0.4694869E+03  0.7546771E-02  0.1022065E+00
         21   -1    0    0  502  501  0.00000000000E+00  0.00000000000E+00  0.41195422723E+03  0.41195422723E+03  0.00000000000E+00 0. -1.
         21   -1    0    0  501  502 -0.00000000000E+00 -0.00000000000E+00 -0.13376362049E+03  0.13376362049E+03  0.00000000000E+00 0. -1.
      99926    2    1    2    0    0  0.71054273576E-14  0.00000000000E+00  0.27819060674E+03  0.54571784773E+03  0.46948690679E+03 0.  0.
      99925    2    3    3    0    0  0.31501328854E+02  0.10518967494E+03  0.10020599782E+03  0.30203110097E+03  0.26291508614E+03 0.  0.
         25    1    4    4    0    0  0.41354006556E+02  0.79938052955E+02  0.75782263369E+02  0.17172858152E+03  0.12509000000E+03 0.  0.
         25    1    4    4    0    0 -0.98526777023E+01  0.25251621988E+02  0.24423734452E+02  0.13030251945E+03  0.12509000000E+03 0.  0.
         25    1    3    3    0    0 -0.31501328854E+02 -0.10518967494E+03  0.17798460892E+03  0.24368674676E+03  0.12509000000E+03 0.  0.
<mgrwt>
<rscale>  2 0.46948691E+03</rscale>
<asrwt>0</asrwt>
<pdfrwt beam="1">  1       21 0.60581504E-01 0.46948691E+03</pdfrwt>
<pdfrwt beam="2">  1       21 0.19671121E-01 0.46948691E+03</pdfrwt>
<totfact> 0.55503878E+04</totfact>
</mgrwt>
</event>
<event>
 7    0  0.4766352E-002  0.4606751E+03  0.7546771E-02  0.1024586E+00
         21   -1    0    0  502  501  0.00000000000E+00  0.00000000000E+00  0.12311344752E+03  0.12311344752E+03  0.00000000000E+00 0. -1.
         21   -1    0    0  501  502 -0.00000000000E+00 -0.00000000000E+00 -0.43094721600E+03  0.43094721600E+03  0.00000000000E+00 0. -1.
      99926    2    1    2    0    0  0.00000000000E+00  0.00000000000E+00 -0.30783376848E+03  0.55406066352E+03  0.46067514567E+03 0.  0.
      99925    2    3    3    0    0  0.61025277676E+02 -0.99314435467E+02 -0.21931525214E+03  0.36152371267E+03  0.26270282334E+03 0.  0.
         25    1    4    4    0    0  0.51344357612E+02 -0.20394050815E+02 -0.12877404877E+03  0.18783616293E+03  0.12509000000E+03 0.  0.
         25    1    3    3    0    0 -0.61025277676E+02  0.99314435467E+02 -0.88518516337E+02  0.19253695085E+03  0.12509000000E+03 0.  0.
         25    1    4    4    0    0  0.96809200639E+01 -0.78920384652E+02 -0.90541203377E+02  0.17368754974E+03  0.12509000000E+03 0.  0.
<mgrwt>
<rscale>  2 0.46067515E+03</rscale>
<asrwt>0</asrwt>
<pdfrwt beam="1">  1       21 0.18104919E-01 0.46067515E+03</pdfrwt>
<pdfrwt beam="2">  1       21 0.63374590E-01 0.46067515E+03</pdfrwt>
<totfact> 0.58909228E+04</totfact>
</mgrwt>
</event>
<event>
 7    0  0.4766352E-002  0.4453501E+03  0.7546771E-02  0.1029118E+00
         21   -1    0    0  502  501  0.00000000000E+00  0.00000000000E+00  0.12600939874E+03  0.12600939874E+03  0.00000000000E+00 0.  1.
         21   -1    0    0  501  502 -0.00000000000E+00 -0.00000000000E+00 -0.39349593570E+03  0.39349593570E+03  0.00000000000E+00 0.  1.
      99926    2    1    2    0    0  0.00000000000E+00  0.14210854715E-13 -0.26748653696E+03  0.51950533444E+03  0.44535013759E+03 0.  0.
      99925    2    3    3    0    0 -0.24775227267E+02 -0.78237773803E+02 -0.95452248888E+02  0.29151791042E+03  0.26293839420E+03 0.  0.
         25    1    4    4    0    0 -0.39694164377E+02 -0.54020551348E+02 -0.21770766079E+02  0.14358036429E+03  0.12509000000E+03 0.  0.
         25    1    4    4    0    0  0.14918937110E+02 -0.24217222455E+02 -0.73681482809E+02  0.14793754614E+03  0.12509000000E+03 0.  0.
         25    1    3    3    0    0  0.24775227267E+02  0.78237773803E+02 -0.17203428807E+03  0.22798742401E+03  0.12509000000E+03 0.  0.
<mgrwt>
<rscale>  2 0.44535014E+03</rscale>
<asrwt>0</asrwt>
<pdfrwt beam="1">  1       21 0.18530794E-01 0.44535014E+03</pdfrwt>
<pdfrwt beam="2">  1       21 0.57867048E-01 0.44535014E+03</pdfrwt>
<totfact> 0.69054649E+04</totfact>
</mgrwt>
</event>
<event>
 7    0  0.4766352E-002  0.4527914E+03  0.7546771E-02  0.1026893E+00
         21   -1    0    0  502  501  0.00000000000E+00  0.00000000000E+00  0.58326355803E+02  0.58326355803E+02  0.00000000000E+00 0.  1.
         21   -1    0    0  501  502 -0.00000000000E+00 -0.00000000000E+00 -0.87876251993E+03  0.87876251993E+03  0.00000000000E+00 0.  1.
      99926    2    1    2    0    0  0.00000000000E+00  0.00000000000E+00 -0.82043616413E+03  0.93708887573E+03  0.45279141071E+03 0.  0.
      99925    2    3    3    0    0  0.81650380251E+02 -0.63322258521E+02 -0.60180530066E+03  0.66483264425E+03  0.26297591514E+03 0.  0.
         25    1    3    3    0    0 -0.81650380251E+02  0.63322258521E+02 -0.21863086347E+03  0.27225623148E+03  0.12509000000E+03 0.  0.
         25    1    4    4    0    0  0.52407266038E+02 -0.57087474055E+02 -0.39241558344E+03  0.41909783995E+03  0.12509000000E+03 0.  0.
         25    1    4    4    0    0  0.29243114213E+02 -0.62347844662E+01 -0.20938971723E+03  0.24573480430E+03  0.12509000000E+03 0.  0.
<mgrwt>
<rscale>  2 0.45279141E+03</rscale>
<asrwt>0</asrwt>
<pdfrwt beam="1">  1       21 0.85774058E-02 0.45279141E+03</pdfrwt>
<pdfrwt beam="2">  1       21 0.12922977E+00 0.45279141E+03</pdfrwt>
<totfact> 0.42395666E+04</totfact>
</mgrwt>
</event>
<event>
 7    0  0.4766352E-002  0.4528735E+03  0.7546771E-02  0.1026869E+00
         21   -1    0    0  502  501  0.00000000000E+00  0.00000000000E+00  0.78763620650E+02  0.78763620650E+02  0.00000000000E+00 0.  1.
         21   -1    0    0  501  502 -0.00000000000E+00 -0.00000000000E+00 -0.65098076715E+03  0.65098076715E+03  0.00000000000E+00 0.  1.
      99926    2    1    2    0    0  0.00000000000E+00  0.14210854715E-13 -0.57221714650E+03  0.72974438780E+03  0.45287350196E+03 0.  0.
      99925    2    3    3    0    0 -0.73955748523E+02  0.79833670418E+02 -0.39753088960E+03  0.48890073702E+03  0.26296436032E+03 0.  0.
         25    1    4    4    0    0 -0.14636000730E+02  0.47946292587E+02 -0.13710996353E+03  0.19224908241E+03  0.12509000000E+03 0.  0.
         25    1    3    3    0    0  0.73955748523E+02 -0.79833670418E+02 -0.17468625690E+03  0.24084365078E+03  0.12509000000E+03 0.  0.
         25    1    4    4    0    0 -0.59319747793E+02  0.31887377831E+02 -0.26042092607E+03  0.29665165460E+03  0.12509000000E+03 0.  0.
<mgrwt>
<rscale>  2 0.45287350E+03</rscale>
<asrwt>0</asrwt>
<pdfrwt beam="1">  1       21 0.11582885E-01 0.45287350E+03</pdfrwt>
<pdfrwt beam="2">  1       21 0.95732465E-01 0.45287350E+03</pdfrwt>
<totfact> 0.52184807E+04</totfact>
</mgrwt>
</event>
<event>
 7    0  0.4766352E-002  0.4306508E+03  0.7546771E-02  0.1033655E+00
         21   -1    0    0  502  501  0.00000000000E+00  0.00000000000E+00  0.60469995272E+02  0.60469995272E+02  0.00000000000E+00 0. -1.
         21   -1    0    0  501  502 -0.00000000000E+00 -0.00000000000E+00 -0.76674449138E+03  0.76674449138E+03  0.00000000000E+00 0. -1.
      99926    2    1    2    0    0  0.00000000000E+00  0.00000000000E+00 -0.70627449611E+03  0.82721448666E+03  0.43065083661E+03 0.  0.
      99925    2    3    3    0    0 -0.64829682256E+02  0.28770765157E+02 -0.55631054165E+03  0.61944697147E+03  0.26306365595E+03 0.  0.
         25    1    4    4    0    0 -0.37156238410E+02  0.10498732122E+02 -0.37101774710E+03  0.39343676263E+03  0.12509000000E+03 0.  0.
         25    1    3    3    0    0  0.64829682256E+02 -0.28770765157E+02 -0.14996395446E+03  0.20776751519E+03  0.12509000000E+03 0.  0.
         25    1    4    4    0    0 -0.27673443847E+02  0.18272033035E+02 -0.18529279455E+03  0.22601020884E+03  0.12509000000E+03 0.  0.
<mgrwt>
<rscale>  2 0.43065084E+03</rscale>
<asrwt>0</asrwt>
<pdfrwt beam="1">  1       21 0.88926475E-02 0.43065084E+03</pdfrwt>
<pdfrwt beam="2">  1       21 0.11275653E+00 0.43065084E+03</pdfrwt>
<totfact> 0.56526328E+04</totfact>
</mgrwt>
</event>
<event>
 7    0  0.4766352E-002  0.4566591E+03  0.7546771E-02  0.1025755E+00
         21   -1    0    0  502  501  0.00000000000E+00  0.00000000000E+00  0.23193817925E+03  0.23193817925E+03  0.00000000000E+00 0.  1.
         21   -1    0    0  501  502 -0.00000000000E+00 -0.00000000000E+00 -0.22477707454E+03  0.22477707454E+03  0.00000000000E+00 0.  1.
      99926    2    1    2    0    0  0.00000000000E+00 -0.14210854715E-13  0.71611047140E+01  0.45671525379E+03  0.45665910877E+03 0.  0.
      99925    2    3    3    0    0  0.62322247927E+02  0.87280833909E+02 -0.36286763532E+02  0.28631210854E+03  0.26297507056E+03 0.  0.
         25    1    3    3    0    0 -0.62322247927E+02 -0.87280833909E+02  0.43447868246E+02  0.17040314525E+03  0.12509000000E+03 0.  0.
         25    1    4    4    0    0  0.62061078626E+02  0.68650668872E+02 -0.36570479338E+02  0.15984179640E+03  0.12509000000E+03 0.  0.
         25    1    4    4    0    0  0.26116930121E+00  0.18630165037E+02  0.28371580543E+00  0.12647031214E+03  0.12509000000E+03 0.  0.
<mgrwt>
<rscale>  2 0.45665911E+03</rscale>
<asrwt>0</asrwt>
<pdfrwt beam="1">  1       21 0.34108556E-01 0.45665911E+03</pdfrwt>
<pdfrwt beam="2">  1       21 0.33055452E-01 0.45665911E+03</pdfrwt>
<totfact> 0.67522028E+04</totfact>
</mgrwt>
</event>
<event>
 7    0  0.4766352E-002  0.4919159E+03  0.7546771E-02  0.1015911E+00
         21   -1    0    0  502  501  0.00000000000E+00  0.00000000000E+00  0.22960566357E+03  0.22960566357E+03  0.00000000000E+00 0. -1.
         21   -1    0    0  501  502 -0.00000000000E+00 -0.00000000000E+00 -0.26347478629E+03  0.26347478629E+03  0.00000000000E+00 0. -1.
      99926    2    1    2    0    0  0.00000000000E+00  0.00000000000E+00 -0.33869122717E+02  0.49308044986E+03  0.49191585923E+03 0.  0.
      99925    2    3    3    0    0  0.40742412361E+02 -0.13844329628E+03 -0.45186109077E+01  0.29985661310E+03  0.26280616455E+03 0.  0.
         25    1    3    3    0    0 -0.40742412361E+02  0.13844329628E+03 -0.29350511809E+02  0.19322383676E+03  0.12509000000E+03 0.  0.
         25    1    4    4    0    0 -0.41644233914E+01 -0.34968522092E+02  0.12547514834E+02  0.13055683892E+03  0.12509000000E+03 0.  0.
         25    1    4    4    0    0  0.44906835753E+02 -0.10347477419E+03 -0.17066125742E+02  0.16929977418E+03  0.12509000000E+03 0.  0.
<mgrwt>
<rscale>  2 0.49191586E+03</rscale>
<asrwt>0</asrwt>
<pdfrwt beam="1">  1       21 0.33765539E-01 0.49191586E+03</pdfrwt>
<pdfrwt beam="2">  1       21 0.38746292E-01 0.49191586E+03</pdfrwt>
<totfact> 0.49556056E+04</totfact>
</mgrwt>
</event>
<event>
 7    0  0.4766352E-002  0.4458093E+03  0.7546771E-02  0.1028979E+00
         21   -1    0    0  502  501  0.00000000000E+00  0.00000000000E+00  0.21399804071E+03  0.21399804071E+03  0.00000000000E+00 0. -1.
         21   -1    0    0  501  502 -0.00000000000E+00 -0.00000000000E+00 -0.23218195581E+03  0.23218195581E+03  0.00000000000E+00 0. -1.
      99926    2    1    2    0    0  0.00000000000E+00  0.17763568394E-14 -0.18183915100E+02  0.44617999651E+03  0.44580930286E+03 0.  0.
      99925    2    3    3    0    0 -0.10294626371E+03 -0.14462212908E+02 -0.20876784604E+02  0.28350901428E+03  0.26293427359E+03 0.  0.
         25    1    4    4    0    0 -0.47846913561E+02  0.31376911373E+02 -0.22195514007E+02  0.13933408286E+03  0.12509000000E+03 0.  0.
         25    1    3    3    0    0  0.10294626371E+03  0.14462212908E+02  0.26928695034E+01  0.16267098223E+03  0.12509000000E+03 0.  0.
         25    1    4    4    0    0 -0.55099350152E+02 -0.45839124282E+02  0.13187294032E+01  0.14417493142E+03  0.12509000000E+03 0.  0.
<mgrwt>
<rscale>  2 0.44580930E+03</rscale>
<asrwt>0</asrwt>
<pdfrwt beam="1">  1       21 0.31470300E-01 0.44580930E+03</pdfrwt>
<pdfrwt beam="2">  1       21 0.34144405E-01 0.44580930E+03</pdfrwt>
<totfact> 0.74512911E+04</totfact>
</mgrwt>
</event>
<event>
 7    0  0.4766352E-002  0.4539812E+03  0.7546771E-02  0.1026541E+00
         21   -1    0    0  502  501  0.00000000000E+00  0.00000000000E+00  0.41324783981E+02  0.41324783981E+02  0.00000000000E+00 0. -1.
         21   -1    0    0  501  502 -0.00000000000E+00 -0.00000000000E+00 -0.12468241349E+04  0.12468241349E+04  0.00000000000E+00 0. -1.
      99926    2    1    2    0    0  0.00000000000E+00  0.00000000000E+00 -0.12054993509E+04  0.12881489189E+04  0.45398122444E+03 0.  0.
      99925    2    3    3    0    0  0.10047722819E+03 -0.49413332187E+02 -0.73938609402E+03  0.79272341778E+03  0.26302332650E+03 0.  0.
         25    1    3    3    0    0 -0.10047722819E+03  0.49413332187E+02 -0.46611325687E+03  0.49542550107E+03  0.12509000000E+03 0.  0.
         25    1    4    4    0    0  0.82643691404E+02 -0.42964016140E+01 -0.34680418466E+03  0.37784797127E+03  0.12509000000E+03 0.  0.
         25    1    4    4    0    0  0.17833536788E+02 -0.45116930573E+02 -0.39258190936E+03  0.41487544651E+03  0.12509000000E+03 0.  0.
<mgrwt>
<rscale>  2 0.45398122E+03</rscale>
<asrwt>0</asrwt>
<pdfrwt beam="1">  1       21 0.60771753E-02 0.45398122E+03</pdfrwt>
<pdfrwt beam="2">  1       21 0.18335645E+00 0.45398122E+03</pdfrwt>
<totfact> 0.29695491E+04</totfact>
</mgrwt>
</event>
<event>
 7    0  0.4766352E-002  0.4543160E+03  0.7546771E-02  0.1026443E+00
         21   -1    0    0  502  501  0.00000000000E+00  0.00000000000E+00  0.43053991861E+03  0.43053991861E+03  0.00000000000E+00 0.  1.
         21   -1    0    0  501  502 -0.00000000000E+00 -0.00000000000E+00 -0.11985127772E+03  0.11985127772E+03  0.00000000000E+00 0.  1.
      99926    2    1    2    0    0 -0.35527136788E-14  0.00000000000E+00  0.31068864089E+03  0.55039119633E+03  0.45431601053E+03 0.  0.
      99925    2    3    3    0    0  0.31926388368E+02 -0.97771590048E+02  0.13804959691E+03  0.31368393895E+03  0.26222384379E+03 0.  0.
         25    1    4    4    0    0  0.39936108180E+02 -0.21347335641E+02  0.47833584575E+02  0.14137242089E+03  0.12509000000E+03 0.  0.
         25    1    3    3    0    0 -0.31926388368E+02  0.97771590048E+02  0.17263904397E+03  0.23670725738E+03  0.12509000000E+03 0.  0.
         25    1    4    4    0    0 -0.80097198125E+01 -0.76424254407E+02  0.90216012340E+02  0.17231151806E+03  0.12509000000E+03 0.  0.
<mgrwt>
<rscale>  2 0.45431601E+03</rscale>
<asrwt>0</asrwt>
<pdfrwt beam="1">  1       21 0.63314693E-01 0.45431601E+03</pdfrwt>
<pdfrwt beam="2">  1       21 0.17625188E-01 0.45431601E+03</pdfrwt>
<totfact> 0.62176460E+04</totfact>
</mgrwt>
</event>
<event>
 7    0  0.4766352E-002  0.4547988E+03  0.7546771E-02  0.1026301E+00
         21   -1    0    0  502  501  0.00000000000E+00  0.00000000000E+00  0.16600673215E+03  0.16600673215E+03  0.00000000000E+00 0. -1.
         21   -1    0    0  501  502 -0.00000000000E+00 -0.00000000000E+00 -0.31149637334E+03  0.31149637334E+03  0.00000000000E+00 0. -1.
      99926    2    1    2    0    0  0.71054273576E-14  0.00000000000E+00 -0.14548964119E+03  0.47750310549E+03  0.45479883471E+03 0.  0.
      99925    2    3    3    0    0 -0.49531122701E+02 -0.55631740816E+02 -0.18079392281E+03  0.32769615270E+03  0.26296407220E+03 0.  0.
         25    1    4    4    0    0 -0.28655335237E+02  0.12886238067E+02 -0.79306841112E+02  0.15140761710E+03  0.12509000000E+03 0.  0.
         25    1    3    3    0    0  0.49531122701E+02  0.55631740816E+02  0.35304281617E+02  0.14980695278E+03  0.12509000000E+03 0.  0.
         25    1    4    4    0    0 -0.20875787464E+02 -0.68517978883E+02 -0.10148708170E+03  0.17628853560E+03  0.12509000000E+03 0.  0.
<mgrwt>
<rscale>  2 0.45479883E+03</rscale>
<asrwt>0</asrwt>
<pdfrwt beam="1">  1       21 0.24412755E-01 0.45479883E+03</pdfrwt>
<pdfrwt beam="2">  1       21 0.45808290E-01 0.45479883E+03</pdfrwt>
<totfact> 0.66989195E+04</totfact>
</mgrwt>
</event>
<event>
 7    0  0.4766352E-002  0.4496941E+03  0.7546771E-02  0.1027813E+00
         21   -1    0    0  502  501  0.00000000000E+00  0.00000000000E+00  0.69404065552E+03  0.69404065552E+03  0.00000000000E+00 0.  1.
         21   -1    0    0  501  502 -0.00000000000E+00 -0.00000000000E+00 -0.72843288052E+02  0.72843288052E+02  0.00000000000E+00 0.  1.
      99926    2    1    2    0    0  0.00000000000E+00  0.35527136788E-14  0.62119736747E+03  0.76688394358E+03  0.44969413334E+03 0.  0.
      99925    2    3    3    0    0  0.82345072117E+02  0.21381298946E+02  0.50664400692E+03  0.57712659495E+03  0.26296213795E+03 0.  0.
         25    1    3    3    0    0 -0.82345072117E+02 -0.21381298946E+02  0.11455336055E+03  0.18975734863E+03  0.12509000000E+03 0.  0.
         25    1    4    4    0    0  0.71801800934E+02 -0.14631745161E+02  0.28853362369E+03  0.32290671514E+03  0.12509000000E+03 0.  0.
         25    1    4    4    0    0  0.10543271183E+02  0.36013044107E+02  0.21811038324E+03  0.25421987981E+03  0.12509000000E+03 0.  0.
<mgrwt>
<rscale>  2 0.44969413E+03</rscale>
<asrwt>0</asrwt>
<pdfrwt beam="1">  1       21 0.10206480E+00 0.44969413E+03</pdfrwt>
<pdfrwt beam="2">  1       21 0.10712249E-01 0.44969413E+03</pdfrwt>
<totfact> 0.51520933E+04</totfact>
</mgrwt>
</event>
<event>
 7    0  0.4766352E-002  0.4537335E+03  0.7546771E-02  0.1026614E+00
         21   -1    0    0  502  501  0.00000000000E+00  0.00000000000E+00  0.11990861010E+04  0.11990861010E+04  0.00000000000E+00 0. -1.
         21   -1    0    0  501  502 -0.00000000000E+00 -0.00000000000E+00 -0.42923126818E+02  0.42923126818E+02  0.00000000000E+00 0. -1.
      99926    2    1    2    0    0  0.00000000000E+00  0.71054273576E-14  0.11561629742E+04  0.12420092278E+04  0.45373351112E+03 0.  0.
      99925    2    3    3    0    0 -0.25146991792E+02  0.35795809415E+02  0.44592929137E+03  0.51951832582E+03  0.26293087836E+03 0.  0.
         25    1    4    4    0    0 -0.10133978045E+02 -0.19343197883E+02  0.18217561662E+03  0.22206377509E+03  0.12509000000E+03 0.  0.
         25    1    3    3    0    0  0.25146991792E+02 -0.35795809415E+02  0.71023368282E+03  0.72249090200E+03  0.12509000000E+03 0.  0.
         25    1    4    4    0    0 -0.15013013747E+02  0.55139007298E+02  0.26375367474E+03  0.29745455073E+03  0.12509000000E+03 0.  0.
<mgrwt>
<rscale>  2 0.45373351E+03</rscale>
<asrwt>0</asrwt>
<pdfrwt beam="1">  1       21 0.17633617E+00 0.45373351E+03</pdfrwt>
<pdfrwt beam="2">  1       21 0.63122253E-02 0.45373351E+03</pdfrwt>
<totfact> 0.31152485E+04</totfact>
</mgrwt>
</event>
<event>
 7    0  0.4766352E-002  0.4576423E+03  0.7546771E-02  0.1025467E+00
         21   -1    0    0  502  501  0.00000000000E+00  0.00000000000E+00  0.13223156424E+03  0.13223156424E+03  0.00000000000E+00 0.  1.
         21   -1    0    0  501  502 -0.00000000000E+00 -0.00000000000E+00 -0.39596527497E+03  0.39596527497E+03  0.00000000000E+00 0.  1.
      99926    2    1    2    0    0  0.00000000000E+00  0.00000000000E+00 -0.26373371073E+03  0.52819683922E+03  0.45764225196E+03 0.  0.
      99925    2    3    3    0    0 -0.23068585579E+02  0.98970588243E+02 -0.22943094974E+03  0.36341964271E+03  0.26288388887E+03 0.  0.
         25    1    4    4    0    0  0.74938335619E+01  0.45703654463E+02 -0.66570028637E+02  0.14907735705E+03  0.12509000000E+03 0.  0.
         25    1    3    3    0    0  0.23068585579E+02 -0.98970588243E+02 -0.34302760995E+02  0.16477719651E+03  0.12509000000E+03 0.  0.
         25    1    4    4    0    0 -0.30562419141E+02  0.53266933780E+02 -0.16286092110E+03  0.21434228565E+03  0.12509000000E+03 0.  0.
<mgrwt>
<rscale>  2 0.45764225E+03</rscale>
<asrwt>0</asrwt>
<pdfrwt beam="1">  1       21 0.19445819E-01 0.45764225E+03</pdfrwt>
<pdfrwt beam="2">  1       21 0.58230186E-01 0.45764225E+03</pdfrwt>
<totfact> 0.62019568E+04</totfact>
</mgrwt>
</event>
<event>
 7    0  0.4766352E-002  0.4489907E+03  0.7546771E-02  0.1028023E+00
         21   -1    0    0  502  501  0.00000000000E+00  0.00000000000E+00  0.42240990892E+03  0.42240990892E+03  0.00000000000E+00 0. -1.
         21   -1    0    0  501  502 -0.00000000000E+00 -0.00000000000E+00 -0.11931101870E+03  0.11931101870E+03  0.00000000000E+00 0. -1.
      99926    2    1    2    0    0  0.00000000000E+00  0.00000000000E+00  0.30309889022E+03  0.54172092763E+03  0.44899067493E+03 0.  0.
      99925    2    3    3    0    0  0.58158718343E+02 -0.79284336918E+02  0.24290649766E+03  0.37160604050E+03  0.26347493264E+03 0.  0.
         25    1    4    4    0    0 -0.10747654364E+02 -0.42939909134E+02  0.98242155698E+02  0.16510111183E+03  0.12509000000E+03 0.  0.
         25    1    4    4    0    0  0.68906372707E+02 -0.36344427784E+02  0.14466434197E+03  0.20650492867E+03  0.12509000000E+03 0.  0.
         25    1    3    3    0    0 -0.58158718343E+02  0.79284336918E+02  0.60192392557E+02  0.17011488712E+03  0.12509000000E+03 0.  0.
<mgrwt>
<rscale>  2 0.44899067E+03</rscale>
<asrwt>0</asrwt>
<pdfrwt beam="1">  1       21 0.62119104E-01 0.44899067E+03</pdfrwt>
<pdfrwt beam="2">  1       21 0.17545738E-01 0.44899067E+03</pdfrwt>
<totfact> 0.65475495E+04</totfact>
</mgrwt>
</event>
<event>
 7    0  0.4766352E-002  0.4562910E+03  0.7546771E-02  0.1025862E+00
         21   -1    0    0  502  501  0.00000000000E+00  0.00000000000E+00  0.18782021665E+03  0.18782021665E+03  0.00000000000E+00 0.  1.
         21   -1    0    0  501  502 -0.00000000000E+00 -0.00000000000E+00 -0.27712869514E+03  0.27712869514E+03  0.00000000000E+00 0.  1.
      99926    2    1    2    0    0  0.00000000000E+00  0.00000000000E+00 -0.89308478490E+02  0.46494891179E+03  0.45629101047E+03 0.  0.
      99925    2    3    3    0    0  0.53464407980E+02 -0.79681900106E+02  0.71798924461E+01  0.28011070699E+03  0.26306426818E+03 0.  0.
         25    1    4    4    0    0  0.34332400799E+02 -0.38847125540E+02 -0.36340798502E+02  0.14019976692E+03  0.12509000000E+03 0.  0.
         25    1    3    3    0    0 -0.53464407980E+02  0.79681900106E+02 -0.96488370936E+02  0.18483820479E+03  0.12509000000E+03 0.  0.
         25    1    4    4    0    0  0.19132007180E+02 -0.40834774567E+02  0.43520690948E+02  0.13991094008E+03  0.12509000000E+03 0.  0.
<mgrwt>
<rscale>  2 0.45629101E+03</rscale>
<asrwt>0</asrwt>
<pdfrwt beam="1">  1       21 0.27620621E-01 0.45629101E+03</pdfrwt>
<pdfrwt beam="2">  1       21 0.40754219E-01 0.45629101E+03</pdfrwt>
<totfact> 0.67122504E+04</totfact>
</mgrwt>
</event>
<event>
 7    0  0.4766352E-002  0.4441435E+03  0.7546771E-02  0.1029483E+00
         21   -1    0    0  502  501  0.00000000000E+00  0.00000000000E+00  0.90568227251E+02  0.90568227251E+02  0.00000000000E+00 0. -1.
         21   -1    0    0  501  502 -0.00000000000E+00 -0.00000000000E+00 -0.54451616180E+03  0.54451616180E+03  0.00000000000E+00 0. -1.
      99926    2    1    2    0    0  0.00000000000E+00  0.00000000000E+00 -0.45394793455E+03  0.63508438905E+03  0.44414350601E+03 0.  0.
      99925    2    3    3    0    0  0.64655596150E+02  0.34793965286E+02 -0.18592155371E+03  0.33032774013E+03  0.26298027613E+03 0.  0.
         25    1    3    3    0    0 -0.64655596150E+02 -0.34793965286E+02 -0.26802638084E+03  0.30475664892E+03  0.12509000000E+03 0.  0.
         25    1    4    4    0    0  0.45239082084E+01  0.32961464432E+02 -0.59030878597E+02  0.14226410865E+03  0.12509000000E+03 0.  0.
         25    1    4    4    0    0  0.60131687942E+02  0.18325008534E+01 -0.12689067511E+03  0.18806363148E+03  0.12509000000E+03 0.  0.
<mgrwt>
<rscale>  2 0.44414351E+03</rscale>
<asrwt>0</asrwt>
<pdfrwt beam="1">  1       21 0.13318856E-01 0.44414351E+03</pdfrwt>
<pdfrwt beam="2">  1       21 0.80075910E-01 0.44414351E+03</pdfrwt>
<totfact> 0.61686977E+04</totfact>
</mgrwt>
</event>
<event>
 7    0  0.4766352E-002  0.4572567E+03  0.7546771E-02  0.1025580E+00
         21   -1    0    0  502  501  0.00000000000E+00  0.00000000000E+00  0.39062616531E+03  0.39062616531E+03  0.00000000000E+00 0.  1.
         21   -1    0    0  501  502 -0.00000000000E+00 -0.00000000000E+00 -0.13381315479E+03  0.13381315479E+03  0.00000000000E+00 0.  1.
      99926    2    1    2    0    0  0.00000000000E+00  0.00000000000E+00  0.25681301052E+03  0.52443932010E+03  0.45725668731E+03 0.  0.
      99925    2    3    3    0    0  0.11487786157E+02 -0.80604540327E+02  0.67452737446E+02  0.28332963080E+03  0.26286260052E+03 0.  0.
         25    1    3    3    0    0 -0.11487786157E+02  0.80604540327E+02  0.18936027307E+03  0.24110968929E+03  0.12509000000E+03 0.  0.
         25    1    4    4    0    0  0.26351734421E+02 -0.40691342949E+02 -0.17428221888E+01  0.13416685443E+03  0.12509000000E+03 0.  0.
         25    1    4    4    0    0 -0.14863948264E+02 -0.39913197379E+02  0.69195559635E+02  0.14916277638E+03  0.12509000000E+03 0.  0.
<mgrwt>
<rscale>  2 0.45725669E+03</rscale>
<asrwt>0</asrwt>
<pdfrwt beam="1">  1       21 0.57445024E-01 0.45725669E+03</pdfrwt>
<pdfrwt beam="2">  1       21 0.19678405E-01 0.45725669E+03</pdfrwt>
<totfact> 0.62459554E+04</totfact>
</mgrwt>
</event>
<event>
 7    0  0.4766352E-002  0.4571490E+03  0.7546771E-02  0.1025611E+00
         21   -1    0    0  502  501  0.00000000000E+00  0.00000000000E+00  0.15449278447E+04  0.15449278447E+04  0.00000000000E+00 0. -1.
         21   -1    0    0  501  502 -0.00000000000E+00 -0.00000000000E+00 -0.33817962061E+02  0.33817962061E+02  0.00000000000E+00 0. -1.
      99926    2    1    2    0    0  0.14210854715E-13  0.00000000000E+00  0.15111098826E+04  0.15787458067E+04  0.45714904019E+03 0.  0.
      99925    2    3    3    0    0 -0.72934645320E+02  0.74121507980E+02  0.11201358209E+04  0.11552818939E+04  0.26298010703E+03 0.  0.
         25    1    3    3    0    0  0.72934645320E+02 -0.74121507980E+02  0.39097406169E+03  0.42346391280E+03  0.12509000000E+03 0.  0.
         25    1    4    4    0    0 -0.45424622676E+02  0.76550411925E+02  0.66233325274E+03  0.67989426214E+03  0.12509000000E+03 0.  0.
         25    1    4    4    0    0 -0.27510022644E+02 -0.24289039452E+01  0.45780256818E+03  0.47538763178E+03  0.12509000000E+03 0.  0.
<mgrwt>
<rscale>  2 0.45714904E+03</rscale>
<asrwt>0</asrwt>
<pdfrwt beam="1">  1       21 0.22719522E+00 0.45714904E+03</pdfrwt>
<pdfrwt beam="2">  1       21 0.49732308E-02 0.45714904E+03</pdfrwt>
<totfact> 0.21551546E+04</totfact>
</mgrwt>
</event>
<event>
 7    0  0.4766352E-002  0.4630376E+03  0.7546771E-02  0.1023904E+00
         21   -1    0    0  502  501  0.00000000000E+00  0.00000000000E+00  0.12517440949E+03  0.12517440949E+03  0.00000000000E+00 0. -1.
         21   -1    0    0  501  502 -0.00000000000E+00 -0.00000000000E+00 -0.42821025823E+03  0.42821025823E+03  0.00000000000E+00 0. -1.
      99926    2    1    2    0    0  0.14210854715E-13  0.00000000000E+00 -0.30303584874E+03  0.55338466772E+03  0.46303764949E+03 0.  0.
      99925    2    3    3    0    0 -0.81367812250E+02  0.86100757925E+02 -0.16198483210E+03  0.33072582828E+03  0.26288101163E+03 0.  0.
         25    1    4    4    0    0 -0.30625365574E+00  0.33203987821E+02 -0.61059963657E+02  0.14310285064E+03  0.12509000000E+03 0.  0.
         25    1    4    4    0    0 -0.81061558594E+02  0.52896770103E+02 -0.10092486844E+03  0.18762297764E+03  0.12509000000E+03 0.  0.
         25    1    3    3    0    0  0.81367812250E+02 -0.86100757925E+02 -0.14105101664E+03  0.22265883944E+03  0.12509000000E+03 0.  0.
<mgrwt>
<rscale>  2 0.46303765E+03</rscale>
<asrwt>0</asrwt>
<pdfrwt beam="1">  1       21 0.18408002E-01 0.46303765E+03</pdfrwt>
<pdfrwt beam="2">  1       21 0.62972095E-01 0.46303765E+03</pdfrwt>
<totfact> 0.57874482E+04</totfact>
</mgrwt>
</event>
<event>
 7    0  0.4766352E-002  0.4616603E+03  0.7546771E-02  0.1024301E+00
         21   -1    0    0  502  501  0.00000000000E+00  0.00000000000E+00  0.10051513046E+03  0.10051513046E+03  0.00000000000E+00 0.  1.
         21   -1    0    0  501  502 -0.00000000000E+00 -0.00000000000E+00 -0.53009487694E+03  0.53009487694E+03  0.00000000000E+00 0.  1.
      99926    2    1    2    0    0  0.00000000000E+00 -0.14210854715E-13 -0.42957974648E+03  0.63061000740E+03  0.46166028945E+03 0.  0.
      99925    2    3    3    0    0 -0.36306080940E+02 -0.11308857667E+03 -0.25499350594E+03  0.38518176703E+03  0.26312762663E+03 0.  0.
         25    1    3    3    0    0  0.36306080940E+02  0.11308857667E+03 -0.17458624054E+03  0.24542824037E+03  0.12509000000E+03 0.  0.
         25    1    4    4    0    0 -0.29760280217E+01 -0.95590148400E+02 -0.12696130978E+03  0.20226966034E+03  0.12509000000E+03 0.  0.
         25    1    4    4    0    0 -0.33330052918E+02 -0.17498428272E+02 -0.12803219616E+03  0.18291210669E+03  0.12509000000E+03 0.  0.
<mgrwt>
<rscale>  2 0.46166029E+03</rscale>
<asrwt>0</asrwt>
<pdfrwt beam="1">  1       21 0.14781637E-01 0.46166029E+03</pdfrwt>
<pdfrwt beam="2">  1       21 0.77955127E-01 0.46166029E+03</pdfrwt>
<totfact> 0.53940096E+04</totfact>
</mgrwt>
</event>
<event>
 7    0  0.4766352E-002  0.4649299E+03  0.7546771E-02  0.1023361E+00
         21   -1    0    0  502  501  0.00000000000E+00  0.00000000000E+00  0.81283689449E+02  0.81283689449E+02  0.00000000000E+00 0. -1.
         21   -1    0    0  501  502 -0.00000000000E+00 -0.00000000000E+00 -0.66483149281E+03  0.66483149281E+03  0.00000000000E+00 0. -1.
      99926    2    1    2    0    0  0.00000000000E+00  0.71054273576E-14 -0.58354780336E+03  0.74611518226E+03  0.46492991557E+03 0.  0.
      99925    2    3    3    0    0  0.99776358099E+02  0.60159927821E+02 -0.30442068486E+03  0.41880188444E+03  0.26296107408E+03 0.  0.
         25    1    4    4    0    0  0.14413784300E+02  0.45937075521E+02 -0.16382451134E+03  0.21166943733E+03  0.12509000000E+03 0.  0.
         25    1    4    4    0    0  0.85362573799E+02  0.14222852300E+02 -0.14059617353E+03  0.20713244710E+03  0.12509000000E+03 0.  0.
         25    1    3    3    0    0 -0.99776358099E+02 -0.60159927821E+02 -0.27912711849E+03  0.32731329782E+03  0.12509000000E+03 0.  0.
<mgrwt>
<rscale>  2 0.46492992E+03</rscale>
<asrwt>0</asrwt>
<pdfrwt beam="1">  1       21 0.11953484E-01 0.46492992E+03</pdfrwt>
<pdfrwt beam="2">  1       21 0.97769333E-01 0.46492992E+03</pdfrwt>
<totfact> 0.46715219E+04</totfact>
</mgrwt>
</event>
<event>
 7    0  0.4766352E-002  0.4551386E+03  0.7546771E-02  0.1026201E+00
         21   -1    0    0  502  501  0.00000000000E+00  0.00000000000E+00  0.19181418190E+03  0.19181418190E+03  0.00000000000E+00 0.  1.
         21   -1    0    0  501  502 -0.00000000000E+00 -0.00000000000E+00 -0.26998936258E+03  0.26998936258E+03  0.00000000000E+00 0.  1.
      99926    2    1    2    0    0  0.00000000000E+00  0.71054273576E-14 -0.78175180689E+02  0.46180354448E+03  0.45513861056E+03 0.  0.
      99925    2    3    3    0    0  0.26269208898E+02 -0.58041215361E+02  0.45771935774E+02  0.27453568873E+03  0.26308918691E+03 0.  0.
         25    1    4    4    0    0  0.24894134291E+02 -0.12932742897E+02  0.58563010880E+02  0.14094008693E+03  0.12509000000E+03 0.  0.
         25    1    3    3    0    0 -0.26269208898E+02  0.58041215361E+02 -0.12394711646E+03  0.18726785575E+03  0.12509000000E+03 0.  0.
         25    1    4    4    0    0  0.13750746075E+01 -0.45108472464E+02 -0.12791075106E+02  0.13359560180E+03  0.12509000000E+03 0.  0.
<mgrwt>
<rscale>  2 0.45513861E+03</rscale>
<asrwt>0</asrwt>
<pdfrwt beam="1">  1       21 0.28207968E-01 0.45513861E+03</pdfrwt>
<pdfrwt beam="2">  1       21 0.39704318E-01 0.45513861E+03</pdfrwt>
<totfact> 0.67973101E+04</totfact>
</mgrwt>
</event>
<event>
 7    0  0.4766352E-002  0.4605403E+03  0.7546771E-02  0.1024625E+00
         21   -1    0    0  502  501  0.00000000000E+00  0.00000000000E+00  0.63077839710E+03  0.63077839710E+03  0.00000000000E+00 0. -1.
         21   -1    0    0  501  502 -0.00000000000E+00 -0.00000000000E+00 -0.84061742637E+02  0.84061742637E+02  0.00000000000E+00 0. -1.
      99926    2    1    2    0    0  0.71054273576E-14  0.14210854715E-13  0.54671665446E+03  0.71484013974E+03  0.46054025352E+03 0.  0.
      99925    2    3    3    0    0 -0.59845731734E+02 -0.84141290729E+02  0.43170203189E+03  0.51600065694E+03  0.26311359755E+03 0.  0.
         25    1    4    4    0    0 -0.42224880243E+02 -0.78225240260E+02  0.20068615631E+03  0.25263525122E+03  0.12509000000E+03 0.  0.
         25    1    4    4    0    0 -0.17620851491E+02 -0.59160504695E+01  0.23101587558E+03  0.26336540572E+03  0.12509000000E+03 0.  0.
         25    1    3    3    0    0  0.59845731734E+02  0.84141290729E+02  0.11501462257E+03  0.19883948279E+03  0.12509000000E+03 0.  0.
<mgrwt>
<rscale>  2 0.46054025E+03</rscale>
<asrwt>0</asrwt>
<pdfrwt beam="1">  1       21 0.92761527E-01 0.46054025E+03</pdfrwt>
<pdfrwt beam="2">  1       21 0.12362021E-01 0.46054025E+03</pdfrwt>
<totfact> 0.49894251E+04</totfact>
</mgrwt>
</event>
<event>
 7    0  0.4766352E-002  0.4558988E+03  0.7546771E-02  0.1025977E+00
         21   -1    0    0  502  501  0.00000000000E+00  0.00000000000E+00  0.21231320333E+03  0.21231320333E+03  0.00000000000E+00 0. -1.
         21   -1    0    0  501  502 -0.00000000000E+00 -0.00000000000E+00 -0.24473715442E+03  0.24473715442E+03  0.00000000000E+00 0. -1.
      99926    2    1    2    0    0 -0.14210854715E-13 -0.71054273576E-14 -0.32423951083E+02  0.45705035775E+03  0.45589880118E+03 0.  0.
      99925    2    3    3    0    0  0.96671981415E+02  0.53694459974E+02 -0.49122190672E+02  0.28925611968E+03  0.26273093867E+03 0.  0.
         25    1    3    3    0    0 -0.96671981415E+02 -0.53694459974E+02  0.16698239589E+02  0.16779423807E+03  0.12509000000E+03 0.  0.
         25    1    4    4    0    0  0.87500709052E+02  0.45497004169E+02 -0.30626217235E+02  0.16220920059E+03  0.12509000000E+03 0.  0.
         25    1    4    4    0    0  0.91712723630E+01  0.81974558048E+01 -0.18495973437E+02  0.12704691910E+03  0.12509000000E+03 0.  0.
<mgrwt>
<rscale>  2 0.45589880E+03</rscale>
<asrwt>0</asrwt>
<pdfrwt beam="1">  1       21 0.31222530E-01 0.45589880E+03</pdfrwt>
<pdfrwt beam="2">  1       21 0.35990758E-01 0.45589880E+03</pdfrwt>
<totfact> 0.67907587E+04</totfact>
</mgrwt>
</event>
<event>
 7    0  0.4766352E-002  0.4590959E+03  0.7546771E-02  0.1025044E+00
         21   -1    0    0  502  501  0.00000000000E+00  0.00000000000E+00  0.87105544735E+02  0.87105544735E+02  0.00000000000E+00 0. -1.
         21   -1    0    0  501  502 -0.00000000000E+00 -0.00000000000E+00 -0.60492433199E+03  0.60492433199E+03  0.00000000000E+00 0. -1.
      99926    2    1    2    0    0  0.00000000000E+00  0.00000000000E+00 -0.51781878725E+03  0.69202987672E+03  0.45909590920E+03 0.  0.
      99925    2    3    3    0    0  0.50904969860E+02  0.25113732888E+02 -0.47875378123E+03  0.54921671790E+03  0.26308136506E+03 0.  0.
         25    1    3    3    0    0 -0.50904969860E+02 -0.25113732888E+02 -0.39065006019E+02  0.14281315882E+03  0.12509000000E+03 0.  0.
         25    1    4    4    0    0 -0.96409776833E+01  0.24856293797E+02 -0.26511843255E+03  0.29435705388E+03  0.12509000000E+03 0.  0.
         25    1    4    4    0    0  0.60545947543E+02  0.25743909188E+00 -0.21363534868E+03  0.25485966402E+03  0.12509000000E+03 0.  0.
<mgrwt>
<rscale>  2 0.45909591E+03</rscale>
<asrwt>0</asrwt>
<pdfrwt beam="1">  1       21 0.12809639E-01 0.45909591E+03</pdfrwt>
<pdfrwt beam="2">  1       21 0.88959463E-01 0.45909591E+03</pdfrwt>
<totfact> 0.51652287E+04</totfact>
</mgrwt>
</event>
<event>
 7    0  0.4766352E-002  0.4600308E+03  0.7546771E-02  0.1024772E+00
         21   -1    0    0  502  501  0.00000000000E+00  0.00000000000E+00  0.20730151619E+04  0.20730151619E+04  0.00000000000E+00 0. -1.
         21   -1    0    0  501  502 -0.00000000000E+00 -0.00000000000E+00 -0.25521797328E+02  0.25521797328E+02  0.00000000000E+00 0. -1.
      99926    2    1    2    0    0  0.00000000000E+00  0.88817841970E-15  0.20474933646E+04  0.20985369592E+04  0.46003075036E+03 0.  0.
      99925    2    3    3    0    0  0.19640281134E+02  0.65409203833E+01  0.75353642438E+03  0.79838289318E+03  0.26300109691E+03 0.  0.
         25    1    3    3    0    0 -0.19640281134E+02 -0.65409203833E+01  0.12939569402E+04  0.13001540660E+04  0.12509000000E+03 0.  0.
         25    1    4    4    0    0 -0.27777721275E+02  0.15399767739E+02  0.34085708569E+03  0.36447196821E+03  0.12509000000E+03 0.  0.
         25    1    4    4    0    0  0.47418002409E+02 -0.88588473553E+01  0.41267933869E+03  0.43391092497E+03  0.12509000000E+03 0.  0.
<mgrwt>
<rscale>  2 0.46003075E+03</rscale>
<asrwt>0</asrwt>
<pdfrwt beam="1">  1       21 0.30485506E+00 0.46003075E+03</pdfrwt>
<pdfrwt beam="2">  1       21 0.37532069E-02 0.46003075E+03</pdfrwt>
<totfact> 0.11703081E+04</totfact>
</mgrwt>
</event>
<event>
 7    0  0.4766352E-002  0.4545503E+03  0.7546771E-02  0.1026374E+00
         21   -1    0    0  502  501  0.00000000000E+00  0.00000000000E+00  0.13927344715E+03  0.13927344715E+03  0.00000000000E+00 0.  1.
         21   -1    0    0  501  502 -0.00000000000E+00 -0.00000000000E+00 -0.37088180200E+03  0.37088180200E+03  0.00000000000E+00 0.  1.
      99926    2    1    2    0    0  0.00000000000E+00 -0.35527136788E-14 -0.23160835485E+03  0.51015524915E+03  0.45455027027E+03 0.  0.
      99925    2    3    3    0    0 -0.57533986742E+02 -0.30561255929E+02 -0.42279862915E+02  0.27406853637E+03  0.26283421738E+03 0.  0.
         25    1    3    3    0    0  0.57533986742E+02  0.30561255929E+02 -0.18932849193E+03  0.23608671278E+03  0.12509000000E+03 0.  0.
         25    1    4    4    0    0 -0.27849470169E+02 -0.47130283894E+02 -0.46857244999E+02  0.14436054225E+03  0.12509000000E+03 0.  0.
         25    1    4    4    0    0 -0.29684516573E+02  0.16569027965E+02  0.45773820843E+01  0.12970799412E+03  0.12509000000E+03 0.  0.
<mgrwt>
<rscale>  2 0.45455027E+03</rscale>
<asrwt>0</asrwt>
<pdfrwt beam="1">  1       21 0.20481389E-01 0.45455027E+03</pdfrwt>
<pdfrwt beam="2">  1       21 0.54541441E-01 0.45455027E+03</pdfrwt>
<totfact> 0.64793901E+04</totfact>
</mgrwt>
</event>
<event>
 7    0  0.4766352E-002  0.4592552E+03  0.7546771E-02  0.1024997E+00
         21   -1    0    0  502  501  0.00000000000E+00  0.00000000000E+00  0.25678456651E+03  0.25678456651E+03  0.00000000000E+00 0. -1.
         21   -1    0    0  501  502 -0.00000000000E+00 -0.00000000000E+00 -0.20534270605E+03  0.20534270605E+03  0.00000000000E+00 0. -1.
      99926    2    1    2    0    0  0.00000000000E+00 -0.11102230246E-14  0.51441860455E+02  0.46212727256E+03  0.45925521340E+03 0.  0.
      99925    2    3    3    0    0 -0.11020233898E+03 -0.32424438791E+00 -0.75177596726E+01  0.28529852615E+03  0.26304766043E+03 0.  0.
         25    1    3    3    0    0  0.11020233898E+03  0.32424438791E+00  0.58959620128E+02  0.17682874641E+03  0.12509000000E+03 0.  0.
         25    1    4    4    0    0 -0.34281649896E+02 -0.12424470150E+02 -0.37199419734E+02  0.13550241292E+03  0.12509000000E+03 0.  0.
         25    1    4    4    0    0 -0.75920689084E+02  0.12100225762E+02  0.29681660061E+02  0.14979611323E+03  0.12509000000E+03 0.  0.
<mgrwt>
<rscale>  2 0.45925521E+03</rscale>
<asrwt>0</asrwt>
<pdfrwt beam="1">  1       21 0.37762436E-01 0.45925521E+03</pdfrwt>
<pdfrwt beam="2">  1       21 0.30197457E-01 0.45925521E+03</pdfrwt>
<totfact> 0.65765447E+04</totfact>
</mgrwt>
</event>
<event>
 7    0  0.4766352E-002  0.4769483E+03  0.7546771E-02  0.1019977E+00
         21   -1    0    0  502  501  0.00000000000E+00  0.00000000000E+00  0.27270077082E+03  0.27270077082E+03  0.00000000000E+00 0.  1.
         21   -1    0    0  501  502 -0.00000000000E+00 -0.00000000000E+00 -0.20854326299E+03  0.20854326299E+03  0.00000000000E+00 0.  1.
      99926    2    1    2    0    0 -0.14210854715E-13  0.00000000000E+00  0.64157507831E+02  0.48124403380E+03  0.47694825113E+03 0.  0.
      99925    2    3    3    0    0  0.96143526457E+02  0.35683798499E+02  0.12504245673E+03  0.30841059879E+03  0.26261106280E+03 0.  0.
         25    1    4    4    0    0  0.64405468545E+02 -0.13433360316E+02  0.42732189375E+02  0.14765523241E+03  0.12509000000E+03 0.  0.
         25    1    4    4    0    0  0.31738057911E+02  0.49117158815E+02  0.82310267355E+02  0.16075536639E+03  0.12509000000E+03 0.  0.
         25    1    3    3    0    0 -0.96143526457E+02 -0.35683798499E+02 -0.60884948899E+02  0.17283343501E+03  0.12509000000E+03 0.  0.
<mgrwt>
<rscale>  2 0.47694825E+03</rscale>
<asrwt>0</asrwt>
<pdfrwt beam="1">  1       21 0.40103055E-01 0.47694825E+03</pdfrwt>
<pdfrwt beam="2">  1       21 0.30668127E-01 0.47694825E+03</pdfrwt>
<totfact> 0.56163590E+04</totfact>
</mgrwt>
</event>
<event>
 7    0  0.4766352E-002  0.4556472E+03  0.7546771E-02  0.1026051E+00
         21   -1    0    0  502  501  0.00000000000E+00  0.00000000000E+00  0.87920523183E+03  0.87920523183E+03  0.00000000000E+00 0.  1.
         21   -1    0    0  501  502 -0.00000000000E+00 -0.00000000000E+00 -0.59034662972E+02  0.59034662972E+02  0.00000000000E+00 0.  1.
      99926    2    1    2    0    0 -0.71054273576E-14  0.00000000000E+00  0.82017056886E+03  0.93823989480E+03  0.45564716413E+03 0.  0.
      99925    2    3    3    0    0  0.54875810758E+02 -0.99622722316E+02  0.51018867485E+03  0.58515021197E+03  0.26300616955E+03 0.  0.
         25    1    3    3    0    0 -0.54875810758E+02  0.99622722316E+02  0.30998189401E+03  0.35308968283E+03  0.12509000000E+03 0.  0.
         25    1    4    4    0    0  0.67725622557E+02 -0.45573650660E+02  0.27967040199E+03  0.31705955187E+03  0.12509000000E+03 0.  0.
         25    1    4    4    0    0 -0.12849811799E+02 -0.54049071656E+02  0.23051827286E+03  0.26809066010E+03  0.12509000000E+03 0.  0.
<mgrwt>
<rscale>  2 0.45564716E+03</rscale>
<asrwt>0</asrwt>
<pdfrwt beam="1">  1       21 0.12929488E+00 0.45564716E+03</pdfrwt>
<pdfrwt beam="2">  1       21 0.86815686E-02 0.45564716E+03</pdfrwt>
<totfact> 0.41410719E+04</totfact>
</mgrwt>
</event>
<event>
 7    0  0.4766352E-002  0.4888761E+03  0.7546771E-02  0.1016724E+00
         21   -1    0    0  502  501  0.00000000000E+00  0.00000000000E+00  0.16791451498E+03  0.16791451498E+03  0.00000000000E+00 0. -1.
         21   -1    0    0  501  502 -0.00000000000E+00 -0.00000000000E+00 -0.35583556983E+03  0.35583556983E+03  0.00000000000E+00 0. -1.
      99926    2    1    2    0    0  0.00000000000E+00  0.00000000000E+00 -0.18792105485E+03  0.52375008480E+03  0.48887608703E+03 0.  0.
      99925    2    3    3    0    0  0.32517058828E+02 -0.28492254724E+02 -0.26058552591E+03  0.37276398893E+03  0.26301902485E+03 0.  0.
         25    1    3    3    0    0 -0.32517058828E+02  0.28492254724E+02  0.72664471057E+02  0.15098609588E+03  0.12509000000E+03 0.  0.
         25    1    4    4    0    0  0.49420930835E+01 -0.73496859038E+01 -0.18195235531E+03  0.22098101699E+03  0.12509000000E+03 0.  0.
         25    1    4    4    0    0  0.27574965744E+02 -0.21142568820E+02 -0.78633170600E+02  0.15178297194E+03  0.12509000000E+03 0.  0.
<mgrwt>
<rscale>  2 0.48887609E+03</rscale>
<asrwt>0</asrwt>
<pdfrwt beam="1">  1       21 0.24693311E-01 0.48887609E+03</pdfrwt>
<pdfrwt beam="2">  1       21 0.52328760E-01 0.48887609E+03</pdfrwt>
<totfact> 0.49055302E+04</totfact>
</mgrwt>
</event>
<event>
 7    0  0.4766352E-002  0.4617946E+03  0.7546771E-02  0.1024262E+00
         21   -1    0    0  502  501  0.00000000000E+00  0.00000000000E+00  0.16888591343E+04  0.16888591343E+04  0.00000000000E+00 0.  1.
         21   -1    0    0  501  502 -0.00000000000E+00 -0.00000000000E+00 -0.31567796310E+02  0.31567796310E+02  0.00000000000E+00 0.  1.
      99926    2    1    2    0    0  0.00000000000E+00  0.71054273576E-14  0.16572913380E+04  0.17204269306E+04  0.46179459134E+03 0.  0.
      99925    2    3    3    0    0  0.60804134713E+01  0.56181947575E+02  0.64454059156E+03  0.69841667374E+03  0.26298268636E+03 0.  0.
         25    1    4    4    0    0  0.19868171007E+01 -0.11263364432E+02  0.33541653160E+03  0.35816556031E+03  0.12509000000E+03 0.  0.
         25    1    4    4    0    0  0.40935963705E+01  0.67445312007E+02  0.30912405996E+03  0.34025111343E+03  0.12509000000E+03 0.  0.
         25    1    3    3    0    0 -0.60804134713E+01 -0.56181947575E+02  0.10127507464E+04  0.10220102569E+04  0.12509000000E+03 0.  0.
<mgrwt>
<rscale>  2 0.46179459E+03</rscale>
<asrwt>0</asrwt>
<pdfrwt beam="1">  1       21 0.24836158E+00 0.46179459E+03</pdfrwt>
<pdfrwt beam="2">  1       21 0.46423241E-02 0.46179459E+03</pdfrwt>
<totfact> 0.17877933E+04</totfact>
</mgrwt>
</event>
<event>
 7    0  0.4766352E-002  0.4416428E+03  0.7546771E-02  0.1030244E+00
         21   -1    0    0  502  501  0.00000000000E+00  0.00000000000E+00  0.16032239303E+03  0.16032239303E+03  0.00000000000E+00 0. -1.
         21   -1    0    0  501  502 -0.00000000000E+00 -0.00000000000E+00 -0.30415022461E+03  0.30415022461E+03  0.00000000000E+00 0. -1.
      99926    2    1    2    0    0  0.14210854715E-13  0.00000000000E+00 -0.14382783158E+03  0.46447261764E+03  0.44164280521E+03 0.  0.
      99925    2    3    3    0    0 -0.93566920466E+02  0.10968891460E+02 -0.55811214831E+02  0.28483543298E+03  0.26294723234E+03 0.  0.
         25    1    4    4    0    0 -0.68661502475E+02 -0.12695988350E+02 -0.59347379464E+02  0.15506517853E+03  0.12509000000E+03 0.  0.
         25    1    3    3    0    0  0.93566920466E+02 -0.10968891460E+02 -0.88016616750E+02  0.17963718465E+03  0.12509000000E+03 0.  0.
         25    1    4    4    0    0 -0.24905417992E+02  0.23664879810E+02  0.35361646332E+01  0.12977025446E+03  0.12509000000E+03 0.  0.
<mgrwt>
<rscale>  2 0.44164281E+03</rscale>
<asrwt>0</asrwt>
<pdfrwt beam="1">  1       21 0.23576823E-01 0.44164281E+03</pdfrwt>
<pdfrwt beam="2">  1       21 0.44727973E-01 0.44164281E+03</pdfrwt>
<totfact> 0.75543480E+04</totfact>
</mgrwt>
</event>
<event>
 7    0  0.4766352E-002  0.4360407E+03  0.7546771E-02  0.1031969E+00
         21   -1    0    0  502  501  0.00000000000E+00  0.00000000000E+00  0.43056542101E+03  0.43056542101E+03  0.00000000000E+00 0.  1.
         21   -1    0    0  501  502 -0.00000000000E+00 -0.00000000000E+00 -0.11039638575E+03  0.11039638575E+03  0.00000000000E+00 0.  1.
      99926    2    1    2    0    0  0.00000000000E+00 -0.88817841970E-15  0.32016903526E+03  0.54096180677E+03  0.43604066925E+03 0.  0.
      99925    2    3    3    0    0  0.74187680033E+02 -0.71216912137E+01  0.13357424982E+03  0.30427709579E+03  0.26303600600E+03 0.  0.
         25    1    3    3    0    0 -0.74187680033E+02  0.71216912137E+01  0.18659478545E+03  0.23668471098E+03  0.12509000000E+03 0.  0.
         25    1    4    4    0    0  0.62083419454E+02  0.26667134471E+02  0.83218535553E+02  0.16473712330E+03  0.12509000000E+03 0.  0.
         25    1    4    4    0    0  0.12104260579E+02 -0.33788825684E+02  0.50355714263E+02  0.13953997250E+03  0.12509000000E+03 0.  0.
<mgrwt>
<rscale>  2 0.43604067E+03</rscale>
<asrwt>0</asrwt>
<pdfrwt beam="1">  1       21 0.63318444E-01 0.43604067E+03</pdfrwt>
<pdfrwt beam="2">  1       21 0.16234763E-01 0.43604067E+03</pdfrwt>
<totfact> 0.72789367E+04</totfact>
</mgrwt>
</event>
<event>
 7    0  0.4766352E-002  0.4832642E+03  0.7546771E-02  0.1018242E+00
         21   -1    0    0  502  501  0.00000000000E+00  0.00000000000E+00  0.38930137809E+03  0.38930137809E+03  0.00000000000E+00 0.  1.
         21   -1    0    0  501  502 -0.00000000000E+00 -0.00000000000E+00 -0.14997654526E+03  0.14997654526E+03  0.00000000000E+00 0.  1.
      99926    2    1    2    0    0  0.00000000000E+00  0.35527136788E-14  0.23932483282E+03  0.53927792335E+03  0.48326421656E+03 0.  0.
      99925    2    3    3    0    0 -0.42775158500E+02 -0.27600010191E+02  0.40343716012E+01  0.26798364772E+03  0.26307315436E+03 0.  0.
         25    1    4    4    0    0  0.12854584384E+01 -0.73475977884E+00  0.33477717151E+02  0.12950080278E+03  0.12509000000E+03 0.  0.
         25    1    4    4    0    0 -0.44060616938E+02 -0.26865250412E+02 -0.29443345550E+02  0.13848284494E+03  0.12509000000E+03 0.  0.
         25    1    3    3    0    0  0.42775158500E+02  0.27600010191E+02  0.23529046122E+03  0.27129427563E+03  0.12509000000E+03 0.  0.
<mgrwt>
<rscale>  2 0.48326422E+03</rscale>
<asrwt>0</asrwt>
<pdfrwt beam="1">  1       21 0.57250203E-01 0.48326422E+03</pdfrwt>
<pdfrwt beam="2">  1       21 0.22055374E-01 0.48326422E+03</pdfrwt>
<totfact> 0.50325248E+04</totfact>
</mgrwt>
</event>
<event>
 7    0  0.4766352E-002  0.4464581E+03  0.7546771E-02  0.1028784E+00
         21   -1    0    0  502  501  0.00000000000E+00  0.00000000000E+00  0.12219170627E+04  0.12219170627E+04  0.00000000000E+00 0. -1.
         21   -1    0    0  501  502 -0.00000000000E+00 -0.00000000000E+00 -0.40781171925E+02  0.40781171925E+02  0.00000000000E+00 0. -1.
      99926    2    1    2    0    0  0.00000000000E+00 -0.17763568394E-14  0.11811358908E+04  0.12626982346E+04  0.44645810469E+03 0.  0.
      99925    2    3    3    0    0  0.28868976242E+02  0.10206828699E+02  0.10330300180E+04  0.10664319492E+04  0.26303704498E+03 0.  0.
         25    1    4    4    0    0  0.76416018593E+01 -0.31750189968E+02  0.57175307777E+03  0.58618730682E+03  0.12509000000E+03 0.  0.
         25    1    4    4    0    0  0.21227374383E+02  0.41957018667E+02  0.46127694027E+03  0.48024464241E+03  0.12509000000E+03 0.  0.
         25    1    3    3    0    0 -0.28868976242E+02 -0.10206828699E+02  0.14810587272E+03  0.19626628538E+03  0.12509000000E+03 0.  0.
<mgrwt>
<rscale>  2 0.44645810E+03</rscale>
<asrwt>0</asrwt>
<pdfrwt beam="1">  1       21 0.17969366E+00 0.44645810E+03</pdfrwt>
<pdfrwt beam="2">  1       21 0.59972319E-02 0.44645810E+03</pdfrwt>
<totfact> 0.32312369E+04</totfact>
</mgrwt>
</event>
<event>
 7    0  0.4766352E-002  0.4543829E+03  0.7546771E-02  0.1026423E+00
         21   -1    0    0  502  501  0.00000000000E+00  0.00000000000E+00  0.32748186534E+03  0.32748186534E+03  0.00000000000E+00 0.  1.
         21   -1    0    0  501  502 -0.00000000000E+00 -0.00000000000E+00 -0.15761471674E+03  0.15761471674E+03  0.00000000000E+00 0.  1.
      99926    2    1    2    0    0 -0.35527136788E-14  0.00000000000E+00  0.16986714861E+03  0.48509658208E+03  0.45438292856E+03 0.  0.
      99925    2    3    3    0    0 -0.24358126573E+02  0.10784415510E+03  0.84142966410E+02  0.29742712896E+03  0.26298132657E+03 0.  0.
         25    1    4    4    0    0 -0.24135530353E+02  0.61085548804E+02  0.33078074851E+01  0.14132380475E+03  0.12509000000E+03 0.  0.
         25    1    4    4    0    0 -0.22259621954E+00  0.46758606298E+02  0.80835158925E+02  0.15610332421E+03  0.12509000000E+03 0.  0.
         25    1    3    3    0    0  0.24358126573E+02 -0.10784415510E+03  0.85724182199E+02  0.18766945312E+03  0.12509000000E+03 0.  0.
<mgrwt>
<rscale>  2 0.45438293E+03</rscale>
<asrwt>0</asrwt>
<pdfrwt beam="1">  1       21 0.48159098E-01 0.45438293E+03</pdfrwt>
<pdfrwt beam="2">  1       21 0.23178635E-01 0.45438293E+03</pdfrwt>
<totfact> 0.66656865E+04</totfact>
</mgrwt>
</event>
<event>
 7    0  0.4766352E-002  0.4443160E+03  0.7546771E-02  0.1029431E+00
         21   -1    0    0  502  501  0.00000000000E+00  0.00000000000E+00  0.27813307358E+03  0.27813307358E+03  0.00000000000E+00 0. -1.
         21   -1    0    0  501  502 -0.00000000000E+00 -0.00000000000E+00 -0.17744807876E+03  0.17744807876E+03  0.00000000000E+00 0. -1.
      99926    2    1    2    0    0  0.00000000000E+00  0.00000000000E+00  0.10068499482E+03  0.45558115234E+03  0.44431601163E+03 0.  0.
      99925    2    3    3    0    0  0.78690130831E+02  0.40378479074E+02  0.11790639404E+03  0.30141681485E+03  0.26292131952E+03 0.  0.
         25    1    4    4    0    0  0.78759159716E+02  0.12825655215E+02  0.75585882500E+02  0.16651797622E+03  0.12509000000E+03 0.  0.
         25    1    3    3    0    0 -0.78690130831E+02 -0.40378479074E+02 -0.17221399222E+02  0.15416433749E+03  0.12509000000E+03 0.  0.
         25    1    4    4    0    0 -0.69028884858E-01  0.27552823859E+02  0.42320511544E+02  0.13489883863E+03  0.12509000000E+03 0.  0.
<mgrwt>
<rscale>  2 0.44431601E+03</rscale>
<asrwt>0</asrwt>
<pdfrwt beam="1">  1       21 0.40901923E-01 0.44431601E+03</pdfrwt>
<pdfrwt beam="2">  1       21 0.26095306E-01 0.44431601E+03</pdfrwt>
<totfact> 0.74652127E+04</totfact>
</mgrwt>
</event>
<event>
 7    0  0.4766352E-002  0.4506196E+03  0.7546771E-02  0.1027537E+00
         21   -1    0    0  502  501  0.00000000000E+00  0.00000000000E+00  0.26799063804E+03  0.26799063804E+03  0.00000000000E+00 0. -1.
         21   -1    0    0  501  502 -0.00000000000E+00 -0.00000000000E+00 -0.18942643171E+03  0.18942643171E+03  0.00000000000E+00 0. -1.
      99926    2    1    2    0    0  0.00000000000E+00 -0.71054273576E-14  0.78564206325E+02  0.45741706975E+03  0.45061961917E+03 0.  0.
      99925    2    3    3    0    0  0.20088726194E+02 -0.44093527292E+02 -0.49474629397E+02  0.27197368857E+03  0.26300979498E+03 0.  0.
         25    1    4    4    0    0  0.10081637974E+02 -0.47123139917E+02  0.72038667265E+01  0.13424467787E+03  0.12509000000E+03 0.  0.
         25    1    4    4    0    0  0.10007088220E+02  0.30296126255E+01 -0.56678496123E+02  0.13772901071E+03  0.12509000000E+03 0.  0.
         25    1    3    3    0    0 -0.20088726194E+02  0.44093527292E+02  0.12803883572E+03  0.18544338118E+03  0.12509000000E+03 0.  0.
<mgrwt>
<rscale>  2 0.45061962E+03</rscale>
<asrwt>0</asrwt>
<pdfrwt beam="1">  1       21 0.39410388E-01 0.45061962E+03</pdfrwt>
<pdfrwt beam="2">  1       21 0.27856828E-01 0.45061962E+03</pdfrwt>
<totfact> 0.70810381E+04</totfact>
</mgrwt>
</event>
<event>
 7    0  0.4766352E-002  0.4521104E+03  0.7546771E-02  0.1027095E+00
         21   -1    0    0  502  501  0.00000000000E+00  0.00000000000E+00  0.58169957775E+03  0.58169957775E+03  0.00000000000E+00 0.  1.
         21   -1    0    0  501  502 -0.00000000000E+00 -0.00000000000E+00 -0.87847677547E+02  0.87847677547E+02  0.00000000000E+00 0.  1.
      99926    2    1    2    0    0  0.00000000000E+00 -0.35527136788E-14  0.49385190020E+03  0.66954725530E+03  0.45211041543E+03 0.  0.
      99925    2    3    3    0    0 -0.28261385459E+02  0.29054881573E+02  0.15993743660E+03  0.31067503688E+03  0.26324152952E+03 0.  0.
         25    1    4    4    0    0  0.17763727370E+02  0.11983732444E+02  0.47662911963E+02  0.13556703556E+03  0.12509000000E+03 0.  0.
         25    1    4    4    0    0 -0.46025112829E+02  0.17071149129E+02  0.11227452464E+03  0.17510800132E+03  0.12509000000E+03 0.  0.
         25    1    3    3    0    0  0.28261385459E+02 -0.29054881573E+02  0.33391446360E+03  0.35887221842E+03  0.12509000000E+03 0.  0.
<mgrwt>
<rscale>  2 0.45211042E+03</rscale>
<asrwt>0</asrwt>
<pdfrwt beam="1">  1       21 0.85544054E-01 0.45211042E+03</pdfrwt>
<pdfrwt beam="2">  1       21 0.12918776E-01 0.45211042E+03</pdfrwt>
<totfact> 0.55849102E+04</totfact>
</mgrwt>
</event>
<event>
 7    0  0.4766352E-002  0.4640827E+03  0.7546771E-02  0.1023604E+00
         21   -1    0    0  502  501  0.00000000000E+00  0.00000000000E+00  0.21138426193E+03  0.21138426193E+03  0.00000000000E+00 0.  1.
         21   -1    0    0  501  502 -0.00000000000E+00 -0.00000000000E+00 -0.25471710028E+03  0.25471710028E+03  0.00000000000E+00 0.  1.
      99926    2    1    2    0    0  0.00000000000E+00  0.00000000000E+00 -0.43332838344E+02  0.46610136221E+03  0.46408269195E+03 0.  0.
      99925    2    3    3    0    0 -0.11337299393E+03 -0.42688745637E+02 -0.17585985170E+02  0.29007246314E+03  0.26297718958E+03 0.  0.
         25    1    3    3    0    0  0.11337299393E+03  0.42688745637E+02 -0.25746853174E+02  0.17602889907E+03  0.12509000000E+03 0.  0.
         25    1    4    4    0    0 -0.26653916070E+02 -0.27566413899E+02 -0.36798866277E+02  0.13591174738E+03  0.12509000000E+03 0.  0.
         25    1    4    4    0    0 -0.86719077865E+02 -0.15122331738E+02  0.19212881107E+02  0.15416071576E+03  0.12509000000E+03 0.  0.
<mgrwt>
<rscale>  2 0.46408269E+03</rscale>
<asrwt>0</asrwt>
<pdfrwt beam="1">  1       21 0.31085921E-01 0.46408269E+03</pdfrwt>
<pdfrwt beam="2">  1       21 0.37458397E-01 0.46408269E+03</pdfrwt>
<totfact> 0.63045912E+04</totfact>
</mgrwt>
</event>
<event>
 7    0  0.4766352E-002  0.4542983E+03  0.7546771E-02  0.1026448E+00
         21   -1    0    0  502  501  0.00000000000E+00  0.00000000000E+00  0.46231630618E+02  0.46231630618E+02  0.00000000000E+00 0.  1.
         21   -1    0    0  501  502 -0.00000000000E+00 -0.00000000000E+00 -0.11160484360E+04  0.11160484360E+04  0.00000000000E+00 0.  1.
      99926    2    1    2    0    0  0.00000000000E+00  0.00000000000E+00 -0.10698168054E+04  0.11622800667E+04  0.45429831189E+03 0.  0.
      99925    2    3    3    0    0 -0.90484137280E+02  0.59817944365E+02 -0.59643805682E+03  0.66078179817E+03  0.26292330365E+03 0.  0.
         25    1    3    3    0    0  0.90484137280E+02 -0.59817944365E+02 -0.47337874860E+03  0.50149826849E+03  0.12509000000E+03 0.  0.
         25    1    4    4    0    0 -0.39587466084E+02  0.60691452441E+02 -0.36847162114E+03  0.39581493599E+03  0.12509000000E+03 0.  0.
         25    1    4    4    0    0 -0.50896671196E+02 -0.87350807612E+00 -0.22796643568E+03  0.26496686218E+03  0.12509000000E+03 0.  0.
<mgrwt>
<rscale>  2 0.45429831E+03</rscale>
<asrwt>0</asrwt>
<pdfrwt beam="1">  1       21 0.67987697E-02 0.45429831E+03</pdfrwt>
<pdfrwt beam="2">  1       21 0.16412476E+00 0.45429831E+03</pdfrwt>
<totfact> 0.33558122E+04</totfact>
</mgrwt>
</event>
<event>
 7    0  0.4766352E-002  0.4558060E+03  0.7546771E-02  0.1026005E+00
         21   -1    0    0  502  501  0.00000000000E+00  0.00000000000E+00  0.41921143006E+03  0.41921143006E+03  0.00000000000E+00 0. -1.
         21   -1    0    0  501  502 -0.00000000000E+00 -0.00000000000E+00 -0.12389878365E+03  0.12389878365E+03  0.00000000000E+00 0. -1.
      99926    2    1    2    0    0 -0.14210854715E-13  0.44408920985E-15  0.29531264641E+03  0.54311021371E+03  0.45580603891E+03 0.  0.
      99925    2    3    3    0    0  0.10393954071E+03 -0.10888735835E+01  0.12984272719E+03  0.31109207641E+03  0.26289642910E+03 0.  0.
         25    1    4    4    0    0  0.20232762472E+02  0.18967680133E+02  0.38045573152E+02  0.13365669195E+03  0.12509000000E+03 0.  0.
         25    1    3    3    0    0 -0.10393954071E+03  0.10888735835E+01  0.16546991922E+03  0.23201813730E+03  0.12509000000E+03 0.  0.
         25    1    4    4    0    0  0.83706778237E+02 -0.20056553717E+02  0.91797154037E+02  0.17743538446E+03  0.12509000000E+03 0.  0.
<mgrwt>
<rscale>  2 0.45580604E+03</rscale>
<asrwt>0</asrwt>
<pdfrwt beam="1">  1       21 0.61648739E-01 0.45580604E+03</pdfrwt>
<pdfrwt beam="2">  1       21 0.18220409E-01 0.45580604E+03</pdfrwt>
<totfact> 0.61928153E+04</totfact>
</mgrwt>
</event>
<event>
 7    0  0.4766352E-002  0.4452800E+03  0.7546771E-02  0.1029139E+00
         21   -1    0    0  502  501  0.00000000000E+00  0.00000000000E+00  0.92261858724E+02  0.92261858724E+02  0.00000000000E+00 0. -1.
         21   -1    0    0  501  502 -0.00000000000E+00 -0.00000000000E+00 -0.53725964360E+03  0.53725964360E+03  0.00000000000E+00 0. -1.
      99926    2    1    2    0    0  0.00000000000E+00  0.00000000000E+00 -0.44499778487E+03  0.62952150232E+03  0.44528001678E+03 0.  0.
      99925    2    3    3    0    0 -0.45833851752E+02 -0.23980497297E+02 -0.15487701688E+03  0.30937563816E+03  0.26277478744E+03 0.  0.
         25    1    4    4    0    0 -0.29635707442E+02 -0.51417274345E+02 -0.73079491479E+02  0.15655711875E+03  0.12509000000E+03 0.  0.
         25    1    4    4    0    0 -0.16198144311E+02  0.27436777048E+02 -0.81797525403E+02  0.15281851941E+03  0.12509000000E+03 0.  0.
         25    1    3    3    0    0  0.45833851752E+02  0.23980497297E+02 -0.29012076799E+03  0.32014586416E+03  0.12509000000E+03 0.  0.
<mgrwt>
<rscale>  2 0.44528002E+03</rscale>
<asrwt>0</asrwt>
<pdfrwt beam="1">  1       21 0.13567921E-01 0.44528002E+03</pdfrwt>
<pdfrwt beam="2">  1       21 0.79008768E-01 0.44528002E+03</pdfrwt>
<totfact> 0.61480022E+04</totfact>
</mgrwt>
</event>
<event>
 7    0  0.4766352E-002  0.4554209E+03  0.7546771E-02  0.1026118E+00
         21   -1    0    0  502  501  0.00000000000E+00  0.00000000000E+00  0.35858840077E+03  0.35858840077E+03  0.00000000000E+00 0.  1.
         21   -1    0    0  501  502 -0.00000000000E+00 -0.00000000000E+00 -0.14460045491E+03  0.14460045491E+03  0.00000000000E+00 0.  1.
      99926    2    1    2    0    0  0.00000000000E+00  0.14210854715E-13  0.21398794586E+03  0.50318885568E+03  0.45542088612E+03 0.  0.
      99925    2    3    3    0    0 -0.35112496265E+02 -0.10606086291E+03  0.11174602818E+03  0.30676403071E+03  0.26293573680E+03 0.  0.
         25    1    3    3    0    0  0.35112496265E+02  0.10606086291E+03  0.10224191767E+03  0.19642482497E+03  0.12509000000E+03 0.  0.
         25    1    4    4    0    0  0.10356056598E+02 -0.24791461454E+02  0.33338766226E+02  0.13221515005E+03  0.12509000000E+03 0.  0.
         25    1    4    4    0    0 -0.45468552863E+02 -0.81269401456E+02  0.78407261955E+02  0.17454888066E+03  0.12509000000E+03 0.  0.
<mgrwt>
<rscale>  2 0.45542089E+03</rscale>
<asrwt>0</asrwt>
<pdfrwt beam="1">  1       21 0.52733588E-01 0.45542089E+03</pdfrwt>
<pdfrwt beam="2">  1       21 0.21264773E-01 0.45542089E+03</pdfrwt>
<totfact> 0.64830353E+04</totfact>
</mgrwt>
</event>
<event>
 7    0  0.4766352E-002  0.4554014E+03  0.7546771E-02  0.1026123E+00
         21   -1    0    0  502  501  0.00000000000E+00  0.00000000000E+00  0.11970002802E+03  0.11970002802E+03  0.00000000000E+00 0. -1.
         21   -1    0    0  501  502 -0.00000000000E+00 -0.00000000000E+00 -0.43314622734E+03  0.43314622734E+03  0.00000000000E+00 0. -1.
      99926    2    1    2    0    0  0.00000000000E+00  0.00000000000E+00 -0.31344619932E+03  0.55284625535E+03  0.45540142972E+03 0.  0.
      99925    2    3    3    0    0  0.64600534834E+02  0.93106400423E+02 -0.20607741746E+03  0.35280227439E+03  0.26298196122E+03 0.  0.
         25    1    4    4    0    0  0.11073765277E+02  0.87006348195E+01 -0.99556354649E+02  0.16049082583E+03  0.12509000000E+03 0.  0.
         25    1    3    3    0    0 -0.64600534834E+02 -0.93106400423E+02 -0.10736878186E+03  0.20004398096E+03  0.12509000000E+03 0.  0.
         25    1    4    4    0    0  0.53526769557E+02  0.84405765604E+02 -0.10652106282E+03  0.19231144857E+03  0.12509000000E+03 0.  0.
<mgrwt>
<rscale>  2 0.45540143E+03</rscale>
<asrwt>0</asrwt>
<pdfrwt beam="1">  1       21 0.17602945E-01 0.45540143E+03</pdfrwt>
<pdfrwt beam="2">  1       21 0.63697975E-01 0.45540143E+03</pdfrwt>
<totfact> 0.61483325E+04</totfact>
</mgrwt>
</event>
<event>
 7    0  0.4766352E-002  0.4555576E+03  0.7546771E-02  0.1026078E+00
         21   -1    0    0  502  501  0.00000000000E+00  0.00000000000E+00  0.88189608207E+03  0.88189608207E+03  0.00000000000E+00 0. -1.
         21   -1    0    0  501  502 -0.00000000000E+00 -0.00000000000E+00 -0.58831391699E+02  0.58831391699E+02  0.00000000000E+00 0. -1.
      99926    2    1    2    0    0 -0.71054273576E-14  0.00000000000E+00  0.82306469037E+03  0.94072747376E+03  0.45555756537E+03 0.  0.
      99925    2    3    3    0    0  0.62270013335E+02 -0.51056715082E+02  0.35195127967E+03  0.44668324846E+03  0.26300547234E+03 0.  0.
         25    1    3    3    0    0 -0.62270013335E+02  0.51056715082E+02  0.47111341070E+03  0.49404422530E+03  0.12509000000E+03 0.  0.
         25    1    4    4    0    0  0.37572565604E+02 -0.47470924720E+02  0.23819843343E+03  0.27577379891E+03  0.12509000000E+03 0.  0.
         25    1    4    4    0    0  0.24697447731E+02 -0.35857903624E+01  0.11375284624E+03  0.17090944955E+03  0.12509000000E+03 0.  0.
<mgrwt>
<rscale>  2 0.45555757E+03</rscale>
<asrwt>0</asrwt>
<pdfrwt beam="1">  1       21 0.12969059E+00 0.45555757E+03</pdfrwt>
<pdfrwt beam="2">  1       21 0.86516758E-02 0.45555757E+03</pdfrwt>
<totfact> 0.41338022E+04</totfact>
</mgrwt>
</event>
<event>
 7    0  0.4766352E-002  0.4543254E+03  0.7546771E-02  0.1026440E+00
         21   -1    0    0  502  501  0.00000000000E+00  0.00000000000E+00  0.51813276534E+02  0.51813276534E+02  0.00000000000E+00 0. -1.
         21   -1    0    0  501  502 -0.00000000000E+00 -0.00000000000E+00 -0.99593935400E+03  0.99593935400E+03  0.00000000000E+00 0. -1.
      99926    2    1    2    0    0  0.00000000000E+00 -0.14210854715E-13 -0.94412607747E+03  0.10477526305E+04  0.45432535108E+03 0.  0.
      99925    2    3    3    0    0  0.17677823318E+02  0.88901350049E+02 -0.44031023730E+03  0.52078596709E+03  0.26292387295E+03 0.  0.
         25    1    3    3    0    0 -0.17677823318E+02 -0.88901350049E+02 -0.50381584017E+03  0.52696666344E+03  0.12509000000E+03 0.  0.
         25    1    4    4    0    0 -0.92529459645E+01  0.81813754694E+02 -0.22734926271E+03  0.27223942187E+03  0.12509000000E+03 0.  0.
         25    1    4    4    0    0  0.26930769282E+02  0.70875953548E+01 -0.21296097459E+03  0.24854654522E+03  0.12509000000E+03 0.  0.
<mgrwt>
<rscale>  2 0.45432535E+03</rscale>
<asrwt>0</asrwt>
<pdfrwt beam="1">  1       21 0.76195999E-02 0.45432535E+03</pdfrwt>
<pdfrwt beam="2">  1       21 0.14646166E+00 0.45432535E+03</pdfrwt>
<totfact> 0.37557343E+04</totfact>
</mgrwt>
</event>
<event>
 7    0  0.4766352E-002  0.4481041E+03  0.7546771E-02  0.1028289E+00
         21   -1    0    0  502  501  0.00000000000E+00  0.00000000000E+00  0.30211985720E+03  0.30211985720E+03  0.00000000000E+00 0. -1.
         21   -1    0    0  501  502 -0.00000000000E+00 -0.00000000000E+00 -0.16615694852E+03  0.16615694852E+03  0.00000000000E+00 0. -1.
      99926    2    1    2    0    0  0.00000000000E+00  0.00000000000E+00  0.13596290868E+03  0.46827680572E+03  0.44810406631E+03 0.  0.
      99925    2    3    3    0    0 -0.63734940849E+02 -0.75088994416E+02  0.43485932555E+02  0.28415728210E+03  0.26297116738E+03 0.  0.
         25    1    4    4    0    0 -0.38324917950E+02 -0.44507150150E+02  0.62249506998E+02  0.15156581070E+03  0.12509000000E+03 0.  0.
         25    1    3    3    0    0  0.63734940849E+02  0.75088994416E+02  0.92476976127E+02  0.18411952363E+03  0.12509000000E+03 0.  0.
         25    1    4    4    0    0 -0.25410022899E+02 -0.30581844266E+02 -0.18763574443E+02  0.13259147140E+03  0.12509000000E+03 0.  0.
<mgrwt>
<rscale>  2 0.44810407E+03</rscale>
<asrwt>0</asrwt>
<pdfrwt beam="1">  1       21 0.44429391E-01 0.44810407E+03</pdfrwt>
<pdfrwt beam="2">  1       21 0.24434845E-01 0.44810407E+03</pdfrwt>
<totfact> 0.71390976E+04</totfact>
</mgrwt>
</event>
<event>
 7    0  0.4766352E-002  0.4530667E+03  0.7546771E-02  0.1026811E+00
         21   -1    0    0  502  501  0.00000000000E+00  0.00000000000E+00  0.13923841759E+03  0.13923841759E+03  0.00000000000E+00 0.  1.
         21   -1    0    0  501  502 -0.00000000000E+00 -0.00000000000E+00 -0.36855753801E+03  0.36855753801E+03  0.00000000000E+00 0.  1.
      99926    2    1    2    0    0  0.00000000000E+00 -0.41078251911E-14 -0.22931912043E+03  0.50779595560E+03  0.45306674291E+03 0.  0.
      99925    2    3    3    0    0  0.10117337163E+03  0.40578902497E+00 -0.19661566289E+03  0.34362153607E+03  0.26302438169E+03 0.  0.
         25    1    3    3    0    0 -0.10117337163E+03 -0.40578902497E+00 -0.32703457533E+02  0.16417441953E+03  0.12509000000E+03 0.  0.
         25    1    4    4    0    0  0.45492889200E+02  0.39190007887E+02 -0.10957436229E+03  0.17680358779E+03  0.12509000000E+03 0.  0.
         25    1    4    4    0    0  0.55680482431E+02 -0.38784218862E+02 -0.87041300604E+02  0.16681794828E+03  0.12509000000E+03 0.  0.
<mgrwt>
<rscale>  2 0.45306674E+03</rscale>
<asrwt>0</asrwt>
<pdfrwt beam="1">  1       21 0.20476238E-01 0.45306674E+03</pdfrwt>
<pdfrwt beam="2">  1       21 0.54199637E-01 0.45306674E+03</pdfrwt>
<totfact> 0.65729098E+04</totfact>
</mgrwt>
</event>
<event>
 7    0  0.4766352E-002  0.4478036E+03  0.7546771E-02  0.1028379E+00
         21   -1    0    0  502  501  0.00000000000E+00  0.00000000000E+00  0.19674805821E+03  0.19674805821E+03  0.00000000000E+00 0.  1.
         21   -1    0    0  501  502 -0.00000000000E+00 -0.00000000000E+00 -0.25480306603E+03  0.25480306603E+03  0.00000000000E+00 0.  1.
      99926    2    1    2    0    0  0.14210854715E-13  0.00000000000E+00 -0.58055007819E+02  0.45155112423E+03  0.44780356616E+03 0.  0.
      99925    2    3    3    0    0 -0.82058631405E+02  0.49893811348E+02  0.93363726127E+01  0.28005151008E+03  0.26290429636E+03 0.  0.
         25    1    4    4    0    0 -0.79586073784E+02  0.32357330287E+02  0.20909762348E+02  0.15318507181E+03  0.12509000000E+03 0.  0.
         25    1    4    4    0    0 -0.24725576218E+01  0.17536481061E+02 -0.11573389735E+02  0.12686643827E+03  0.12509000000E+03 0.  0.
         25    1    3    3    0    0  0.82058631405E+02 -0.49893811348E+02 -0.67391380432E+02  0.17149961416E+03  0.12509000000E+03 0.  0.
<mgrwt>
<rscale>  2 0.44780357E+03</rscale>
<asrwt>0</asrwt>
<pdfrwt beam="1">  1       21 0.28933538E-01 0.44780357E+03</pdfrwt>
<pdfrwt beam="2">  1       21 0.37471039E-01 0.44780357E+03</pdfrwt>
<totfact> 0.72895236E+04</totfact>
</mgrwt>
</event>
<event>
 7    0  0.4766352E-002  0.4570109E+03  0.7546771E-02  0.1025652E+00
         21   -1    0    0  502  501  0.00000000000E+00  0.00000000000E+00  0.18742565571E+04  0.18742565571E+04  0.00000000000E+00 0. -1.
         21   -1    0    0  501  502 -0.00000000000E+00 -0.00000000000E+00 -0.27858906875E+02  0.27858906875E+02  0.00000000000E+00 0. -1.
      99926    2    1    2    0    0  0.00000000000E+00 -0.71054273576E-14  0.18463976502E+04  0.19021154640E+04  0.45701089214E+03 0.  0.
      99925    2    3    3    0    0 -0.94372711046E+02  0.50934443427E+02  0.98355680745E+03  0.10236837056E+04  0.26276188736E+03 0.  0.
         25    1    3    3    0    0  0.94372711046E+02 -0.50934443427E+02  0.86284084280E+03  0.87843175843E+03  0.12509000000E+03 0.  0.
         25    1    4    4    0    0 -0.41185225621E+02 -0.12257777735E+02  0.51623212542E+03  0.53290673793E+03  0.12509000000E+03 0.  0.
         25    1    4    4    0    0 -0.53187485425E+02  0.63192221162E+02  0.46732468203E+03  0.49077696763E+03  0.12509000000E+03 0.  0.
<mgrwt>
<rscale>  2 0.45701089E+03</rscale>
<asrwt>0</asrwt>
<pdfrwt beam="1">  1       21 0.27562588E+00 0.45701089E+03</pdfrwt>
<pdfrwt beam="2">  1       21 0.40968993E-02 0.45701089E+03</pdfrwt>
<totfact> 0.15136804E+04</totfact>
</mgrwt>
</event>
<event>
 7    0  0.4766352E-002  0.4401610E+03  0.7546771E-02  0.1030697E+00
         21   -1    0    0  502  501  0.00000000000E+00  0.00000000000E+00  0.29375422448E+03  0.29375422448E+03  0.00000000000E+00 0. -1.
         21   -1    0    0  501  502 -0.00000000000E+00 -0.00000000000E+00 -0.16488422163E+03  0.16488422163E+03  0.00000000000E+00 0. -1.
      99926    2    1    2    0    0  0.00000000000E+00  0.00000000000E+00  0.12887000285E+03  0.45863844610E+03  0.44016104622E+03 0.  0.
      99925    2    3    3    0    0 -0.50329789011E+02 -0.31716578453E+02  0.12633109663E+00  0.26953141258E+03  0.26288426617E+03 0.  0.
         25    1    4    4    0    0 -0.43460254947E+02  0.21182897501E+01 -0.31134643260E+02  0.13605203057E+03  0.12509000000E+03 0.  0.
         25    1    4    4    0    0 -0.68695340645E+01 -0.33834868203E+02  0.31260974356E+02  0.13347938201E+03  0.12509000000E+03 0.  0.
         25    1    3    3    0    0  0.50329789011E+02  0.31716578453E+02  0.12874367175E+03  0.18910703352E+03  0.12509000000E+03 0.  0.
<mgrwt>
<rscale>  2 0.44016105E+03</rscale>
<asrwt>0</asrwt>
<pdfrwt beam="1">  1       21 0.43199151E-01 0.44016105E+03</pdfrwt>
<pdfrwt beam="2">  1       21 0.24247680E-01 0.44016105E+03</pdfrwt>
<totfact> 0.76958351E+04</totfact>
</mgrwt>
</event>
<event>
 7    0  0.4766352E-002  0.4553562E+03  0.7546771E-02  0.1026137E+00
         21   -1    0    0  502  501  0.00000000000E+00  0.00000000000E+00  0.79191205968E+03  0.79191205968E+03  0.00000000000E+00 0.  1.
         21   -1    0    0  501  502 -0.00000000000E+00 -0.00000000000E+00 -0.65458435448E+02  0.65458435448E+02  0.00000000000E+00 0.  1.
      99926    2    1    2    0    0  0.00000000000E+00  0.00000000000E+00  0.72645362423E+03  0.85737049513E+03  0.45535623171E+03 0.  0.
      99925    2    3    3    0    0 -0.41636260806E+02 -0.33989330562E+02  0.26870942595E+03  0.37980781655E+03  0.26298359096E+03 0.  0.
         25    1    4    4    0    0 -0.15990030899E+01 -0.28286177519E+02  0.84856749949E+02  0.15378829852E+03  0.12509000000E+03 0.  0.
         25    1    3    3    0    0  0.41636260806E+02  0.33989330562E+02  0.45774419828E+03  0.47756267857E+03  0.12509000000E+03 0.  0.
         25    1    4    4    0    0 -0.40037257716E+02 -0.57031530432E+01  0.18385267600E+03  0.22601951804E+03  0.12509000000E+03 0.  0.
<mgrwt>
<rscale>  2 0.45535623E+03</rscale>
<asrwt>0</asrwt>
<pdfrwt beam="1">  1       21 0.11645765E+00 0.45535623E+03</pdfrwt>
<pdfrwt beam="2">  1       21 0.96262410E-02 0.45535623E+03</pdfrwt>
<totfact> 0.44985603E+04</totfact>
</mgrwt>
</event>
<event>
 7    0  0.4766352E-002  0.4524393E+03  0.7546771E-02  0.1026997E+00
         21   -1    0    0  502  501  0.00000000000E+00  0.00000000000E+00  0.24259956503E+03  0.24259956503E+03  0.00000000000E+00 0. -1.
         21   -1    0    0  501  502 -0.00000000000E+00 -0.00000000000E+00 -0.21094570582E+03  0.21094570582E+03  0.00000000000E+00 0. -1.
      99926    2    1    2    0    0  0.00000000000E+00  0.00000000000E+00  0.31653859203E+02  0.45354527085E+03  0.45243932843E+03 0.  0.
      99925    2    3    3    0    0 -0.13911269381E+02 -0.10735493792E+03  0.42914426650E+02  0.28773539602E+03  0.26311861203E+03 0.  0.
         25    1    3    3    0    0  0.13911269381E+02  0.10735493792E+03 -0.11260567448E+02  0.16580987483E+03  0.12509000000E+03 0.  0.
         25    1    4    4    0    0  0.19804543370E+02 -0.32834213166E+02  0.44720157930E+02  0.13826679326E+03  0.12509000000E+03 0.  0.
         25    1    4    4    0    0 -0.33715812752E+02 -0.74520724750E+02 -0.18057312798E+01  0.14946860276E+03  0.12509000000E+03 0.  0.
<mgrwt>
<rscale>  2 0.45243933E+03</rscale>
<asrwt>0</asrwt>
<pdfrwt beam="1">  1       21 0.35676407E-01 0.45243933E+03</pdfrwt>
<pdfrwt beam="2">  1       21 0.31021427E-01 0.45243933E+03</pdfrwt>
<totfact> 0.70073293E+04</totfact>
</mgrwt>
</event>
<event>
 7    0  0.4766352E-002  0.4499704E+03  0.7546771E-02  0.1027731E+00
         21   -1    0    0  502  501  0.00000000000E+00  0.00000000000E+00  0.27920067480E+03  0.27920067480E+03  0.00000000000E+00 0.  1.
         21   -1    0    0  501  502 -0.00000000000E+00 -0.00000000000E+00 -0.18129737933E+03  0.18129737933E+03  0.00000000000E+00 0.  1.
      99926    2    1    2    0    0  0.00000000000E+00  0.00000000000E+00  0.97903295469E+02  0.46049805414E+03  0.44997044636E+03 0.  0.
      99925    2    3    3    0    0 -0.30344057211E+02 -0.15190227649E+02 -0.43458430955E+02  0.26871132201E+03  0.26299360169E+03 0.  0.
         25    1    4    4    0    0 -0.30633326310E+02  0.12069970971E+02  0.10505874542E+02  0.12977660182E+03  0.12509000000E+03 0.  0.
         25    1    4    4    0    0  0.28926909893E+00 -0.27260198620E+02 -0.53964305497E+02  0.13893472019E+03  0.12509000000E+03 0.  0.
         25    1    3    3    0    0  0.30344057211E+02  0.15190227649E+02  0.14136172642E+03  0.19178673213E+03  0.12509000000E+03 0.  0.
<mgrwt>
<rscale>  2 0.44997045E+03</rscale>
<asrwt>0</asrwt>
<pdfrwt beam="1">  1       21 0.41058923E-01 0.44997045E+03</pdfrwt>
<pdfrwt beam="2">  1       21 0.26661379E-01 0.44997045E+03</pdfrwt>
<totfact> 0.70937543E+04</totfact>
</mgrwt>
</event>
<event>
 7    0  0.4766352E-002  0.4355472E+03  0.7546771E-02  0.1032122E+00
         21   -1    0    0  502  501  0.00000000000E+00  0.00000000000E+00  0.16382842275E+03  0.16382842275E+03  0.00000000000E+00 0.  1.
         21   -1    0    0  501  502 -0.00000000000E+00 -0.00000000000E+00 -0.28948172643E+03  0.28948172643E+03  0.00000000000E+00 0.  1.
      99926    2    1    2    0    0  0.00000000000E+00  0.71054273576E-14 -0.12565330368E+03  0.45331014918E+03  0.43554717153E+03 0.  0.
      99925    2    3    3    0    0 -0.69860995113E+02  0.60672687483E+02 -0.64470914691E+02  0.28612005837E+03  0.26295713589E+03 0.  0.
         25    1    4    4    0    0 -0.66926117435E+02  0.23925736791E+02 -0.59286283700E+02  0.15560821833E+03  0.12509000000E+03 0.  0.
         25    1    3    3    0    0  0.69860995113E+02 -0.60672687483E+02 -0.61182388989E+02  0.16719009082E+03  0.12509000000E+03 0.  0.
         25    1    4    4    0    0 -0.29348776785E+01  0.36746950692E+02 -0.51846309913E+01  0.13051184004E+03  0.12509000000E+03 0.  0.
<mgrwt>
<rscale>  2 0.43554717E+03</rscale>
<asrwt>0</asrwt>
<pdfrwt beam="1">  1       21 0.24092415E-01 0.43554717E+03</pdfrwt>
<pdfrwt beam="2">  1       21 0.42570842E-01 0.43554717E+03</pdfrwt>
<totfact> 0.80407248E+04</totfact>
</mgrwt>
</event>
<event>
 7    0  0.4766352E-002  0.4535079E+03  0.7546771E-02  0.1026681E+00
         21   -1    0    0  502  501  0.00000000000E+00  0.00000000000E+00  0.28663157940E+02  0.28663157940E+02  0.00000000000E+00 0.  1.
         21   -1    0    0  501  502 -0.00000000000E+00 -0.00000000000E+00 -0.17938479739E+04  0.17938479739E+04  0.00000000000E+00 0.  1.
      99926    2    1    2    0    0  0.35527136788E-14  0.00000000000E+00 -0.17651848160E+04  0.18225111318E+04  0.45350787334E+03 0.  0.
      99925    2    3    3    0    0 -0.24977283098E+02 -0.94988749277E+02 -0.89670610718E+03  0.93959012582E+03  0.26287075670E+03 0.  0.
         25    1    4    4    0    0 -0.21425726401E+02 -0.86628587877E+02 -0.54215654067E+03  0.56351113271E+03  0.12509000000E+03 0.  0.
         25    1    3    3    0    0  0.24977283098E+02  0.94988749277E+02 -0.86847870878E+03  0.88292100602E+03  0.12509000000E+03 0.  0.
         25    1    4    4    0    0 -0.35515566967E+01 -0.83601614003E+01 -0.35454956650E+03  0.37607899311E+03  0.12509000000E+03 0.  0.
<mgrwt>
<rscale>  2 0.45350787E+03</rscale>
<asrwt>0</asrwt>
<pdfrwt beam="1">  1       21 0.42151716E-02 0.45350787E+03</pdfrwt>
<pdfrwt beam="2">  1       21 0.26380109E+00 0.45350787E+03</pdfrwt>
<totfact> 0.17027293E+04</totfact>
</mgrwt>
</event>
<event>
 7    0  0.4766352E-002  0.4581096E+03  0.7546771E-02  0.1025331E+00
         21   -1    0    0  502  501  0.00000000000E+00  0.00000000000E+00  0.49399746851E+03  0.49399746851E+03  0.00000000000E+00 0. -1.
         21   -1    0    0  501  502 -0.00000000000E+00 -0.00000000000E+00 -0.10620722666E+03  0.10620722666E+03  0.00000000000E+00 0. -1.
      99926    2    1    2    0    0  0.00000000000E+00  0.00000000000E+00  0.38779024185E+03  0.60020469517E+03  0.45810959870E+03 0.  0.
      99925    2    3    3    0    0 -0.22293217386E+01  0.18338215874E+02  0.92492002121E+02  0.27897297425E+03  0.26254502446E+03 0.  0.
         25    1    4    4    0    0 -0.78181563723E+00  0.45348146108E+02  0.64939032267E+02  0.14805962178E+03  0.12509000000E+03 0.  0.
         25    1    3    3    0    0  0.22293217386E+01 -0.18338215874E+02  0.29529823973E+03  0.32123172092E+03  0.12509000000E+03 0.  0.
         25    1    4    4    0    0 -0.14475061014E+01 -0.27009930234E+02  0.27552969854E+02  0.13091335246E+03  0.12509000000E+03 0.  0.
<mgrwt>
<rscale>  2 0.45810960E+03</rscale>
<asrwt>0</asrwt>
<pdfrwt beam="1">  1       21 0.72646686E-01 0.45810960E+03</pdfrwt>
<pdfrwt beam="2">  1       21 0.15618710E-01 0.45810960E+03</pdfrwt>
<totfact> 0.57246116E+04</totfact>
</mgrwt>
</event>
<event>
 7    0  0.4766352E-002  0.4604126E+03  0.7546771E-02  0.1024662E+00
         21   -1    0    0  502  501  0.00000000000E+00  0.00000000000E+00  0.19675959422E+04  0.19675959422E+04  0.00000000000E+00 0. -1.
         21   -1    0    0  501  502 -0.00000000000E+00 -0.00000000000E+00 -0.26933851989E+02  0.26933851989E+02  0.00000000000E+00 0. -1.
      99926    2    1    2    0    0  0.35527136788E-14  0.00000000000E+00  0.19406620902E+04  0.19945297942E+04  0.46041258836E+03 0.  0.
      99925    2    3    3    0    0 -0.17011822565E+02  0.41925141178E+02  0.16881662032E+04  0.17091374316E+04  0.26305609837E+03 0.  0.
         25    1    4    4    0    0  0.53535329397E+01  0.39898096122E+02  0.10702420714E+04  0.10782792393E+04  0.12509000000E+03 0.  0.
         25    1    4    4    0    0 -0.22365355505E+02  0.20270450564E+01  0.61792413174E+03  0.63085819225E+03  0.12509000000E+03 0.  0.
         25    1    3    3    0    0  0.17011822565E+02 -0.41925141178E+02  0.25249588703E+03  0.28539236261E+03  0.12509000000E+03 0.  0.
<mgrwt>
<rscale>  2 0.46041259E+03</rscale>
<asrwt>0</asrwt>
<pdfrwt beam="1">  1       21 0.28935225E+00 0.46041259E+03</pdfrwt>
<pdfrwt beam="2">  1       21 0.39608619E-02 0.46041259E+03</pdfrwt>
<totfact> 0.13234426E+04</totfact>
</mgrwt>
</event>
<event>
 7    0  0.4766352E-002  0.4512557E+03  0.7546771E-02  0.1027348E+00
         21   -1    0    0  502  501  0.00000000000E+00  0.00000000000E+00  0.37966576729E+03  0.37966576729E+03  0.00000000000E+00 0.  1.
         21   -1    0    0  501  502 -0.00000000000E+00 -0.00000000000E+00 -0.13408615060E+03  0.13408615060E+03  0.00000000000E+00 0.  1.
      99926    2    1    2    0    0  0.00000000000E+00  0.00000000000E+00  0.24557961669E+03  0.51375191789E+03  0.45125567587E+03 0.  0.
      99925    2    3    3    0    0 -0.18197126264E+02  0.84462779349E+02  0.77563992914E+02  0.28716450775E+03  0.26264459830E+03 0.  0.
         25    1    4    4    0    0  0.27979351792E+02  0.25497434732E+02  0.36117313429E+02  0.13559104592E+03  0.12509000000E+03 0.  0.
         25    1    3    3    0    0  0.18197126264E+02 -0.84462779349E+02  0.16801562378E+03  0.22658741014E+03  0.12509000000E+03 0.  0.
         25    1    4    4    0    0 -0.46176478056E+02  0.58965344617E+02  0.41446679485E+02  0.15157346183E+03  0.12509000000E+03 0.  0.
<mgrwt>
<rscale>  2 0.45125568E+03</rscale>
<asrwt>0</asrwt>
<pdfrwt beam="1">  1       21 0.55833201E-01 0.45125568E+03</pdfrwt>
<pdfrwt beam="2">  1       21 0.19718552E-01 0.45125568E+03</pdfrwt>
<totfact> 0.66261855E+04</totfact>
</mgrwt>
</event>
<event>
 7    0  0.4766352E-002  0.4508180E+03  0.7546771E-02  0.1027478E+00
         21   -1    0    0  502  501  0.00000000000E+00  0.00000000000E+00  0.18851552695E+04  0.18851552695E+04  0.00000000000E+00 0.  1.
         21   -1    0    0  501  502 -0.00000000000E+00 -0.00000000000E+00 -0.26952269632E+02  0.26952269632E+02  0.00000000000E+00 0.  1.
      99926    2    1    2    0    0  0.71054273576E-14  0.00000000000E+00  0.18582029999E+04  0.19121075392E+04  0.45081798155E+03 0.  0.
      99925    2    3    3    0    0 -0.56834111313E+02  0.54349009555E+02  0.85240241022E+03  0.89551211061E+03  0.26299836551E+03 0.  0.
         25    1    3    3    0    0  0.56834111313E+02 -0.54349009555E+02  0.10058005897E+04  0.10165954285E+04  0.12509000000E+03 0.  0.
         25    1    4    4    0    0  0.33854265089E+00  0.20024597968E+02  0.49678292506E+03  0.51268107227E+03  0.12509000000E+03 0.  0.
         25    1    4    4    0    0 -0.57172653964E+02  0.34324411587E+02  0.35561948516E+03  0.38283103834E+03  0.12509000000E+03 0.  0.
<mgrwt>
<rscale>  2 0.45081798E+03</rscale>
<asrwt>0</asrwt>
<pdfrwt beam="1">  1       21 0.27722863E+00 0.45081798E+03</pdfrwt>
<pdfrwt beam="2">  1       21 0.39635704E-02 0.45081798E+03</pdfrwt>
<totfact> 0.15701723E+04</totfact>
</mgrwt>
</event>
<event>
 7    0  0.4766352E-002  0.4536811E+03  0.7546771E-02  0.1026630E+00
         21   -1    0    0  502  501  0.00000000000E+00  0.00000000000E+00  0.13507794910E+03  0.13507794910E+03  0.00000000000E+00 0. -1.
         21   -1    0    0  501  502 -0.00000000000E+00 -0.00000000000E+00 -0.38094026715E+03  0.38094026715E+03  0.00000000000E+00 0. -1.
      99926    2    1    2    0    0 -0.14210854715E-13 -0.71054273576E-14 -0.24586231805E+03  0.51601821625E+03  0.45368107748E+03 0.  0.
      99925    2    3    3    0    0 -0.10235182262E+03 -0.45121480994E+02 -0.15557193921E+03  0.32546191420E+03  0.26307980858E+03 0.  0.
         25    1    4    4    0    0 -0.18245283854E+02 -0.15896875437E+02 -0.10073160645E+03  0.16241910500E+03  0.12509000000E+03 0.  0.
         25    1    3    3    0    0  0.10235182262E+03  0.45121480994E+02 -0.90290378837E+02  0.19055630205E+03  0.12509000000E+03 0.  0.
         25    1    4    4    0    0 -0.84106538767E+02 -0.29224605557E+02 -0.54840332764E+02  0.16304280920E+03  0.12509000000E+03 0.  0.
<mgrwt>
<rscale>  2 0.45368108E+03</rscale>
<asrwt>0</asrwt>
<pdfrwt beam="1">  1       21 0.19864404E-01 0.45368108E+03</pdfrwt>
<pdfrwt beam="2">  1       21 0.56020628E-01 0.45368108E+03</pdfrwt>
<totfact> 0.64835224E+04</totfact>
</mgrwt>
</event>
<event>
 7    0  0.4766352E-002  0.4612483E+03  0.7546771E-02  0.1024420E+00
         21   -1    0    0  502  501  0.00000000000E+00  0.00000000000E+00  0.42044904069E+02  0.42044904069E+02  0.00000000000E+00 0.  1.
         21   -1    0    0  501  502 -0.00000000000E+00 -0.00000000000E+00 -0.12650166135E+04  0.12650166135E+04  0.00000000000E+00 0.  1.
      99926    2    1    2    0    0  0.00000000000E+00  0.44408920985E-15 -0.12229717094E+04  0.13070615176E+04  0.46124831559E+03 0.  0.
      99925    2    3    3    0    0  0.11464567194E+03  0.35503896746E+01 -0.67779996728E+03  0.73608343401E+03  0.26315354989E+03 0.  0.
         25    1    3    3    0    0 -0.11464567194E+03 -0.35503896746E+01 -0.54517174214E+03  0.57097808354E+03  0.12509000000E+03 0.  0.
         25    1    4    4    0    0  0.93153786014E+02 -0.14261490610E+01 -0.31113549568E+03  0.34804089777E+03  0.12509000000E+03 0.  0.
         25    1    4    4    0    0  0.21491885922E+02  0.49765387356E+01 -0.36666447159E+03  0.38804253623E+03  0.12509000000E+03 0.  0.
<mgrwt>
<rscale>  2 0.46124832E+03</rscale>
<asrwt>0</asrwt>
<pdfrwt beam="1">  1       21 0.61830746E-02 0.46124832E+03</pdfrwt>
<pdfrwt beam="2">  1       21 0.18603184E+00 0.46124832E+03</pdfrwt>
<totfact> 0.27547019E+04</totfact>
</mgrwt>
</event>
<event>
 6    0  0.4766352E-002  0.4534897E+03  0.7546771E-02  0.1026686E+00
         21   -1    0    0  502  501  0.00000000000E+00  0.00000000000E+00  0.78962026889E+02  0.78962026889E+02  0.00000000000E+00 0. -1.
         21   -1    0    0  501  502 -0.00000000000E+00 -0.00000000000E+00 -0.65111325655E+03  0.65111325655E+03  0.00000000000E+00 0. -1.
      99926    2    1    2    0    0  0.00000000000E+00  0.00000000000E+00 -0.57215122966E+03  0.73007528344E+03  0.45348968002E+03 0.  0.
         25    1    3    3    0    0 -0.20763294557E+02  0.21073085758E+01 -0.21677477052E+03  0.25114610167E+03  0.12509000000E+03 0.  0.
         25    1    3    3    0    0 -0.85246734381E+02 -0.23911587541E+02 -0.14181853099E+03  0.20880319340E+03  0.12509000000E+03 0.  0.
         25    1    3    3    0    0  0.10601002894E+03  0.21804278965E+02 -0.21355792815E+03  0.27012598837E+03  0.12509000000E+03 0.  0.
<mgrwt>
<rscale>  2 0.45348968E+03</rscale>
<asrwt>0</asrwt>
<pdfrwt beam="1">  1       21 0.11612063E-01 0.45348968E+03</pdfrwt>
<pdfrwt beam="2">  1       21 0.95751947E-01 0.45348968E+03</pdfrwt>
<totfact> 0.51914144E+04</totfact>
</mgrwt>
</event>
<event>
 7    0  0.4766352E-002  0.4538402E+03  0.7546771E-02  0.1026583E+00
         21   -1    0    0  502  501  0.00000000000E+00  0.00000000000E+00  0.44228895474E+03  0.44228895474E+03  0.00000000000E+00 0. -1.
         21   -1    0    0  501  502 -0.00000000000E+00 -0.00000000000E+00 -0.11642326838E+03  0.11642326838E+03  0.00000000000E+00 0. -1.
      99926    2    1    2    0    0  0.00000000000E+00  0.00000000000E+00  0.32586568636E+03  0.55871222312E+03  0.45384017310E+03 0.  0.
      99925    2    3    3    0    0  0.10420293306E+03 -0.41264550784E+02  0.21074245687E+03  0.35509031743E+03  0.26289871813E+03 0.  0.
         25    1    4    4    0    0  0.22262604170E+02 -0.90911690277E+01  0.13049126687E+03  0.18235611240E+03  0.12509000000E+03 0.  0.
         25    1    3    3    0    0 -0.10420293306E+03  0.41264550784E+02  0.11512322949E+03  0.20362190569E+03  0.12509000000E+03 0.  0.
         25    1    4    4    0    0  0.81940328888E+02 -0.32173381757E+02  0.80251190004E+02  0.17273420503E+03  0.12509000000E+03 0.  0.
<mgrwt>
<rscale>  2 0.45384017E+03</rscale>
<asrwt>0</asrwt>
<pdfrwt beam="1">  1       21 0.65042493E-01 0.45384017E+03</pdfrwt>
<pdfrwt beam="2">  1       21 0.17121069E-01 0.45384017E+03</pdfrwt>
<totfact> 0.61860023E+04</totfact>
</mgrwt>
</event>
<event>
 7    0  0.4766352E-002  0.4495175E+03  0.7546771E-02  0.1027866E+00
         21   -1    0    0  502  501  0.00000000000E+00  0.00000000000E+00  0.67957082981E+03  0.67957082981E+03  0.00000000000E+00 0. -1.
         21   -1    0    0  501  502 -0.00000000000E+00 -0.00000000000E+00 -0.74335896304E+02  0.74335896304E+02  0.00000000000E+00 0. -1.
      99926    2    1    2    0    0  0.00000000000E+00  0.26645352591E-14  0.60523493350E+03  0.75390672611E+03  0.44951754909E+03 0.  0.
      99925    2    3    3    0    0  0.92957322067E+02 -0.48471605744E+01  0.47426616701E+03  0.55027744386E+03  0.26308232431E+03 0.  0.
         25    1    4    4    0    0  0.22320624354E+02  0.16934419877E+02  0.16825723532E+03  0.21152538898E+03  0.12509000000E+03 0.  0.
         25    1    3    3    0    0 -0.92957322067E+02  0.48471605744E+01  0.13096876650E+03  0.20362928225E+03  0.12509000000E+03 0.  0.
         25    1    4    4    0    0  0.70636697712E+02 -0.21781580451E+02  0.30600893169E+03  0.33875205488E+03  0.12509000000E+03 0.  0.
<mgrwt>
<rscale>  2 0.44951755E+03</rscale>
<asrwt>0</asrwt>
<pdfrwt beam="1">  1       21 0.99936883E-01 0.44951755E+03</pdfrwt>
<pdfrwt beam="2">  1       21 0.10931750E-01 0.44951755E+03</pdfrwt>
<totfact> 0.52288685E+04</totfact>
</mgrwt>
</event>
<event>
 7    0  0.4766352E-002  0.4428057E+03  0.7546771E-02  0.1029889E+00
         21   -1    0    0  502  501  0.00000000000E+00  0.00000000000E+00  0.79632736871E+02  0.79632736871E+02  0.00000000000E+00 0.  1.
         21   -1    0    0  501  502 -0.00000000000E+00 -0.00000000000E+00 -0.61556622611E+03  0.61556622611E+03  0.00000000000E+00 0.  1.
      99926    2    1    2    0    0  0.00000000000E+00  0.00000000000E+00 -0.53593348924E+03  0.69519896298E+03  0.44280570597E+03 0.  0.
      99925    2    3    3    0    0  0.70524884573E+02 -0.17815620478E+02 -0.23030117454E+03  0.35704252645E+03  0.26296307540E+03 0.  0.
         25    1    4    4    0    0  0.70963268799E+02 -0.14762539640E+02 -0.96334931900E+02  0.17372865423E+03  0.12509000000E+03 0.  0.
         25    1    4    4    0    0 -0.43838422553E+00 -0.30530808387E+01 -0.13396624264E+03  0.18331387223E+03  0.12509000000E+03 0.  0.
         25    1    3    3    0    0 -0.70524884573E+02  0.17815620478E+02 -0.30563231470E+03  0.33815643652E+03  0.12509000000E+03 0.  0.
<mgrwt>
<rscale>  2 0.44280571E+03</rscale>
<asrwt>0</asrwt>
<pdfrwt beam="1">  1       21 0.11710697E-01 0.44280571E+03</pdfrwt>
<pdfrwt beam="2">  1       21 0.90524442E-01 0.44280571E+03</pdfrwt>
<totfact> 0.58588297E+04</totfact>
</mgrwt>
</event>
<event>
 7    0  0.4766352E-002  0.4241723E+03  0.7546771E-02  0.1035717E+00
         21   -1    0    0  502  501  0.00000000000E+00  0.00000000000E+00  0.13890495205E+03  0.13890495205E+03  0.00000000000E+00 0. -1.
         21   -1    0    0  501  502 -0.00000000000E+00 -0.00000000000E+00 -0.32382237884E+03  0.32382237884E+03  0.00000000000E+00 0. -1.
      99926    2    1    2    0    0  0.35527136788E-14  0.00000000000E+00 -0.18491742679E+03  0.46272733090E+03  0.42417228579E+03 0.  0.
      99925    2    3    3    0    0  0.30986038384E+02 -0.73161252809E+02 -0.13705513746E+03  0.30699997194E+03  0.26296799916E+03 0.  0.
         25    1    4    4    0    0  0.38127295705E+02 -0.62436550966E+01 -0.48514057012E+02  0.13962018384E+03  0.12509000000E+03 0.  0.
         25    1    4    4    0    0 -0.71412573202E+01 -0.66917597712E+02 -0.88541080447E+02  0.16737978811E+03  0.12509000000E+03 0.  0.
         25    1    3    3    0    0 -0.30986038384E+02  0.73161252809E+02 -0.47862289328E+02  0.15572735895E+03  0.12509000000E+03 0.  0.
<mgrwt>
<rscale>  2 0.42417229E+03</rscale>
<asrwt>0</asrwt>
<pdfrwt beam="1">  1       21 0.20427199E-01 0.42417229E+03</pdfrwt>
<pdfrwt beam="2">  1       21 0.47620937E-01 0.42417229E+03</pdfrwt>
<totfact> 0.87510874E+04</totfact>
</mgrwt>
</event>
<event>
 7    0  0.4766352E-002  0.4449155E+03  0.7546771E-02  0.1029249E+00
         21   -1    0    0  502  501  0.00000000000E+00  0.00000000000E+00  0.35888580128E+03  0.35888580128E+03  0.00000000000E+00 0.  1.
         21   -1    0    0  501  502 -0.00000000000E+00 -0.00000000000E+00 -0.13789189335E+03  0.13789189335E+03  0.00000000000E+00 0.  1.
      99926    2    1    2    0    0  0.35527136788E-14  0.00000000000E+00  0.22099390793E+03  0.49677769462E+03  0.44491546448E+03 0.  0.
      99925    2    3    3    0    0 -0.15584020297E+02  0.10176670066E+03  0.15037339432E+03  0.32004601073E+03  0.26309307898E+03 0.  0.
         25    1    4    4    0    0 -0.37650196375E+02  0.40829882567E+02  0.44850555452E+02  0.14402672329E+03  0.12509000000E+03 0.  0.
         25    1    4    4    0    0  0.22066176078E+02  0.60936818092E+02  0.10552283887E+03  0.17601928743E+03  0.12509000000E+03 0.  0.
         25    1    3    3    0    0  0.15584020297E+02 -0.10176670066E+03  0.70620513605E+02  0.17673168390E+03  0.12509000000E+03 0.  0.
<mgrwt>
<rscale>  2 0.44491546E+03</rscale>
<asrwt>0</asrwt>
<pdfrwt beam="1">  1       21 0.52777324E-01 0.44491546E+03</pdfrwt>
<pdfrwt beam="2">  1       21 0.20278220E-01 0.44491546E+03</pdfrwt>
<totfact> 0.71014158E+04</totfact>
</mgrwt>
</event>
<event>
 7    0  0.4766352E-002  0.4588921E+03  0.7546771E-02  0.1025103E+00
         21   -1    0    0  502  501  0.00000000000E+00  0.00000000000E+00  0.12865431320E+03  0.12865431320E+03  0.00000000000E+00 0.  1.
         21   -1    0    0  501  502 -0.00000000000E+00 -0.00000000000E+00 -0.40920106590E+03  0.40920106590E+03  0.00000000000E+00 0.  1.
      99926    2    1    2    0    0  0.14210854715E-13  0.35527136788E-14 -0.28054675270E+03  0.53785537910E+03  0.45889206615E+03 0.  0.
      99925    2    3    3    0    0 -0.10822867618E+03  0.28221348302E+02 -0.13606016312E+03  0.31641966943E+03  0.26286716867E+03 0.  0.
         25    1    4    4    0    0 -0.33476998853E+02 -0.95757067291E+01 -0.32989239497E+02  0.13397089846E+03  0.12509000000E+03 0.  0.
         25    1    3    3    0    0  0.10822867618E+03 -0.28221348302E+02 -0.14448658958E+03  0.22143570967E+03  0.12509000000E+03 0.  0.
         25    1    4    4    0    0 -0.74751677332E+02  0.37797055031E+02 -0.10307092362E+03  0.18244877097E+03  0.12509000000E+03 0.  0.
<mgrwt>
<rscale>  2 0.45889207E+03</rscale>
<asrwt>0</asrwt>
<pdfrwt beam="1">  1       21 0.18919752E-01 0.45889207E+03</pdfrwt>
<pdfrwt beam="2">  1       21 0.60176627E-01 0.45889207E+03</pdfrwt>
<totfact> 0.60781298E+04</totfact>
</mgrwt>
</event>
<event>
 7    0  0.4766352E-002  0.4122636E+03  0.7546771E-02  0.1039614E+00
         21   -1    0    0  502  501  0.00000000000E+00  0.00000000000E+00  0.86198314215E+02  0.86198314215E+02  0.00000000000E+00 0.  1.
         21   -1    0    0  501  502 -0.00000000000E+00 -0.00000000000E+00 -0.49293684793E+03  0.49293684793E+03  0.00000000000E+00 0.  1.
      99926    2    1    2    0    0  0.00000000000E+00  0.00000000000E+00 -0.40673853371E+03  0.57913516214E+03  0.41226363073E+03 0.  0.
      99925    2    3    3    0    0  0.31973733188E+02 -0.21293596588E+02 -0.19279287694E+03  0.32834443460E+03  0.26299284679E+03 0.  0.
         25    1    4    4    0    0  0.36520446002E+02 -0.37170783479E+02 -0.12843117590E+03  0.18670159390E+03  0.12509000000E+03 0.  0.
         25    1    3    3    0    0 -0.31973733188E+02  0.21293596588E+02 -0.21394565677E+03  0.25079072754E+03  0.12509000000E+03 0.  0.
         25    1    4    4    0    0 -0.45467128144E+01  0.15877186891E+02 -0.64361701036E+02  0.14164284070E+03  0.12509000000E+03 0.  0.
<mgrwt>
<rscale>  2 0.41226363E+03</rscale>
<asrwt>0</asrwt>
<pdfrwt beam="1">  1       21 0.12676223E-01 0.41226363E+03</pdfrwt>
<pdfrwt beam="2">  1       21 0.72490713E-01 0.41226363E+03</pdfrwt>
<totfact> 0.85365902E+04</totfact>
</mgrwt>
</event>
<event>
 7    0  0.4766352E-002  0.4208140E+03  0.7546771E-02  0.1036802E+00
         21   -1    0    0  502  501  0.00000000000E+00  0.00000000000E+00  0.71076554769E+02  0.71076554769E+02  0.00000000000E+00 0. -1.
         21   -1    0    0  501  502 -0.00000000000E+00 -0.00000000000E+00 -0.62286517846E+03  0.62286517846E+03  0.00000000000E+00 0. -1.
      99926    2    1    2    0    0  0.00000000000E+00 -0.17763568394E-14 -0.55178862369E+03  0.69394173323E+03  0.42081402529E+03 0.  0.
      99925    2    3    3    0    0  0.65741465034E+02 -0.15748585790E+02 -0.41744803943E+03  0.49832767735E+03  0.26362406985E+03 0.  0.
         25    1    3    3    0    0 -0.65741465034E+02  0.15748585790E+02 -0.13434058426E+03  0.19561405588E+03  0.12509000000E+03 0.  0.
         25    1    4    4    0    0  0.31214231725E+02 -0.11915596621E+02 -0.13279847863E+03  0.18547035809E+03  0.12509000000E+03 0.  0.
         25    1    4    4    0    0  0.34527233309E+02 -0.38329891696E+01 -0.28464956080E+03  0.31285731925E+03  0.12509000000E+03 0.  0.
<mgrwt>
<rscale>  2 0.42081403E+03</rscale>
<asrwt>0</asrwt>
<pdfrwt beam="1">  1       21 0.10452435E-01 0.42081403E+03</pdfrwt>
<pdfrwt beam="2">  1       21 0.91597819E-01 0.42081403E+03</pdfrwt>
<totfact> 0.70332128E+04</totfact>
</mgrwt>
</event>
<event>
 7    0  0.4766352E-002  0.4602782E+03  0.7546771E-02  0.1024701E+00
         21   -1    0    0  502  501  0.00000000000E+00  0.00000000000E+00  0.49135337169E+03  0.49135337169E+03  0.00000000000E+00 0. -1.
         21   -1    0    0  501  502 -0.00000000000E+00 -0.00000000000E+00 -0.10779210760E+03  0.10779210760E+03  0.00000000000E+00 0. -1.
      99926    2    1    2    0    0  0.00000000000E+00  0.00000000000E+00  0.38356126408E+03  0.59914547929E+03  0.46027824416E+03 0.  0.
      99925    2    3    3    0    0  0.10395394408E+03  0.51531786636E+02  0.27098306766E+03  0.39473582704E+03  0.26253114608E+03 0.  0.
         25    1    4    4    0    0  0.27655951362E+02  0.55775610220E+02  0.14620236180E+03  0.20223355072E+03  0.12509000000E+03 0.  0.
         25    1    4    4    0    0  0.76297992722E+02 -0.42438235838E+01  0.12478070586E+03  0.19250227632E+03  0.12509000000E+03 0.  0.
         25    1    3    3    0    0 -0.10395394408E+03 -0.51531786636E+02  0.11257819642E+03  0.20440965225E+03  0.12509000000E+03 0.  0.
<mgrwt>
<rscale>  2 0.46027824E+03</rscale>
<asrwt>0</asrwt>
<pdfrwt beam="1">  1       21 0.72257848E-01 0.46027824E+03</pdfrwt>
<pdfrwt beam="2">  1       21 0.15851781E-01 0.46027824E+03</pdfrwt>
<totfact> 0.56343939E+04</totfact>
</mgrwt>
</event>
<event>
 7    0  0.4766352E-002  0.4548127E+03  0.7546771E-02  0.1026296E+00
         21   -1    0    0  502  501  0.00000000000E+00  0.00000000000E+00  0.20422450608E+03  0.20422450608E+03  0.00000000000E+00 0. -1.
         21   -1    0    0  501  502 -0.00000000000E+00 -0.00000000000E+00 -0.25321960202E+03  0.25321960202E+03  0.00000000000E+00 0. -1.
      99926    2    1    2    0    0  0.00000000000E+00  0.00000000000E+00 -0.48995095940E+02  0.45744410810E+03  0.45481270058E+03 0.  0.
      99925    2    3    3    0    0  0.26750191752E+02  0.10517562955E+03  0.71117075861E+00  0.28454035783E+03  0.26303084165E+03 0.  0.
         25    1    3    3    0    0 -0.26750191752E+02 -0.10517562955E+03 -0.49706266699E+02  0.17290375027E+03  0.12509000000E+03 0.  0.
         25    1    4    4    0    0  0.25980721382E+02  0.15564206563E+02  0.16919620964E+02  0.12981149442E+03  0.12509000000E+03 0.  0.
         25    1    4    4    0    0  0.76947037021E+00  0.89611422984E+02 -0.16208450205E+02  0.15472886341E+03  0.12509000000E+03 0.  0.
<mgrwt>
<rscale>  2 0.45481270E+03</rscale>
<asrwt>0</asrwt>
<pdfrwt beam="1">  1       21 0.30033016E-01 0.45481270E+03</pdfrwt>
<pdfrwt beam="2">  1       21 0.37238176E-01 0.45481270E+03</pdfrwt>
<totfact> 0.68469328E+04</totfact>
</mgrwt>
</event>
<event>
 7    0  0.4766352E-002  0.4707796E+03  0.7546771E-02  0.1021700E+00
         21   -1    0    0  502  501  0.00000000000E+00  0.00000000000E+00  0.19668952259E+03  0.19668952259E+03  0.00000000000E+00 0. -1.
         21   -1    0    0  501  502 -0.00000000000E+00 -0.00000000000E+00 -0.28170470460E+03  0.28170470460E+03  0.00000000000E+00 0. -1.
      99926    2    1    2    0    0  0.00000000000E+00  0.00000000000E+00 -0.85015182014E+02  0.47839422719E+03  0.47077962513E+03 0.  0.
      99925    2    3    3    0    0  0.29184026248E+02 -0.11750098167E+03 -0.12265191803E+02  0.28971922287E+03  0.26292319237E+03 0.  0.
         25    1    3    3    0    0 -0.29184026248E+02  0.11750098167E+03 -0.72749990211E+02  0.18867500433E+03  0.12509000000E+03 0.  0.
         25    1    4    4    0    0 -0.68027001816E+01 -0.27060906210E+02 -0.25471657731E+02  0.13067089508E+03  0.12509000000E+03 0.  0.
         25    1    4    4    0    0  0.35986726430E+02 -0.90440075461E+02  0.13206465928E+02  0.15904832778E+03  0.12509000000E+03 0.  0.
<mgrwt>
<rscale>  2 0.47077963E+03</rscale>
<asrwt>0</asrwt>
<pdfrwt beam="1">  1       21 0.28924930E-01 0.47077963E+03</pdfrwt>
<pdfrwt beam="2">  1       21 0.41427162E-01 0.47077963E+03</pdfrwt>
<totfact> 0.59063531E+04</totfact>
</mgrwt>
</event>
<event>
 7    0  0.4766352E-002  0.4569081E+03  0.7546771E-02  0.1025682E+00
         21   -1    0    0  502  501  0.00000000000E+00  0.00000000000E+00  0.44257372218E+03  0.44257372218E+03  0.00000000000E+00 0.  1.
         21   -1    0    0  501  502 -0.00000000000E+00 -0.00000000000E+00 -0.11792668716E+03  0.11792668716E+03  0.00000000000E+00 0.  1.
      99926    2    1    2    0    0  0.00000000000E+00  0.00000000000E+00  0.32464703502E+03  0.56050040933E+03  0.45690809964E+03 0.  0.
      99925    2    3    3    0    0 -0.57668667013E+02  0.93426021117E+02  0.24557407726E+03  0.37623392479E+03  0.26304228208E+03 0.  0.
         25    1    4    4    0    0 -0.33774133840E+02  0.71727485049E+01  0.93559159270E+02  0.15997801356E+03  0.12509000000E+03 0.  0.
         25    1    3    3    0    0  0.57668667013E+02 -0.93426021117E+02  0.79072957761E+02  0.18426648454E+03  0.12509000000E+03 0.  0.
         25    1    4    4    0    0 -0.23894533173E+02  0.86253272613E+02  0.15201491799E+03  0.21625591124E+03  0.12509000000E+03 0.  0.
<mgrwt>
<rscale>  2 0.45690810E+03</rscale>
<asrwt>0</asrwt>
<pdfrwt beam="1">  1       21 0.65084370E-01 0.45690810E+03</pdfrwt>
<pdfrwt beam="2">  1       21 0.17342160E-01 0.45690810E+03</pdfrwt>
<totfact> 0.60263225E+04</totfact>
</mgrwt>
</event>
<event>
 7    0  0.4766352E-002  0.4610322E+03  0.7546771E-02  0.1024482E+00
         21   -1    0    0  502  501  0.00000000000E+00  0.00000000000E+00  0.78396198376E+03  0.78396198376E+03  0.00000000000E+00 0. -1.
         21   -1    0    0  501  502 -0.00000000000E+00 -0.00000000000E+00 -0.67780939023E+02  0.67780939023E+02  0.00000000000E+00 0. -1.
      99926    2    1    2    0    0  0.00000000000E+00  0.00000000000E+00  0.71618104474E+03  0.85174292279E+03  0.46103223062E+03 0.  0.
      99925    2    3    3    0    0  0.77840408115E+02  0.15676536434E+01  0.61398981777E+03  0.67243274002E+03  0.26290817191E+03 0.  0.
         25    1    4    4    0    0  0.24722474640E+02  0.13374635820E+02  0.38615210666E+03  0.40687963726E+03  0.12509000000E+03 0.  0.
         25    1    4    4    0    0  0.53117933475E+02 -0.11806982177E+02  0.22783771111E+03  0.26555310277E+03  0.12509000000E+03 0.  0.
         25    1    3    3    0    0 -0.77840408115E+02 -0.15676536434E+01  0.10219122697E+03  0.17931018276E+03  0.12509000000E+03 0.  0.
<mgrwt>
<rscale>  2 0.46103223E+03</rscale>
<asrwt>0</asrwt>
<pdfrwt beam="1">  1       21 0.11528852E+00 0.46103223E+03</pdfrwt>
<pdfrwt beam="2">  1       21 0.99677856E-02 0.46103223E+03</pdfrwt>
<totfact> 0.43277010E+04</totfact>
</mgrwt>
</event>
<event>
 7    0  0.4766352E-002  0.4503702E+03  0.7546771E-02  0.1027612E+00
         21   -1    0    0  502  501  0.00000000000E+00  0.00000000000E+00  0.14773061261E+03  0.14773061261E+03  0.00000000000E+00 0.  1.
         21   -1    0    0  501  502 -0.00000000000E+00 -0.00000000000E+00 -0.34324855247E+03  0.34324855247E+03  0.00000000000E+00 0.  1.
      99926    2    1    2    0    0  0.00000000000E+00  0.00000000000E+00 -0.19551793986E+03  0.49097916508E+03  0.45037015413E+03 0.  0.
      99925    2    3    3    0    0  0.59986417395E+02 -0.48634050491E+02 -0.39935103521E+02  0.27692971237E+03  0.26292891047E+03 0.  0.
         25    1    3    3    0    0 -0.59986417395E+02  0.48634050491E+02 -0.15558283634E+03  0.21404945270E+03  0.12509000000E+03 0.  0.
         25    1    4    4    0    0 -0.38920770425E+01 -0.45982409425E+02 -0.25033068833E+02  0.13566021110E+03  0.12509000000E+03 0.  0.
         25    1    4    4    0    0  0.63878494437E+02 -0.26516410663E+01 -0.14902034688E+02  0.14126950127E+03  0.12509000000E+03 0.  0.
<mgrwt>
<rscale>  2 0.45037015E+03</rscale>
<asrwt>0</asrwt>
<pdfrwt beam="1">  1       21 0.21725090E-01 0.45037015E+03</pdfrwt>
<pdfrwt beam="2">  1       21 0.50477728E-01 0.45037015E+03</pdfrwt>
<totfact> 0.68388393E+04</totfact>
</mgrwt>
</event>
<event>
 7    0  0.4766352E-002  0.4527550E+03  0.7546771E-02  0.1026904E+00
         21   -1    0    0  502  501  0.00000000000E+00  0.00000000000E+00  0.36066035399E+03  0.36066035399E+03  0.00000000000E+00 0.  1.
         21   -1    0    0  501  502 -0.00000000000E+00 -0.00000000000E+00 -0.14209153496E+03  0.14209153496E+03  0.00000000000E+00 0.  1.
      99926    2    1    2    0    0  0.14210854715E-13 -0.71054273576E-14  0.21856881903E+03  0.50275188895E+03  0.45275504767E+03 0.  0.
      99925    2    3    3    0    0 -0.10065036011E+03  0.43139737005E+02  0.11702187865E+03  0.30794218411E+03  0.26295006517E+03 0.  0.
         25    1    4    4    0    0 -0.48926388466E+02 -0.19409084362E+02  0.54290343557E+02  0.14616926335E+03  0.12509000000E+03 0.  0.
         25    1    4    4    0    0 -0.51723971645E+02  0.62548821366E+02  0.62731535088E+02  0.16177292076E+03  0.12509000000E+03 0.  0.
         25    1    3    3    0    0  0.10065036011E+03 -0.43139737005E+02  0.10154694039E+03  0.19480970484E+03  0.12509000000E+03 0.  0.
<mgrwt>
<rscale>  2 0.45275505E+03</rscale>
<asrwt>0</asrwt>
<pdfrwt beam="1">  1       21 0.53038287E-01 0.45275505E+03</pdfrwt>
<pdfrwt beam="2">  1       21 0.20895814E-01 0.45275505E+03</pdfrwt>
<totfact> 0.66250446E+04</totfact>
</mgrwt>
</event>
<event>
 7    0  0.4766352E-002  0.4504628E+03  0.7546771E-02  0.1027584E+00
         21   -1    0    0  502  501  0.00000000000E+00  0.00000000000E+00  0.75098677347E+03  0.75098677347E+03  0.00000000000E+00 0.  1.
         21   -1    0    0  501  502 -0.00000000000E+00 -0.00000000000E+00 -0.67550041185E+02  0.67550041185E+02  0.00000000000E+00 0.  1.
      99926    2    1    2    0    0  0.00000000000E+00 -0.35527136788E-14  0.68343673229E+03  0.81853681466E+03  0.45046281746E+03 0.  0.
      99925    2    3    3    0    0  0.68407464001E+02  0.13974535896E+02  0.27965981847E+03  0.39009991964E+03  0.26285635706E+03 0.  0.
         25    1    4    4    0    0  0.14787533204E+02  0.37006410827E+02  0.10922173604E+03  0.17077775413E+03  0.12509000000E+03 0.  0.
         25    1    4    4    0    0  0.53619930797E+02 -0.23031874931E+02  0.17043808243E+03  0.21932216551E+03  0.12509000000E+03 0.  0.
         25    1    3    3    0    0 -0.68407464001E+02 -0.13974535896E+02  0.40377691382E+03  0.42843689502E+03  0.12509000000E+03 0.  0.
<mgrwt>
<rscale>  2 0.45046282E+03</rscale>
<asrwt>0</asrwt>
<pdfrwt beam="1">  1       21 0.11043923E+00 0.45046282E+03</pdfrwt>
<pdfrwt beam="2">  1       21 0.99338300E-02 0.45046282E+03</pdfrwt>
<totfact> 0.48588129E+04</totfact>
</mgrwt>
</event>
<event>
 7    0  0.4766352E-002  0.4498944E+03  0.7546771E-02  0.1027754E+00
         21   -1    0    0  502  501  0.00000000000E+00  0.00000000000E+00  0.65025194106E+03  0.65025194106E+03  0.00000000000E+00 0.  1.
         21   -1    0    0  501  502 -0.00000000000E+00 -0.00000000000E+00 -0.77817887795E+02  0.77817887795E+02  0.00000000000E+00 0.  1.
      99926    2    1    2    0    0  0.00000000000E+00  0.44408920985E-15  0.57243405327E+03  0.72806982886E+03  0.44989435466E+03 0.  0.
      99925    2    3    3    0    0  0.99599108901E+02  0.20982018485E+01  0.30078872687E+03  0.41285073616E+03  0.26466485825E+03 0.  0.
         25    1    4    4    0    0  0.54109335663E+02 -0.81907400376E+00  0.21469460901E+03  0.25430252521E+03  0.12509000000E+03 0.  0.
         25    1    4    4    0    0  0.45489773238E+02  0.29172758523E+01  0.86094117856E+02  0.15854821096E+03  0.12509000000E+03 0.  0.
         25    1    3    3    0    0 -0.99599108901E+02 -0.20982018485E+01  0.27164532640E+03  0.31521909270E+03  0.12509000000E+03 0.  0.
<mgrwt>
<rscale>  2 0.44989435E+03</rscale>
<asrwt>0</asrwt>
<pdfrwt beam="1">  1       21 0.95625283E-01 0.44989435E+03</pdfrwt>
<pdfrwt beam="2">  1       21 0.11443807E-01 0.44989435E+03</pdfrwt>
<totfact> 0.53522106E+04</totfact>
</mgrwt>
</event>
<event>
 7    0  0.4766352E-002  0.4528446E+03  0.7546771E-02  0.1026877E+00
         21   -1    0    0  502  501  0.00000000000E+00  0.00000000000E+00  0.38754763687E+03  0.38754763687E+03  0.00000000000E+00 0. -1.
         21   -1    0    0  501  502 -0.00000000000E+00 -0.00000000000E+00 -0.13228580258E+03  0.13228580258E+03  0.00000000000E+00 0. -1.
      99926    2    1    2    0    0  0.00000000000E+00 -0.71054273576E-14  0.25526183429E+03  0.51983343944E+03  0.45284456574E+03 0.  0.
      99925    2    3    3    0    0  0.31163753267E+02 -0.44029283961E+02  0.50861710416E+02  0.27419818932E+03  0.26398480273E+03 0.  0.
         25    1    4    4    0    0  0.25295185711E+02 -0.61187108257E+02  0.41324818708E+02  0.14744136929E+03  0.12509000000E+03 0.  0.
         25    1    4    4    0    0  0.58685675556E+01  0.17157824295E+02  0.95368917081E+01  0.12675682003E+03  0.12509000000E+03 0.  0.
         25    1    3    3    0    0 -0.31163753267E+02  0.44029283961E+02  0.20440012388E+03  0.24563525013E+03  0.12509000000E+03 0.  0.
<mgrwt>
<rscale>  2 0.45284457E+03</rscale>
<asrwt>0</asrwt>
<pdfrwt beam="1">  1       21 0.56992300E-01 0.45284457E+03</pdfrwt>
<pdfrwt beam="2">  1       21 0.19453795E-01 0.45284457E+03</pdfrwt>
<totfact> 0.65003074E+04</totfact>
</mgrwt>
</event>
<event>
 7    0  0.4766352E-002  0.4489444E+03  0.7546771E-02  0.1028037E+00
         21   -1    0    0  502  501  0.00000000000E+00  0.00000000000E+00  0.74370382826E+02  0.74370382826E+02  0.00000000000E+00 0.  1.
         21   -1    0    0  501  502 -0.00000000000E+00 -0.00000000000E+00 -0.67752464828E+03  0.67752464828E+03  0.00000000000E+00 0.  1.
      99926    2    1    2    0    0  0.00000000000E+00  0.00000000000E+00 -0.60315426545E+03  0.75189503111E+03  0.44894439507E+03 0.  0.
      99925    2    3    3    0    0 -0.79331392533E+02 -0.71683578887E+02 -0.40912624952E+03  0.49748122568E+03  0.26205204929E+03 0.  0.
         25    1    4    4    0    0  0.30474461397E+00 -0.30025687635E+02 -0.19861090840E+03  0.23663354754E+03  0.12509000000E+03 0.  0.
         25    1    3    3    0    0  0.79331392533E+02  0.71683578887E+02 -0.19402801594E+03  0.25441380543E+03  0.12509000000E+03 0.  0.
         25    1    4    4    0    0 -0.79636137147E+02 -0.41657891252E+02 -0.21051534112E+03  0.26084767814E+03  0.12509000000E+03 0.  0.
<mgrwt>
<rscale>  2 0.44894440E+03</rscale>
<asrwt>0</asrwt>
<pdfrwt beam="1">  1       21 0.10936821E-01 0.44894440E+03</pdfrwt>
<pdfrwt beam="2">  1       21 0.99635976E-01 0.44894440E+03</pdfrwt>
<totfact> 0.52634906E+04</totfact>
</mgrwt>
</event>
<event>
 7    0  0.4766352E-002  0.4616081E+03  0.7546771E-02  0.1024316E+00
         21   -1    0    0  502  501  0.00000000000E+00  0.00000000000E+00  0.47723082554E+02  0.47723082554E+02  0.00000000000E+00 0. -1.
         21   -1    0    0  501  502 -0.00000000000E+00 -0.00000000000E+00 -0.11162419696E+04  0.11162419696E+04  0.00000000000E+00 0. -1.
      99926    2    1    2    0    0 -0.14210854715E-13  0.71054273576E-14 -0.10685188870E+04  0.11639650522E+04  0.46160809207E+03 0.  0.
      99925    2    3    3    0    0 -0.10653360899E+03  0.53591669466E+02 -0.67854780174E+03  0.73741325887E+03  0.26292530922E+03 0.  0.
         25    1    4    4    0    0 -0.69641231944E+02  0.40719076847E+02 -0.26934006227E+03  0.30773287385E+03  0.12509000000E+03 0.  0.
         25    1    3    3    0    0  0.10653360899E+03 -0.53591669466E+02 -0.38997108530E+03  0.42655179328E+03  0.12509000000E+03 0.  0.
         25    1    4    4    0    0 -0.36892377045E+02  0.12872592619E+02 -0.40920773948E+03  0.42968038502E+03  0.12509000000E+03 0.  0.
<mgrwt>
<rscale>  2 0.46160809E+03</rscale>
<asrwt>0</asrwt>
<pdfrwt beam="1">  1       21 0.70181005E-02 0.46160809E+03</pdfrwt>
<pdfrwt beam="2">  1       21 0.16415323E+00 0.46160809E+03</pdfrwt>
<totfact> 0.31657630E+04</totfact>
</mgrwt>
</event>
<event>
 7    0  0.4766352E-002  0.4536656E+03  0.7546771E-02  0.1026635E+00
         21   -1    0    0  502  501  0.00000000000E+00  0.00000000000E+00  0.96151639034E+02  0.96151639034E+02  0.00000000000E+00 0. -1.
         21   -1    0    0  501  502 -0.00000000000E+00 -0.00000000000E+00 -0.53512460981E+03  0.53512460981E+03  0.00000000000E+00 0. -1.
      99926    2    1    2    0    0  0.35527136788E-14  0.00000000000E+00 -0.43897297078E+03  0.63127624884E+03  0.45366555223E+03 0.  0.
      99925    2    3    3    0    0 -0.22485811035E+02  0.32984192608E+02 -0.13143058485E+03  0.29687619516E+03  0.26318797078E+03 0.  0.
         25    1    4    4    0    0 -0.79888917797E+01  0.48515803606E+02 -0.95906340122E+02  0.16511553460E+03  0.12509000000E+03 0.  0.
         25    1    4    4    0    0 -0.14496919255E+02 -0.15531610997E+02 -0.35524244726E+02  0.13176066056E+03  0.12509000000E+03 0.  0.
         25    1    3    3    0    0  0.22485811035E+02 -0.32984192608E+02 -0.30754238593E+03  0.33440005368E+03  0.12509000000E+03 0.  0.
<mgrwt>
<rscale>  2 0.45366555E+03</rscale>
<asrwt>0</asrwt>
<pdfrwt beam="1">  1       21 0.14139947E-01 0.45366555E+03</pdfrwt>
<pdfrwt beam="2">  1       21 0.78694796E-01 0.45366555E+03</pdfrwt>
<totfact> 0.57395472E+04</totfact>
</mgrwt>
</event>
<event>
 7    0  0.4766352E-002  0.4562914E+03  0.7546771E-02  0.1025862E+00
         21   -1    0    0  502  501  0.00000000000E+00  0.00000000000E+00  0.53135484980E+02  0.53135484980E+02  0.00000000000E+00 0.  1.
         21   -1    0    0  501  502 -0.00000000000E+00 -0.00000000000E+00 -0.97958010561E+03  0.97958010561E+03  0.00000000000E+00 0.  1.
      99926    2    1    2    0    0  0.00000000000E+00  0.71054273576E-14 -0.92644462063E+03  0.10327155906E+04  0.45629141560E+03 0.  0.
      99925    2    3    3    0    0 -0.30161704962E+02  0.49508428849E+02 -0.80595280134E+03  0.84961288829E+03  0.26252872031E+03 0.  0.
         25    1    4    4    0    0 -0.41284370501E+02 -0.34890699614E+01 -0.36402806626E+03  0.38714404811E+03  0.12509000000E+03 0.  0.
         25    1    3    3    0    0  0.30161704962E+02 -0.49508428849E+02 -0.12049181929E+03  0.18310270230E+03  0.12509000000E+03 0.  0.
         25    1    4    4    0    0  0.11122665538E+02  0.52997498810E+02 -0.44192473507E+03  0.46246884018E+03  0.12509000000E+03 0.  0.
<mgrwt>
<rscale>  2 0.45629142E+03</rscale>
<asrwt>0</asrwt>
<pdfrwt beam="1">  1       21 0.78140421E-02 0.45629142E+03</pdfrwt>
<pdfrwt beam="2">  1       21 0.14405589E+00 0.45629142E+03</pdfrwt>
<totfact> 0.37538197E+04</totfact>
</mgrwt>
</event>
<event>
 7    0  0.4766352E-002  0.4452370E+03  0.7546771E-02  0.1029152E+00
         21   -1    0    0  502  501  0.00000000000E+00  0.00000000000E+00  0.57536879571E+03  0.57536879571E+03  0.00000000000E+00 0.  1.
         21   -1    0    0  501  502 -0.00000000000E+00 -0.00000000000E+00 -0.86134331280E+02  0.86134331280E+02  0.00000000000E+00 0.  1.
      99926    2    1    2    0    0  0.00000000000E+00  0.00000000000E+00  0.48923446443E+03  0.66150312699E+03  0.44523704454E+03 0.  0.
      99925    2    3    3    0    0 -0.53262193794E+02 -0.48410040646E+02  0.42174161840E+03  0.50218211241E+03  0.26294578911E+03 0.  0.
         25    1    4    4    0    0 -0.54510370524E+02 -0.24953820802E+02  0.16451978797E+03  0.21519373225E+03  0.12509000000E+03 0.  0.
         25    1    4    4    0    0  0.12481767301E+01 -0.23456219845E+02  0.25722183043E+03  0.28698838015E+03  0.12509000000E+03 0.  0.
         25    1    3    3    0    0  0.53262193794E+02  0.48410040646E+02  0.67492846036E+02  0.15932101459E+03  0.12509000000E+03 0.  0.
<mgrwt>
<rscale>  2 0.44523704E+03</rscale>
<asrwt>0</asrwt>
<pdfrwt beam="1">  1       21 0.84613056E-01 0.44523704E+03</pdfrwt>
<pdfrwt beam="2">  1       21 0.12666814E-01 0.44523704E+03</pdfrwt>
<totfact> 0.59490521E+04</totfact>
</mgrwt>
</event>
<event>
 7    0  0.4766352E-002  0.4532495E+03  0.7546771E-02  0.1026757E+00
         21   -1    0    0  502  501  0.00000000000E+00  0.00000000000E+00  0.15699221651E+03  0.15699221651E+03  0.00000000000E+00 0. -1.
         21   -1    0    0  501  502 -0.00000000000E+00 -0.00000000000E+00 -0.32714219944E+03  0.32714219944E+03  0.00000000000E+00 0. -1.
      99926    2    1    2    0    0  0.00000000000E+00  0.00000000000E+00 -0.17014998292E+03  0.48413441595E+03  0.45324950746E+03 0.  0.
      99925    2    3    3    0    0  0.95742077319E+02  0.45283120537E+02 -0.14465180456E+03  0.31825864444E+03  0.26295876829E+03 0.  0.
         25    1    3    3    0    0 -0.95742077319E+02 -0.45283120537E+02 -0.25498178362E+02  0.16587577151E+03  0.12509000000E+03 0.  0.
         25    1    4    4    0    0  0.23526011641E+02  0.22604366834E+02 -0.30651153809E+02  0.13285869167E+03  0.12509000000E+03 0.  0.
         25    1    4    4    0    0  0.72216065678E+02  0.22678753702E+02 -0.11400065075E+03  0.18539995276E+03  0.12509000000E+03 0.  0.
<mgrwt>
<rscale>  2 0.45324951E+03</rscale>
<asrwt>0</asrwt>
<pdfrwt beam="1">  1       21 0.23087091E-01 0.45324951E+03</pdfrwt>
<pdfrwt beam="2">  1       21 0.48109146E-01 0.45324951E+03</pdfrwt>
<totfact> 0.67331144E+04</totfact>
</mgrwt>
</event>
<event>
 7    0  0.4766352E-002  0.4537974E+03  0.7546771E-02  0.1026596E+00
         21   -1    0    0  502  501  0.00000000000E+00  0.00000000000E+00  0.18454652613E+04  0.18454652613E+04  0.00000000000E+00 0.  1.
         21   -1    0    0  501  502 -0.00000000000E+00 -0.00000000000E+00 -0.27897044401E+02  0.27897044401E+02  0.00000000000E+00 0.  1.
      99926    2    1    2    0    0  0.00000000000E+00  0.00000000000E+00  0.18175682169E+04  0.18733623057E+04  0.45379742764E+03 0.  0.
      99925    2    3    3    0    0  0.86619600890E+02 -0.68406036551E+02  0.12230630058E+04  0.12558946586E+04  0.26307021162E+03 0.  0.
         25    1    3    3    0    0 -0.86619600890E+02  0.68406036551E+02  0.59450521111E+03  0.61746764712E+03  0.12509000000E+03 0.  0.
         25    1    4    4    0    0  0.73085711072E+02 -0.24332960261E+02  0.52247225976E+03  0.54273233222E+03  0.12509000000E+03 0.  0.
         25    1    4    4    0    0  0.13533889818E+02 -0.44073076290E+02  0.70059074601E+03  0.71316232635E+03  0.12509000000E+03 0.  0.
<mgrwt>
<rscale>  2 0.45379743E+03</rscale>
<asrwt>0</asrwt>
<pdfrwt beam="1">  1       21 0.27139187E+00 0.45379743E+03</pdfrwt>
<pdfrwt beam="2">  1       21 0.41025078E-02 0.45379743E+03</pdfrwt>
<totfact> 0.16038754E+04</totfact>
</mgrwt>
</event>
<event>
 7    0  0.4766352E-002  0.4542656E+03  0.7546771E-02  0.1026458E+00
         21   -1    0    0  502  501  0.00000000000E+00  0.00000000000E+00  0.14621197843E+03  0.14621197843E+03  0.00000000000E+00 0.  1.
         21   -1    0    0  501  502 -0.00000000000E+00 -0.00000000000E+00 -0.35283907480E+03  0.35283907480E+03  0.00000000000E+00 0.  1.
      99926    2    1    2    0    0  0.00000000000E+00  0.00000000000E+00 -0.20662709637E+03  0.49905105323E+03  0.45426555755E+03 0.  0.
      99925    2    3    3    0    0 -0.10076468440E+02 -0.11204520780E+03 -0.13060756304E+03  0.31443756142E+03  0.26297714863E+03 0.  0.
         25    1    3    3    0    0  0.10076468440E+02  0.11204520780E+03 -0.76019533337E+02  0.18461349181E+03  0.12509000000E+03 0.  0.
         25    1    4    4    0    0 -0.39993201085E+02 -0.36288447189E+02 -0.52963757236E+02  0.14618130938E+03  0.12509000000E+03 0.  0.
         25    1    4    4    0    0  0.29916732645E+02 -0.75756760615E+02 -0.77643805800E+02  0.16825625204E+03  0.12509000000E+03 0.  0.
<mgrwt>
<rscale>  2 0.45426556E+03</rscale>
<asrwt>0</asrwt>
<pdfrwt beam="1">  1       21 0.21501762E-01 0.45426556E+03</pdfrwt>
<pdfrwt beam="2">  1       21 0.51888098E-01 0.45426556E+03</pdfrwt>
<totfact> 0.65719695E+04</totfact>
</mgrwt>
</event>
<event>
 7    0  0.4766352E-002  0.4533115E+03  0.7546771E-02  0.1026739E+00
         21   -1    0    0  502  501  0.00000000000E+00  0.00000000000E+00  0.18781886085E+04  0.18781886085E+04  0.00000000000E+00 0. -1.
         21   -1    0    0  501  502 -0.00000000000E+00 -0.00000000000E+00 -0.27352324218E+02  0.27352324218E+02  0.00000000000E+00 0. -1.
      99926    2    1    2    0    0  0.00000000000E+00  0.00000000000E+00  0.18508362842E+04  0.19055409327E+04  0.45331147685E+03 0.  0.
      99925    2    3    3    0    0  0.56638762845E+02 -0.36739533937E+02  0.79291909944E+03  0.83811692096E+03  0.26298580212E+03 0.  0.
         25    1    3    3    0    0 -0.56638762845E+02  0.36739533937E+02  0.10579171848E+04  0.10674240117E+04  0.12509000000E+03 0.  0.
         25    1    4    4    0    0  0.34355939504E+02 -0.23818059226E+02  0.52501808862E+03  0.54133088957E+03  0.12509000000E+03 0.  0.
         25    1    4    4    0    0  0.22282823341E+02 -0.12921474711E+02  0.26790101083E+03  0.29678603139E+03  0.12509000000E+03 0.  0.
<mgrwt>
<rscale>  2 0.45331148E+03</rscale>
<asrwt>0</asrwt>
<pdfrwt beam="1">  1       21 0.27620412E+00 0.45331148E+03</pdfrwt>
<pdfrwt beam="2">  1       21 0.40224019E-02 0.45331148E+03</pdfrwt>
<totfact> 0.15516181E+04</totfact>
</mgrwt>
</event>
<event>
 7    0  0.4766352E-002  0.4379176E+03  0.7546771E-02  0.1031388E+00
         21   -1    0    0  502  501  0.00000000000E+00  0.00000000000E+00  0.39867202139E+02  0.39867202139E+02  0.00000000000E+00 0.  1.
         21   -1    0    0  501  502 -0.00000000000E+00 -0.00000000000E+00 -0.12025662434E+04  0.12025662434E+04  0.00000000000E+00 0.  1.
      99926    2    1    2    0    0  0.35527136788E-14  0.14210854715E-13 -0.11626990413E+04  0.12424334456E+04  0.43791757906E+03 0.  0.
      99925    2    3    3    0    0  0.30329889644E+02  0.64311340416E+02 -0.55902146084E+03  0.62184503128E+03  0.26292660294E+03 0.  0.
         25    1    4    4    0    0 -0.98242947135E+01  0.41637519291E+01 -0.30077370154E+03  0.32592358189E+03  0.12509000000E+03 0.  0.
         25    1    4    4    0    0  0.40154184358E+02  0.60147588487E+02 -0.25824775930E+03  0.29592144939E+03  0.12509000000E+03 0.  0.
         25    1    3    3    0    0 -0.30329889644E+02 -0.64311340416E+02 -0.60367758045E+03  0.62058841429E+03  0.12509000000E+03 0.  0.
<mgrwt>
<rscale>  2 0.43791758E+03</rscale>
<asrwt>0</asrwt>
<pdfrwt beam="1">  1       21 0.58628252E-02 0.43791758E+03</pdfrwt>
<pdfrwt beam="2">  1       21 0.17684794E+00 0.43791758E+03</pdfrwt>
<totfact> 0.35297829E+04</totfact>
</mgrwt>
</event>
<event>
 7    0  0.4766352E-002  0.4574680E+03  0.7546771E-02  0.1025518E+00
         21   -1    0    0  502  501  0.00000000000E+00  0.00000000000E+00  0.44344579048E+02  0.44344579048E+02  0.00000000000E+00 0. -1.
         21   -1    0    0  501  502 -0.00000000000E+00 -0.00000000000E+00 -0.11798342713E+04  0.11798342713E+04  0.00000000000E+00 0. -1.
      99926    2    1    2    0    0 -0.14210854715E-13 -0.71054273576E-14 -0.11354896922E+04  0.12241788503E+04  0.45746804962E+03 0.  0.
      99925    2    3    3    0    0  0.78828100525E+02  0.53675786109E+02 -0.88711469994E+03  0.93018462531E+03  0.26301328268E+03 0.  0.
         25    1    4    4    0    0  0.19426411000E+02  0.46370028686E+02 -0.33956874812E+03  0.36535189586E+03  0.12509000000E+03 0.  0.
         25    1    4    4    0    0  0.59401689525E+02  0.73057574225E+01 -0.54754595181E+03  0.56483272945E+03  0.12509000000E+03 0.  0.
         25    1    3    3    0    0 -0.78828100525E+02 -0.53675786109E+02 -0.24837499228E+03  0.29399422501E+03  0.12509000000E+03 0.  0.
<mgrwt>
<rscale>  2 0.45746805E+03</rscale>
<asrwt>0</asrwt>
<pdfrwt beam="1">  1       21 0.65212618E-02 0.45746805E+03</pdfrwt>
<pdfrwt beam="2">  1       21 0.17350504E+00 0.45746805E+03</pdfrwt>
<totfact> 0.30802417E+04</totfact>
</mgrwt>
</event>
<event>
 7    0  0.4766352E-002  0.4535406E+03  0.7546771E-02  0.1026671E+00
         21   -1    0    0  502  501  0.00000000000E+00  0.00000000000E+00  0.10381918769E+03  0.10381918769E+03  0.00000000000E+00 0.  1.
         21   -1    0    0  501  502 -0.00000000000E+00 -0.00000000000E+00 -0.49533019641E+03  0.49533019641E+03  0.00000000000E+00 0.  1.
      99926    2    1    2    0    0 -0.14210854715E-13  0.00000000000E+00 -0.39151100872E+03  0.59914938410E+03  0.45354064263E+03 0.  0.
      99925    2    3    3    0    0 -0.10983905701E+03  0.19985617930E+02 -0.25674925442E+03  0.38403945431E+03  0.26287274384E+03 0.  0.
         25    1    4    4    0    0 -0.84177839955E+02  0.21989963808E+02 -0.17666164471E+03  0.23329447499E+03  0.12509000000E+03 0.  0.
         25    1    4    4    0    0 -0.25661217057E+02 -0.20043458786E+01 -0.80087609704E+02  0.15074497932E+03  0.12509000000E+03 0.  0.
         25    1    3    3    0    0  0.10983905701E+03 -0.19985617930E+02 -0.13476175430E+03  0.21510992978E+03  0.12509000000E+03 0.  0.
<mgrwt>
<rscale>  2 0.45354064E+03</rscale>
<asrwt>0</asrwt>
<pdfrwt beam="1">  1       21 0.15267528E-01 0.45354064E+03</pdfrwt>
<pdfrwt beam="2">  1       21 0.72842675E-01 0.45354064E+03</pdfrwt>
<totfact> 0.59412784E+04</totfact>
</mgrwt>
</event>
<event>
 7    0  0.5457835E-002  0.3983261E+03  0.7546771E-02  0.1044361E+00
         21   -1    0    0  502  501  0.00000000000E+00  0.00000000000E+00  0.60048435888E+03  0.60048435888E+03  0.00000000000E+00 0.  1.
         21   -1    0    0  501  502 -0.00000000000E+00 -0.00000000000E+00 -0.66056526221E+02  0.66056526221E+02  0.00000000000E+00 0.  1.
      99926    2    1    2    0    0 -0.36637359813E-14  0.00000000000E+00  0.53442783266E+03  0.66654088510E+03  0.39832605136E+03 0.  0.
      99925    2    3    3    0    0  0.42977379354E+00  0.41392730368E+02  0.37305975851E+03  0.45821252341E+03  0.26281474531E+03 0.  0.
         25    1    3    3    0    0 -0.42977379354E+00 -0.41392730368E+02  0.16136807415E+03  0.20832836170E+03  0.12509000000E+03 0.  0.
         25    1    4    4    0    0  0.35825354582E+02  0.18246835279E+02  0.15402250074E+03  0.20245207300E+03  0.12509000000E+03 0.  0.
         25    1    4    4    0    0 -0.35395580788E+02  0.23145895089E+02  0.21903725777E+03  0.25576045040E+03  0.12509000000E+03 0.  0.
<mgrwt>
<rscale>  2 0.39832605E+03</rscale>
<asrwt>0</asrwt>
<pdfrwt beam="1">  1       21 0.88306521E-01 0.39832605E+03</pdfrwt>
<pdfrwt beam="2">  1       21 0.97141953E-02 0.39832605E+03</pdfrwt>
<totfact> 0.87912609E+04</totfact>
</mgrwt>
</event>
<event>
 7    0  0.4766352E-002  0.4476455E+03  0.7546771E-02  0.1028427E+00
         21   -1    0    0  502  501  0.00000000000E+00  0.00000000000E+00  0.65117069783E+02  0.65117069783E+02  0.00000000000E+00 0.  1.
         21   -1    0    0  501  502 -0.00000000000E+00 -0.00000000000E+00 -0.76933171389E+03  0.76933171389E+03  0.00000000000E+00 0.  1.
      99926    2    1    2    0    0  0.00000000000E+00  0.00000000000E+00 -0.70421464410E+03  0.83444878367E+03  0.44764551556E+03 0.  0.
      99925    2    3    3    0    0 -0.10229871351E+03  0.21471946117E+02 -0.41192318090E+03  0.49977300203E+03  0.26299481998E+03 0.  0.
         25    1    4    4    0    0 -0.17839568000E+02 -0.37975235655E+01 -0.22616233050E+03  0.25909376528E+03  0.12509000000E+03 0.  0.
         25    1    4    4    0    0 -0.84459145511E+02  0.25269469682E+02 -0.18576085040E+03  0.24067923675E+03  0.12509000000E+03 0.  0.
         25    1    3    3    0    0  0.10229871351E+03 -0.21471946117E+02 -0.29229146320E+03  0.33467578164E+03  0.12509000000E+03 0.  0.
<mgrwt>
<rscale>  2 0.44764552E+03</rscale>
<asrwt>0</asrwt>
<pdfrwt beam="1">  1       21 0.95760395E-02 0.44764552E+03</pdfrwt>
<pdfrwt beam="2">  1       21 0.11313702E+00 0.44764552E+03</pdfrwt>
<totfact> 0.48904622E+04</totfact>
</mgrwt>
</event>
<event>
 7    0  0.4766352E-002  0.4517905E+03  0.7546771E-02  0.1027189E+00
         21   -1    0    0  502  501  0.00000000000E+00  0.00000000000E+00  0.24482876074E+03  0.24482876074E+03  0.00000000000E+00 0. -1.
         21   -1    0    0  501  502 -0.00000000000E+00 -0.00000000000E+00 -0.20842592298E+03  0.20842592298E+03  0.00000000000E+00 0. -1.
      99926    2    1    2    0    0  0.00000000000E+00  0.00000000000E+00  0.36402837757E+02  0.45325468372E+03  0.45179048431E+03 0.  0.
      99925    2    3    3    0    0 -0.10421312885E+03 -0.34219668418E+02  0.13056328457E+02  0.28525489346E+03  0.26299909619E+03 0.  0.
         25    1    3    3    0    0  0.10421312885E+03  0.34219668418E+02  0.23346509300E+02  0.16799979026E+03  0.12509000000E+03 0.  0.
         25    1    4    4    0    0 -0.26465933253E+02  0.16658484694E+02  0.11144094296E+02  0.12942043762E+03  0.12509000000E+03 0.  0.
         25    1    4    4    0    0 -0.77747195597E+02 -0.50878153113E+02  0.19122341609E+01  0.15583445584E+03  0.12509000000E+03 0.  0.
<mgrwt>
<rscale>  2 0.45179048E+03</rscale>
<asrwt>0</asrwt>
<pdfrwt beam="1">  1       21 0.36004230E-01 0.45179048E+03</pdfrwt>
<pdfrwt beam="2">  1       21 0.30650871E-01 0.45179048E+03</pdfrwt>
<totfact> 0.70461009E+04</totfact>
</mgrwt>
</event>
<event>
 7    0  0.4766352E-002  0.4510438E+03  0.7546771E-02  0.1027411E+00
         21   -1    0    0  502  501  0.00000000000E+00  0.00000000000E+00  0.28222734388E+02  0.28222734388E+02  0.00000000000E+00 0.  1.
         21   -1    0    0  501  502 -0.00000000000E+00 -0.00000000000E+00 -0.18020976149E+04  0.18020976149E+04  0.00000000000E+00 0.  1.
      99926    2    1    2    0    0  0.00000000000E+00 -0.35527136788E-14 -0.17738748806E+04  0.18303203493E+04  0.45104377760E+03 0.  0.
      99925    2    3    3    0    0 -0.10670490199E+03  0.11983039583E+02 -0.10364174872E+04  0.10746614021E+04  0.26307107812E+03 0.  0.
         25    1    4    4    0    0 -0.64606149424E+02  0.39300034718E+02 -0.45854353549E+03  0.48127760109E+03  0.12509000000E+03 0.  0.
         25    1    4    4    0    0 -0.42098752565E+02 -0.27316995135E+02 -0.57787395170E+03  0.59338380105E+03  0.12509000000E+03 0.  0.
         25    1    3    3    0    0  0.10670490199E+03 -0.11983039583E+02 -0.73745739337E+03  0.75565894720E+03  0.12509000000E+03 0.  0.
<mgrwt>
<rscale>  2 0.45104378E+03</rscale>
<asrwt>0</asrwt>
<pdfrwt beam="1">  1       21 0.41504016E-02 0.45104378E+03</pdfrwt>
<pdfrwt beam="2">  1       21 0.26501439E+00 0.45104378E+03</pdfrwt>
<totfact> 0.17206324E+04</totfact>
</mgrwt>
</event>
<event>
 7    0  0.4766352E-002  0.4556716E+03  0.7546771E-02  0.1026044E+00
         21   -1    0    0  502  501  0.00000000000E+00  0.00000000000E+00  0.16560108157E+03  0.16560108157E+03  0.00000000000E+00 0. -1.
         21   -1    0    0  501  502 -0.00000000000E+00 -0.00000000000E+00 -0.31345897189E+03  0.31345897189E+03  0.00000000000E+00 0. -1.
      99926    2    1    2    0    0  0.00000000000E+00  0.00000000000E+00 -0.14785789032E+03  0.47906005345E+03  0.45567156932E+03 0.  0.
      99925    2    3    3    0    0  0.30248962297E+02  0.62798223845E+02  0.24096104622E+00  0.27305181450E+03  0.26400495962E+03 0.  0.
         25    1    4    4    0    0 -0.22611310688E+02  0.10634308811E+02 -0.13673380719E+01  0.12756856042E+03  0.12509000000E+03 0.  0.
         25    1    3    3    0    0 -0.30248962297E+02 -0.62798223845E+02 -0.14809885137E+03  0.20600823895E+03  0.12509000000E+03 0.  0.
         25    1    4    4    0    0  0.52860272985E+02  0.52163915035E+02  0.16082991181E+01  0.14548325408E+03  0.12509000000E+03 0.  0.
<mgrwt>
<rscale>  2 0.45567157E+03</rscale>
<asrwt>0</asrwt>
<pdfrwt beam="1">  1       21 0.24353100E-01 0.45567157E+03</pdfrwt>
<pdfrwt beam="2">  1       21 0.46096908E-01 0.45567157E+03</pdfrwt>
<totfact> 0.66413867E+04</totfact>
</mgrwt>
</event>
<event>
 7    0  0.4766352E-002  0.4504405E+03  0.7546771E-02  0.1027591E+00
         21   -1    0    0  502  501  0.00000000000E+00  0.00000000000E+00  0.46545083753E+03  0.46545083753E+03  0.00000000000E+00 0.  1.
         21   -1    0    0  501  502 -0.00000000000E+00 -0.00000000000E+00 -0.10897854569E+03  0.10897854569E+03  0.00000000000E+00 0.  1.
      99926    2    1    2    0    0  0.00000000000E+00  0.14210854715E-13  0.35647229183E+03  0.57442938322E+03  0.45044047494E+03 0.  0.
      99925    2    3    3    0    0 -0.16711974969E+02 -0.90312465324E+02  0.15075585531E+03  0.31674276763E+03  0.26298863366E+03 0.  0.
         25    1    4    4    0    0  0.30533727876E+02 -0.50512464492E+02  0.86567040633E+02  0.16317223487E+03  0.12509000000E+03 0.  0.
         25    1    4    4    0    0 -0.47245702846E+02 -0.39800000833E+02  0.64188814680E+02  0.15357053276E+03  0.12509000000E+03 0.  0.
         25    1    3    3    0    0  0.16711974969E+02  0.90312465324E+02  0.20571643652E+03  0.25768661559E+03  0.12509000000E+03 0.  0.
<mgrwt>
<rscale>  2 0.45044047E+03</rscale>
<asrwt>0</asrwt>
<pdfrwt beam="1">  1       21 0.68448652E-01 0.45044047E+03</pdfrwt>
<pdfrwt beam="2">  1       21 0.16026257E-01 0.45044047E+03</pdfrwt>
<totfact> 0.62503508E+04</totfact>
</mgrwt>
</event>
<event>
 7    0  0.4766352E-002  0.4476302E+03  0.7546771E-02  0.1028431E+00
         21   -1    0    0  502  501  0.00000000000E+00  0.00000000000E+00  0.39703686471E+03  0.39703686471E+03  0.00000000000E+00 0. -1.
         21   -1    0    0  501  502 -0.00000000000E+00 -0.00000000000E+00 -0.12616762359E+03  0.12616762359E+03  0.00000000000E+00 0. -1.
      99926    2    1    2    0    0  0.00000000000E+00  0.00000000000E+00  0.27086924112E+03  0.52320448830E+03  0.44763019424E+03 0.  0.
      99925    2    3    3    0    0  0.49834967724E+02  0.77088308740E+02  0.10929416095E+03  0.29919523407E+03  0.26295711270E+03 0.  0.
         25    1    3    3    0    0 -0.49834967724E+02 -0.77088308740E+02  0.16157508017E+03  0.22400925424E+03  0.12509000000E+03 0.  0.
         25    1    4    4    0    0  0.55125834876E+02  0.21575895724E+02  0.32413829631E+02  0.14213564436E+03  0.12509000000E+03 0.  0.
         25    1    4    4    0    0 -0.52908671523E+01  0.55512413016E+02  0.76880331316E+02  0.15705958970E+03  0.12509000000E+03 0.  0.
<mgrwt>
<rscale>  2 0.44763019E+03</rscale>
<asrwt>0</asrwt>
<pdfrwt beam="1">  1       21 0.58387774E-01 0.44763019E+03</pdfrwt>
<pdfrwt beam="2">  1       21 0.18554062E-01 0.44763019E+03</pdfrwt>
<totfact> 0.67527356E+04</totfact>
</mgrwt>
</event>
<event>
 6    0  0.4766352E-002  0.4683007E+03  0.7546771E-02  0.1022401E+00
         21   -1    0    0  502  501  0.00000000000E+00  0.00000000000E+00  0.85201584429E+02  0.85201584429E+02  0.00000000000E+00 0. -1.
         21   -1    0    0  501  502 -0.00000000000E+00 -0.00000000000E+00 -0.64349027485E+03  0.64349027485E+03  0.00000000000E+00 0. -1.
      99926    2    1    2    0    0  0.00000000000E+00  0.14210854715E-13 -0.55828869043E+03  0.72869185928E+03  0.46830071955E+03 0.  0.
         25    1    3    3    0    0 -0.89275836493E+02 -0.74960569498E+02 -0.26775460783E+03  0.31769372055E+03  0.12509000000E+03 0.  0.
         25    1    3    3    0    0  0.71755132877E+02  0.63050236762E+02 -0.11738999723E+03  0.19634676213E+03  0.12509000000E+03 0.  0.
         25    1    3    3    0    0  0.17520703617E+02  0.11910332736E+02 -0.17314408537E+03  0.21465137661E+03  0.12509000000E+03 0.  0.
<mgrwt>
<rscale>  2 0.46830072E+03</rscale>
<asrwt>0</asrwt>
<pdfrwt beam="1">  1       21 0.12529645E-01 0.46830072E+03</pdfrwt>
<pdfrwt beam="2">  1       21 0.94630918E-01 0.46830072E+03</pdfrwt>
<totfact> 0.46332872E+04</totfact>
</mgrwt>
</event>
<event>
 7    0  0.4766352E-002  0.4561857E+03  0.7546771E-02  0.1025893E+00
         21   -1    0    0  502  501  0.00000000000E+00  0.00000000000E+00  0.25697214774E+03  0.25697214774E+03  0.00000000000E+00 0.  1.
         21   -1    0    0  501  502 -0.00000000000E+00 -0.00000000000E+00 -0.20245909014E+03  0.20245909014E+03  0.00000000000E+00 0.  1.
      99926    2    1    2    0    0  0.00000000000E+00  0.00000000000E+00  0.54513057600E+02  0.45943123788E+03  0.45618569563E+03 0.  0.
      99925    2    3    3    0    0  0.11390642822E+03  0.54104202690E+01  0.39280748590E+02  0.28947983784E+03  0.26315708668E+03 0.  0.
         25    1    3    3    0    0 -0.11390642822E+03 -0.54104202690E+01  0.15232309010E+02  0.16995140004E+03  0.12509000000E+03 0.  0.
         25    1    4    4    0    0  0.63945008429E+02  0.83368932834E+00 -0.20615799578E+02  0.14199358589E+03  0.12509000000E+03 0.  0.
         25    1    4    4    0    0  0.49961419792E+02  0.45767309407E+01  0.59896548168E+02  0.14748625196E+03  0.12509000000E+03 0.  0.
<mgrwt>
<rscale>  2 0.45618570E+03</rscale>
<asrwt>0</asrwt>
<pdfrwt beam="1">  1       21 0.37790022E-01 0.45618570E+03</pdfrwt>
<pdfrwt beam="2">  1       21 0.29773396E-01 0.45618570E+03</pdfrwt>
<totfact> 0.67580684E+04</totfact>
</mgrwt>
</event>
<event>
 7    0  0.4766352E-002  0.4403580E+03  0.7546771E-02  0.1030637E+00
         21   -1    0    0  502  501  0.00000000000E+00  0.00000000000E+00  0.17518232856E+03  0.17518232856E+03  0.00000000000E+00 0. -1.
         21   -1    0    0  501  502 -0.00000000000E+00 -0.00000000000E+00 -0.27673340209E+03  0.27673340209E+03  0.00000000000E+00 0. -1.
      99926    2    1    2    0    0 -0.71054273576E-14  0.00000000000E+00 -0.10155107353E+03  0.45191573065E+03  0.44035804417E+03 0.  0.
      99925    2    3    3    0    0 -0.46720789530E+02 -0.86743498448E+02 -0.73016211768E+02  0.29014733715E+03  0.26295787377E+03 0.  0.
         25    1    4    4    0    0 -0.38955226897E+02 -0.12328217161E+02 -0.57355738341E+02  0.14355028200E+03  0.12509000000E+03 0.  0.
         25    1    3    3    0    0  0.46720789530E+02  0.86743498448E+02 -0.28534861765E+02  0.16176839349E+03  0.12509000000E+03 0.  0.
         25    1    4    4    0    0 -0.77655626331E+01 -0.74415281287E+02 -0.15660473427E+02  0.14659705515E+03  0.12509000000E+03 0.  0.
<mgrwt>
<rscale>  2 0.44035804E+03</rscale>
<asrwt>0</asrwt>
<pdfrwt beam="1">  1       21 0.25762107E-01 0.44035804E+03</pdfrwt>
<pdfrwt beam="2">  1       21 0.40696088E-01 0.44035804E+03</pdfrwt>
<totfact> 0.77412100E+04</totfact>
</mgrwt>
</event>
<event>
 7    0  0.4766352E-002  0.4574604E+03  0.7546771E-02  0.1025520E+00
         21   -1    0    0  502  501  0.00000000000E+00  0.00000000000E+00  0.73196239661E+02  0.73196239661E+02  0.00000000000E+00 0.  1.
         21   -1    0    0  501  502 -0.00000000000E+00 -0.00000000000E+00 -0.71475673020E+03  0.71475673020E+03  0.00000000000E+00 0.  1.
      99926    2    1    2    0    0 -0.14210854715E-13  0.00000000000E+00 -0.64156049054E+03  0.78795296986E+03  0.45746040232E+03 0.  0.
      99925    2    3    3    0    0 -0.65154868266E+02 -0.77810350301E+02 -0.30794815110E+03  0.41748798015E+03  0.26299152521E+03 0.  0.
         25    1    3    3    0    0  0.65154868266E+02  0.77810350301E+02 -0.33361233944E+03  0.37046498971E+03  0.12509000000E+03 0.  0.
         25    1    4    4    0    0 -0.67289079574E+02 -0.32037110406E+02 -0.12998880409E+03  0.19518912357E+03  0.12509000000E+03 0.  0.
         25    1    4    4    0    0  0.21342113074E+01 -0.45773239894E+02 -0.17795934701E+03  0.22229885658E+03  0.12509000000E+03 0.  0.
<mgrwt>
<rscale>  2 0.45746040E+03</rscale>
<asrwt>0</asrwt>
<pdfrwt beam="1">  1       21 0.10764152E-01 0.45746040E+03</pdfrwt>
<pdfrwt beam="2">  1       21 0.10511129E+00 0.45746040E+03</pdfrwt>
<totfact> 0.47430489E+04</totfact>
</mgrwt>
</event>
<event>
 7    0  0.4766352E-002  0.4533455E+03  0.7546771E-02  0.1026729E+00
         21   -1    0    0  502  501  0.00000000000E+00  0.00000000000E+00  0.83644086466E+02  0.83644086466E+02  0.00000000000E+00 0. -1.
         21   -1    0    0  501  502 -0.00000000000E+00 -0.00000000000E+00 -0.61427566052E+03  0.61427566052E+03  0.00000000000E+00 0. -1.
      99926    2    1    2    0    0  0.00000000000E+00  0.00000000000E+00 -0.53063157406E+03  0.69791974699E+03  0.45334545972E+03 0.  0.
      99925    2    3    3    0    0  0.11409882002E+02 -0.10261505863E+03 -0.26973399315E+03  0.39071445490E+03  0.26313745940E+03 0.  0.
         25    1    4    4    0    0  0.64393396453E+00 -0.45897354192E+02 -0.77290474935E+02  0.15403995387E+03  0.12509000000E+03 0.  0.
         25    1    4    4    0    0  0.10765948038E+02 -0.56717704438E+02 -0.19244351822E+03  0.23667450103E+03  0.12509000000E+03 0.  0.
         25    1    3    3    0    0 -0.11409882002E+02  0.10261505863E+03 -0.26089758090E+03  0.30720529209E+03  0.12509000000E+03 0.  0.
<mgrwt>
<rscale>  2 0.45334546E+03</rscale>
<asrwt>0</asrwt>
<pdfrwt beam="1">  1       21 0.12300601E-01 0.45334546E+03</pdfrwt>
<pdfrwt beam="2">  1       21 0.90334655E-01 0.45334546E+03</pdfrwt>
<totfact> 0.53712061E+04</totfact>
</mgrwt>
</event>
<event>
 7    0  0.4766352E-002  0.4567580E+03  0.7546771E-02  0.1025726E+00
         21   -1    0    0  502  501  0.00000000000E+00  0.00000000000E+00  0.20197436252E+03  0.20197436252E+03  0.00000000000E+00 0.  1.
         21   -1    0    0  501  502 -0.00000000000E+00 -0.00000000000E+00 -0.25823552940E+03  0.25823552940E+03  0.00000000000E+00 0.  1.
      99926    2    1    2    0    0  0.14210854715E-13 -0.35527136788E-14 -0.56261166887E+02  0.46020989192E+03  0.45675795091E+03 0.  0.
      99925    2    3    3    0    0 -0.11121112808E+03 -0.27105849736E+02 -0.32197503827E+02  0.28895216194E+03  0.26335153415E+03 0.  0.
         25    1    4    4    0    0 -0.94315240027E+02  0.54217507242E+01 -0.20199294793E+02  0.15805150899E+03  0.12509000000E+03 0.  0.
         25    1    4    4    0    0 -0.16895888050E+02 -0.32527600460E+02 -0.11998209034E+02  0.13090065296E+03  0.12509000000E+03 0.  0.
         25    1    3    3    0    0  0.11121112808E+03  0.27105849736E+02 -0.24063663060E+02  0.17125772998E+03  0.12509000000E+03 0.  0.
<mgrwt>
<rscale>  2 0.45675795E+03</rscale>
<asrwt>0</asrwt>
<pdfrwt beam="1">  1       21 0.29702113E-01 0.45675795E+03</pdfrwt>
<pdfrwt beam="2">  1       21 0.37975813E-01 0.45675795E+03</pdfrwt>
<totfact> 0.67217919E+04</totfact>
</mgrwt>
</event>
<event>
 7    0  0.4766352E-002  0.4525298E+03  0.7546771E-02  0.1026970E+00
         21   -1    0    0  502  501  0.00000000000E+00  0.00000000000E+00  0.32505836445E+03  0.32505836445E+03  0.00000000000E+00 0. -1.
         21   -1    0    0  501  502 -0.00000000000E+00 -0.00000000000E+00 -0.15749725673E+03  0.15749725673E+03  0.00000000000E+00 0. -1.
      99926    2    1    2    0    0 -0.17763568394E-14  0.00000000000E+00  0.16756110772E+03  0.48255562119E+03  0.45252978103E+03 0.  0.
      99925    2    3    3    0    0 -0.91860180491E+01  0.15542988001E+02  0.22219857754E+03  0.34486492211E+03  0.26312285958E+03 0.  0.
         25    1    4    4    0    0  0.10314970460E+00  0.63400106648E+01  0.16379292052E+03  0.20619368392E+03  0.12509000000E+03 0.  0.
         25    1    3    3    0    0  0.91860180491E+01 -0.15542988001E+02 -0.54637469823E+02  0.13769069908E+03  0.12509000000E+03 0.  0.
         25    1    4    4    0    0 -0.92891677537E+01  0.92029773360E+01  0.58405657028E+02  0.13867123819E+03  0.12509000000E+03 0.  0.
<mgrwt>
<rscale>  2 0.45252978E+03</rscale>
<asrwt>0</asrwt>
<pdfrwt beam="1">  1       21 0.47802701E-01 0.45252978E+03</pdfrwt>
<pdfrwt beam="2">  1       21 0.23161361E-01 0.45252978E+03</pdfrwt>
<totfact> 0.67834998E+04</totfact>
</mgrwt>
</event>
<event>
 7    0  0.4766352E-002  0.4565423E+03  0.7546771E-02  0.1025789E+00
         21   -1    0    0  502  501  0.00000000000E+00  0.00000000000E+00  0.71177110639E+02  0.71177110639E+02  0.00000000000E+00 0.  1.
         21   -1    0    0  501  502 -0.00000000000E+00 -0.00000000000E+00 -0.73208529455E+03  0.73208529455E+03  0.00000000000E+00 0.  1.
      99926    2    1    2    0    0  0.00000000000E+00  0.00000000000E+00 -0.66090818391E+03  0.80326240519E+03  0.45654229161E+03 0.  0.
      99925    2    3    3    0    0 -0.77991745432E+02 -0.83146403505E+02 -0.39877684624E+03  0.49124256117E+03  0.26324939513E+03 0.  0.
         25    1    4    4    0    0 -0.13200641960E+02 -0.50692351024E+02 -0.24604085912E+03  0.28094053437E+03  0.12509000000E+03 0.  0.
         25    1    4    4    0    0 -0.64791103473E+02 -0.32454052481E+02 -0.15273598712E+03  0.21030202680E+03  0.12509000000E+03 0.  0.
         25    1    3    3    0    0  0.77991745432E+02  0.83146403505E+02 -0.26213133767E+03  0.31201984402E+03  0.12509000000E+03 0.  0.
<mgrwt>
<rscale>  2 0.45654229E+03</rscale>
<asrwt>0</asrwt>
<pdfrwt beam="1">  1       21 0.10467222E-01 0.45654229E+03</pdfrwt>
<pdfrwt beam="2">  1       21 0.10765961E+00 0.45654229E+03</pdfrwt>
<totfact> 0.47035537E+04</totfact>
</mgrwt>
</event>
<event>
 7    0  0.4766352E-002  0.4599736E+03  0.7546771E-02  0.1024789E+00
         21   -1    0    0  502  501  0.00000000000E+00  0.00000000000E+00  0.10991477783E+03  0.10991477783E+03  0.00000000000E+00 0. -1.
         21   -1    0    0  501  502 -0.00000000000E+00 -0.00000000000E+00 -0.48122675085E+03  0.48122675085E+03  0.00000000000E+00 0. -1.
      99926    2    1    2    0    0  0.17763568394E-14  0.00000000000E+00 -0.37131197302E+03  0.59114152868E+03  0.45997361404E+03 0.  0.
      99925    2    3    3    0    0 -0.20632553385E+01  0.11777986960E+03 -0.23803170345E+03  0.37368465234E+03  0.26287786679E+03 0.  0.
         25    1    3    3    0    0  0.20632553385E+01 -0.11777986960E+03 -0.13328026957E+03  0.21745687633E+03  0.12509000000E+03 0.  0.
         25    1    4    4    0    0 -0.38264032071E+02  0.44832490992E+02 -0.10326289773E+03  0.17258279910E+03  0.12509000000E+03 0.  0.
         25    1    4    4    0    0  0.36200776733E+02  0.72947378611E+02 -0.13476880572E+03  0.20110185324E+03  0.12509000000E+03 0.  0.
<mgrwt>
<rscale>  2 0.45997361E+03</rscale>
<asrwt>0</asrwt>
<pdfrwt beam="1">  1       21 0.16163938E-01 0.45997361E+03</pdfrwt>
<pdfrwt beam="2">  1       21 0.70768639E-01 0.45997361E+03</pdfrwt>
<totfact> 0.56954818E+04</totfact>
</mgrwt>
</event>
<event>
 7    0  0.4766352E-002  0.4270182E+03  0.7546771E-02  0.1034806E+00
         21   -1    0    0  502  501  0.00000000000E+00  0.00000000000E+00  0.54429766513E+03  0.54429766513E+03  0.00000000000E+00 0.  1.
         21   -1    0    0  501  502 -0.00000000000E+00 -0.00000000000E+00 -0.83752217531E+02  0.83752217531E+02  0.00000000000E+00 0.  1.
      99926    2    1    2    0    0  0.00000000000E+00  0.35527136788E-14  0.46054544760E+03  0.62804988266E+03  0.42701820313E+03 0.  0.
      99925    2    3    3    0    0  0.73208527646E+02  0.16325721114E+02  0.24130816381E+03  0.36472781296E+03  0.26300328883E+03 0.  0.
         25    1    4    4    0    0  0.29853429983E+02  0.38716763175E+02  0.86251023750E+02  0.15961504387E+03  0.12509000000E+03 0.  0.
         25    1    4    4    0    0  0.43355097663E+02 -0.22391042061E+02  0.15505714006E+03  0.20511276908E+03  0.12509000000E+03 0.  0.
         25    1    3    3    0    0 -0.73208527646E+02 -0.16325721114E+02  0.21923728379E+03  0.26332206970E+03  0.12509000000E+03 0.  0.
<mgrwt>
<rscale>  2 0.42701820E+03</rscale>
<asrwt>0</asrwt>
<pdfrwt beam="1">  1       21 0.80043772E-01 0.42701820E+03</pdfrwt>
<pdfrwt beam="2">  1       21 0.12316503E-01 0.42701820E+03</pdfrwt>
<totfact> 0.71514578E+04</totfact>
</mgrwt>
</event>
<event>
 7    0  0.4766352E-002  0.4547282E+03  0.7546771E-02  0.1026321E+00
         21   -1    0    0  502  501  0.00000000000E+00  0.00000000000E+00  0.41203069468E+03  0.41203069468E+03  0.00000000000E+00 0.  1.
         21   -1    0    0  501  502 -0.00000000000E+00 -0.00000000000E+00 -0.12546255543E+03  0.12546255543E+03  0.00000000000E+00 0.  1.
      99926    2    1    2    0    0  0.00000000000E+00  0.00000000000E+00  0.28656813924E+03  0.53749325011E+03  0.45472815559E+03 0.  0.
      99925    2    3    3    0    0  0.19873207166E+02  0.36027989931E+02  0.56271202853E+02  0.27220633481E+03  0.26312901782E+03 0.  0.
         25    1    4    4    0    0  0.22471779852E+02  0.48044354112E+02  0.35837536880E+01  0.13591759357E+03  0.12509000000E+03 0.  0.
         25    1    4    4    0    0 -0.25985726863E+01 -0.12016364181E+02  0.52687449165E+02  0.13628874124E+03  0.12509000000E+03 0.  0.
         25    1    3    3    0    0 -0.19873207166E+02 -0.36027989931E+02  0.23029693639E+03  0.26528691531E+03  0.12509000000E+03 0.  0.
<mgrwt>
<rscale>  2 0.45472816E+03</rscale>
<asrwt>0</asrwt>
<pdfrwt beam="1">  1       21 0.60592749E-01 0.45472816E+03</pdfrwt>
<pdfrwt beam="2">  1       21 0.18450376E-01 0.45472816E+03</pdfrwt>
<totfact> 0.62835692E+04</totfact>
</mgrwt>
</event>
<event>
 7    0  0.4766352E-002  0.4399332E+03  0.7546771E-02  0.1030767E+00
         21   -1    0    0  502  501  0.00000000000E+00  0.00000000000E+00  0.35827966951E+02  0.35827966951E+02  0.00000000000E+00 0.  1.
         21   -1    0    0  501  502 -0.00000000000E+00 -0.00000000000E+00 -0.13504895628E+04  0.13504895628E+04  0.00000000000E+00 0.  1.
      99926    2    1    2    0    0  0.00000000000E+00  0.00000000000E+00 -0.13146615959E+04  0.13863175298E+04  0.43993315595E+03 0.  0.
      99925    2    3    3    0    0 -0.89792032322E+02  0.24893083504E+02 -0.93822681834E+03  0.97884615102E+03  0.26303602420E+03 0.  0.
         25    1    3    3    0    0  0.89792032322E+02 -0.24893083504E+02 -0.37643477755E+03  0.40747137878E+03  0.12509000000E+03 0.  0.
         25    1    4    4    0    0 -0.43417794749E+02  0.12923756926E+02 -0.61002419624E+03  0.62436300058E+03  0.12509000000E+03 0.  0.
         25    1    4    4    0    0 -0.46374237573E+02  0.11969326578E+02 -0.32820262210E+03  0.35448315044E+03  0.12509000000E+03 0.  0.
<mgrwt>
<rscale>  2 0.43993316E+03</rscale>
<asrwt>0</asrwt>
<pdfrwt beam="1">  1       21 0.52688192E-02 0.43993316E+03</pdfrwt>
<pdfrwt beam="2">  1       21 0.19860139E+00 0.43993316E+03</pdfrwt>
<totfact> 0.30068767E+04</totfact>
</mgrwt>
</event>
<event>
 7    0  0.4766352E-002  0.4478352E+03  0.7546771E-02  0.1028370E+00
         21   -1    0    0  502  501  0.00000000000E+00  0.00000000000E+00  0.12279108641E+04  0.12279108641E+04  0.00000000000E+00 0.  1.
         21   -1    0    0  501  502 -0.00000000000E+00 -0.00000000000E+00 -0.40832851101E+02  0.40832851101E+02  0.00000000000E+00 0.  1.
      99926    2    1    2    0    0  0.00000000000E+00 -0.14210854715E-13  0.11870780130E+04  0.12687437152E+04  0.44783524416E+03 0.  0.
      99925    2    3    3    0    0 -0.73914572285E+02  0.65870639878E+02  0.86005943662E+03  0.90488802596E+03  0.26328273741E+03 0.  0.
         25    1    4    4    0    0 -0.53173986771E+02  0.70654388169E+02  0.51172685072E+03  0.53416420068E+03  0.12509000000E+03 0.  0.
         25    1    3    3    0    0  0.73914572285E+02 -0.65870639878E+02  0.32701857639E+03  0.36385568924E+03  0.12509000000E+03 0.  0.
         25    1    4    4    0    0 -0.20740585514E+02 -0.47837482910E+01  0.34833258590E+03  0.37072382529E+03  0.12509000000E+03 0.  0.
<mgrwt>
<rscale>  2 0.44783524E+03</rscale>
<asrwt>0</asrwt>
<pdfrwt beam="1">  1       21 0.18057510E+00 0.44783524E+03</pdfrwt>
<pdfrwt beam="2">  1       21 0.60048319E-02 0.44783524E+03</pdfrwt>
<totfact> 0.31770576E+04</totfact>
</mgrwt>
</event>
<event>
 7    0  0.4766352E-002  0.4558773E+03  0.7546771E-02  0.1025984E+00
         21   -1    0    0  502  501  0.00000000000E+00  0.00000000000E+00  0.42622327888E+03  0.42622327888E+03  0.00000000000E+00 0. -1.
         21   -1    0    0  501  502 -0.00000000000E+00 -0.00000000000E+00 -0.12189862042E+03  0.12189862042E+03  0.00000000000E+00 0. -1.
      99926    2    1    2    0    0  0.00000000000E+00  0.00000000000E+00  0.30432465845E+03  0.54812189930E+03  0.45587730668E+03 0.  0.
      99925    2    3    3    0    0 -0.19643833595E+02 -0.10912799757E+03  0.22239797779E+03  0.36196527396E+03  0.26317902458E+03 0.  0.
         25    1    3    3    0    0  0.19643833595E+02  0.10912799757E+03  0.81926680665E+02  0.18615662534E+03  0.12509000000E+03 0.  0.
         25    1    4    4    0    0 -0.39761307438E+02 -0.78815142737E+02  0.14241038236E+03  0.20909570392E+03  0.12509000000E+03 0.  0.
         25    1    4    4    0    0  0.20117473843E+02 -0.30312854837E+02  0.79987595426E+02  0.15286957004E+03  0.12509000000E+03 0.  0.
<mgrwt>
<rscale>  2 0.45587731E+03</rscale>
<asrwt>0</asrwt>
<pdfrwt beam="1">  1       21 0.62679893E-01 0.45587731E+03</pdfrwt>
<pdfrwt beam="2">  1       21 0.17926268E-01 0.45587731E+03</pdfrwt>
<totfact> 0.61562340E+04</totfact>
</mgrwt>
</event>
<event>
 7    0  0.4766352E-002  0.4528364E+03  0.7546771E-02  0.1026880E+00
         21   -1    0    0  502  501  0.00000000000E+00  0.00000000000E+00  0.59948959606E+02  0.59948959606E+02  0.00000000000E+00 0. -1.
         21   -1    0    0  501  502 -0.00000000000E+00 -0.00000000000E+00 -0.85514735812E+03  0.85514735812E+03  0.00000000000E+00 0. -1.
      99926    2    1    2    0    0  0.71054273576E-14  0.00000000000E+00 -0.79519839851E+03  0.91509631772E+03  0.45283636969E+03 0.  0.
      99925    2    3    3    0    0  0.32500779856E+02 -0.84990094762E+02 -0.37255082421E+03  0.46503177006E+03  0.26302245845E+03 0.  0.
         25    1    3    3    0    0 -0.32500779856E+02  0.84990094762E+02 -0.42264757430E+03  0.45006454766E+03  0.12509000000E+03 0.  0.
         25    1    4    4    0    0  0.42631474259E+02 -0.72810379673E+02 -0.18006820000E+03  0.23492734778E+03  0.12509000000E+03 0.  0.
         25    1    4    4    0    0 -0.10130694403E+02 -0.12179715088E+02 -0.19248262421E+03  0.23010442227E+03  0.12509000000E+03 0.  0.
<mgrwt>
<rscale>  2 0.45283637E+03</rscale>
<asrwt>0</asrwt>
<pdfrwt beam="1">  1       21 0.88160241E-02 0.45283637E+03</pdfrwt>
<pdfrwt beam="2">  1       21 0.12575696E+00 0.45283637E+03</pdfrwt>
<totfact> 0.43316056E+04</totfact>
</mgrwt>
</event>
<event>
 7    0  0.4766352E-002  0.4464200E+03  0.7546771E-02  0.1028795E+00
         21   -1    0    0  502  501  0.00000000000E+00  0.00000000000E+00  0.20100849114E+03  0.20100849114E+03  0.00000000000E+00 0. -1.
         21   -1    0    0  501  502 -0.00000000000E+00 -0.00000000000E+00 -0.24786370889E+03  0.24786370889E+03  0.00000000000E+00 0. -1.
      99926    2    1    2    0    0  0.00000000000E+00  0.00000000000E+00 -0.46855217748E+02  0.44887220002E+03  0.44642002702E+03 0.  0.
      99925    2    3    3    0    0 -0.38594403970E+02 -0.76456597237E+02 -0.90597440199E+02  0.29108744346E+03  0.26303776210E+03 0.  0.
         25    1    4    4    0    0 -0.87373262921E+01 -0.13157239120E+01 -0.60060878606E+02  0.13904276047E+03  0.12509000000E+03 0.  0.
         25    1    4    4    0    0 -0.29857077678E+02 -0.75140873325E+02 -0.30536561593E+02  0.15204468299E+03  0.12509000000E+03 0.  0.
         25    1    3    3    0    0  0.38594403970E+02  0.76456597237E+02  0.43742222451E+02  0.15778475656E+03  0.12509000000E+03 0.  0.
<mgrwt>
<rscale>  2 0.44642003E+03</rscale>
<asrwt>0</asrwt>
<pdfrwt beam="1">  1       21 0.29560072E-01 0.44642003E+03</pdfrwt>
<pdfrwt beam="2">  1       21 0.36450545E-01 0.44642003E+03</pdfrwt>
<totfact> 0.73929779E+04</totfact>
</mgrwt>
</event>
<event>
 7    0  0.4766352E-002  0.4573289E+03  0.7546771E-02  0.1025559E+00
         21   -1    0    0  502  501  0.00000000000E+00  0.00000000000E+00  0.47163158051E+02  0.47163158051E+02  0.00000000000E+00 0.  1.
         21   -1    0    0  501  502 -0.00000000000E+00 -0.00000000000E+00 -0.11086496915E+04  0.11086496915E+04  0.00000000000E+00 0.  1.
      99926    2    1    2    0    0  0.26645352591E-14 -0.26645352591E-14 -0.10614865335E+04  0.11558128496E+04  0.45732885596E+03 0.  0.
      99925    2    3    3    0    0  0.55612398763E+01 -0.43877330437E+01 -0.37521140316E+03  0.45819458564E+03  0.26288495898E+03 0.  0.
         25    1    4    4    0    0  0.28164179860E+02  0.29108772778E+02 -0.19168909630E+03  0.23244947714E+03  0.12509000000E+03 0.  0.
         25    1    4    4    0    0 -0.22602939983E+02 -0.33496505822E+02 -0.18352230686E+03  0.22574510850E+03  0.12509000000E+03 0.  0.
         25    1    3    3    0    0 -0.55612398763E+01  0.43877330437E+01 -0.68627513029E+03  0.69761826392E+03  0.12509000000E+03 0.  0.
<mgrwt>
<rscale>  2 0.45732886E+03</rscale>
<asrwt>0</asrwt>
<pdfrwt beam="1">  1       21 0.69357590E-02 0.45732886E+03</pdfrwt>
<pdfrwt beam="2">  1       21 0.16303671E+00 0.45732886E+03</pdfrwt>
<totfact> 0.32986126E+04</totfact>
</mgrwt>
</event>
<event>
 7    0  0.4766352E-002  0.4535930E+03  0.7546771E-02  0.1026656E+00
         21   -1    0    0  502  501  0.00000000000E+00  0.00000000000E+00  0.35454628555E+03  0.35454628555E+03  0.00000000000E+00 0. -1.
         21   -1    0    0  501  502 -0.00000000000E+00 -0.00000000000E+00 -0.14507739274E+03  0.14507739274E+03  0.00000000000E+00 0. -1.
      99926    2    1    2    0    0  0.35527136788E-14  0.71054273576E-14  0.20946889280E+03  0.49962367829E+03  0.45359299251E+03 0.  0.
      99925    2    3    3    0    0 -0.20631788041E+02  0.49392954465E+02  0.23755066244E+02  0.26940102931E+03  0.26295869788E+03 0.  0.
         25    1    4    4    0    0  0.19488174346E+02  0.20385211569E+02 -0.15740989292E+02  0.12919223132E+03  0.12509000000E+03 0.  0.
         25    1    4    4    0    0 -0.40119962387E+02  0.29007742896E+02  0.39496055536E+02  0.14020879799E+03  0.12509000000E+03 0.  0.
         25    1    3    3    0    0  0.20631788041E+02 -0.49392954465E+02  0.18571382656E+03  0.23022264898E+03  0.12509000000E+03 0.  0.
<mgrwt>
<rscale>  2 0.45359299E+03</rscale>
<asrwt>0</asrwt>
<pdfrwt beam="1">  1       21 0.52139159E-01 0.45359299E+03</pdfrwt>
<pdfrwt beam="2">  1       21 0.21334911E-01 0.45359299E+03</pdfrwt>
<totfact> 0.66031525E+04</totfact>
</mgrwt>
</event>
<event>
 7    0  0.4766352E-002  0.4549319E+03  0.7546771E-02  0.1026261E+00
         21   -1    0    0  502  501  0.00000000000E+00  0.00000000000E+00  0.12145010689E+04  0.12145010689E+04  0.00000000000E+00 0. -1.
         21   -1    0    0  501  502 -0.00000000000E+00 -0.00000000000E+00 -0.42602482137E+02  0.42602482137E+02  0.00000000000E+00 0. -1.
      99926    2    1    2    0    0  0.35527136788E-14  0.00000000000E+00  0.11718985867E+04  0.12571035510E+04  0.45493190740E+03 0.  0.
      99925    2    3    3    0    0 -0.27211891584E+02 -0.97628367631E+02  0.59857544507E+03  0.66160483726E+03  0.26297644768E+03 0.  0.
         25    1    3    3    0    0  0.27211891584E+02  0.97628367631E+02  0.57332314167E+03  0.59549871376E+03  0.12509000000E+03 0.  0.
         25    1    4    4    0    0  0.53211079470E+01 -0.28993882251E+02  0.35379175642E+03  0.37641077882E+03  0.12509000000E+03 0.  0.
         25    1    4    4    0    0 -0.32532999531E+02 -0.68634485380E+02  0.24478368864E+03  0.28519405844E+03  0.12509000000E+03 0.  0.
<mgrwt>
<rscale>  2 0.45493191E+03</rscale>
<asrwt>0</asrwt>
<pdfrwt beam="1">  1       21 0.17860308E+00 0.45493191E+03</pdfrwt>
<pdfrwt beam="2">  1       21 0.62650717E-02 0.45493191E+03</pdfrwt>
<totfact> 0.30402486E+04</totfact>
</mgrwt>
</event>
<event>
 7    0  0.4766352E-002  0.4535641E+03  0.7546771E-02  0.1026665E+00
         21   -1    0    0  502  501  0.00000000000E+00  0.00000000000E+00  0.32067088605E+02  0.32067088605E+02  0.00000000000E+00 0. -1.
         21   -1    0    0  501  502 -0.00000000000E+00 -0.00000000000E+00 -0.16038279562E+04  0.16038279562E+04  0.00000000000E+00 0. -1.
      99926    2    1    2    0    0  0.00000000000E+00  0.00000000000E+00 -0.15717608676E+04  0.16358950448E+04  0.45356407785E+03 0.  0.
      99925    2    3    3    0    0 -0.81577900832E+02  0.48439463664E+02 -0.12035382832E+04  0.12355992601E+04  0.26305854240E+03 0.  0.
         25    1    3    3    0    0  0.81577900832E+02 -0.48439463664E+02 -0.36822258437E+03  0.40029578475E+03  0.12509000000E+03 0.  0.
         25    1    4    4    0    0 -0.32009748149E+02  0.62747075351E+02 -0.57356705842E+03  0.59126009340E+03  0.12509000000E+03 0.  0.
         25    1    4    4    0    0 -0.49568152682E+02 -0.14307611688E+02 -0.62997122482E+03  0.64433916668E+03  0.12509000000E+03 0.  0.
<mgrwt>
<rscale>  2 0.45356408E+03</rscale>
<asrwt>0</asrwt>
<pdfrwt beam="1">  1       21 0.47157473E-02 0.45356408E+03</pdfrwt>
<pdfrwt beam="2">  1       21 0.23585710E+00 0.45356408E+03</pdfrwt>
<totfact> 0.20862275E+04</totfact>
</mgrwt>
</event>
<event>
 7    0  0.4766352E-002  0.4555237E+03  0.7546771E-02  0.1026088E+00
         21   -1    0    0  502  501  0.00000000000E+00  0.00000000000E+00  0.42030297789E+02  0.42030297789E+02  0.00000000000E+00 0. -1.
         21   -1    0    0  501  502 -0.00000000000E+00 -0.00000000000E+00 -0.12342398022E+04  0.12342398022E+04  0.00000000000E+00 0. -1.
      99926    2    1    2    0    0  0.35527136788E-14  0.00000000000E+00 -0.11922095044E+04  0.12762701000E+04  0.45552372685E+03 0.  0.
      99925    2    3    3    0    0  0.21693781875E+02 -0.91434523691E+02 -0.92894337807E+03  0.97002272666E+03  0.26301596582E+03 0.  0.
         25    1    4    4    0    0  0.51029533786E+02 -0.53592526354E+02 -0.48908908915E+03  0.51022722137E+03  0.12509000000E+03 0.  0.
         25    1    3    3    0    0 -0.21693781875E+02  0.91434523691E+02 -0.26326612634E+03  0.30624737333E+03  0.12509000000E+03 0.  0.
         25    1    4    4    0    0 -0.29335751911E+02 -0.37841997337E+02 -0.43985428893E+03  0.45979550530E+03  0.12509000000E+03 0.  0.
<mgrwt>
<rscale>  2 0.45552373E+03</rscale>
<asrwt>0</asrwt>
<pdfrwt beam="1">  1       21 0.61809264E-02 0.45552373E+03</pdfrwt>
<pdfrwt beam="2">  1       21 0.18150585E+00 0.45552373E+03</pdfrwt>
<totfact> 0.29690582E+04</totfact>
</mgrwt>
</event>
<event>
 7    0  0.4766352E-002  0.4544226E+03  0.7546771E-02  0.1026411E+00
         21   -1    0    0  502  501  0.00000000000E+00  0.00000000000E+00  0.17669247962E+03  0.17669247962E+03  0.00000000000E+00 0.  1.
         21   -1    0    0  501  502 -0.00000000000E+00 -0.00000000000E+00 -0.29217421030E+03  0.29217421030E+03  0.00000000000E+00 0.  1.
      99926    2    1    2    0    0  0.00000000000E+00  0.00000000000E+00 -0.11548173068E+03  0.46886668991E+03  0.45442264775E+03 0.  0.
      99925    2    3    3    0    0  0.10877584620E+03  0.25975488796E+02 -0.86239834839E+02  0.29854491413E+03  0.26303012357E+03 0.  0.
         25    1    4    4    0    0  0.91713810386E+02  0.30575625030E+02 -0.33268414167E+02  0.16155676198E+03  0.12509000000E+03 0.  0.
         25    1    3    3    0    0 -0.10877584620E+03 -0.25975488796E+02 -0.29241895837E+02  0.17032177579E+03  0.12509000000E+03 0.  0.
         25    1    4    4    0    0  0.17062035815E+02 -0.46001362344E+01 -0.52971420672E+02  0.13698815214E+03  0.12509000000E+03 0.  0.
<mgrwt>
<rscale>  2 0.45442265E+03</rscale>
<asrwt>0</asrwt>
<pdfrwt beam="1">  1       21 0.25984188E-01 0.45442265E+03</pdfrwt>
<pdfrwt beam="2">  1       21 0.42966795E-01 0.45442265E+03</pdfrwt>
<totfact> 0.67830251E+04</totfact>
</mgrwt>
</event>
<event>
 7    0  0.4766352E-002  0.4475387E+03  0.7546771E-02  0.1028459E+00
         21   -1    0    0  502  501  0.00000000000E+00  0.00000000000E+00  0.22281347106E+04  0.22281347106E+04  0.00000000000E+00 0.  1.
         21   -1    0    0  501  502 -0.00000000000E+00 -0.00000000000E+00 -0.22472935087E+02  0.22472935087E+02  0.00000000000E+00 0.  1.
      99926    2    1    2    0    0 -0.71054273576E-14  0.00000000000E+00  0.22056617755E+04  0.22506076457E+04  0.44753872108E+03 0.  0.
      99925    2    3    3    0    0 -0.31105811868E+02  0.51607485765E+02  0.95897827681E+03  0.99621609670E+03  0.26301382439E+03 0.  0.
         25    1    3    3    0    0  0.31105811868E+02 -0.51607485765E+02  0.12466834987E+04  0.12543915490E+04  0.12509000000E+03 0.  0.
         25    1    4    4    0    0  0.20478793322E+01  0.12150524317E+02  0.33660776724E+03  0.35931062623E+03  0.12509000000E+03 0.  0.
         25    1    4    4    0    0 -0.33153691200E+02  0.39456961448E+02  0.62237050957E+03  0.63690547048E+03  0.12509000000E+03 0.  0.
<mgrwt>
<rscale>  2 0.44753872E+03</rscale>
<asrwt>0</asrwt>
<pdfrwt beam="1">  1       21 0.32766672E+00 0.44753872E+03</pdfrwt>
<pdfrwt beam="2">  1       21 0.33048449E-02 0.44753872E+03</pdfrwt>
<totfact> 0.10635908E+04</totfact>
</mgrwt>
</event>
<event>
 7    0  0.4766352E-002  0.4555222E+03  0.7546771E-02  0.1026088E+00
         21   -1    0    0  502  501  0.00000000000E+00  0.00000000000E+00  0.65481992591E+02  0.65481992591E+02  0.00000000000E+00 0. -1.
         21   -1    0    0  501  502 -0.00000000000E+00 -0.00000000000E+00 -0.79220420380E+03  0.79220420380E+03  0.00000000000E+00 0. -1.
      99926    2    1    2    0    0  0.00000000000E+00 -0.14210854715E-13 -0.72672221121E+03  0.85768619639E+03  0.45552216106E+03 0.  0.
      99925    2    3    3    0    0 -0.16451640192E+02 -0.10073213653E+03 -0.36282518283E+03  0.45958297465E+03  0.26297676229E+03 0.  0.
         25    1    4    4    0    0  0.72042320616E+01 -0.68249746796E+02 -0.13409456765E+03  0.19580293683E+03  0.12509000000E+03 0.  0.
         25    1    3    3    0    0  0.16451640192E+02  0.10073213653E+03 -0.36389702838E+03  0.39810322174E+03  0.12509000000E+03 0.  0.
         25    1    4    4    0    0 -0.23655872254E+02 -0.32482389731E+02 -0.22873061518E+03  0.26378003783E+03  0.12509000000E+03 0.  0.
<mgrwt>
<rscale>  2 0.45552216E+03</rscale>
<asrwt>0</asrwt>
<pdfrwt beam="1">  1       21 0.96297057E-02 0.45552216E+03</pdfrwt>
<pdfrwt beam="2">  1       21 0.11650061E+00 0.45552216E+03</pdfrwt>
<totfact> 0.44913231E+04</totfact>
</mgrwt>
</event>
<event>
 7    0  0.4766352E-002  0.4491304E+03  0.7546771E-02  0.1027982E+00
         21   -1    0    0  502  501  0.00000000000E+00  0.00000000000E+00  0.19662978886E+03  0.19662978886E+03  0.00000000000E+00 0. -1.
         21   -1    0    0  501  502 -0.00000000000E+00 -0.00000000000E+00 -0.25646943263E+03  0.25646943263E+03  0.00000000000E+00 0. -1.
      99926    2    1    2    0    0  0.00000000000E+00  0.71054273576E-14 -0.59839643774E+02  0.45309922148E+03  0.44913040594E+03 0.  0.
      99925    2    3    3    0    0  0.62871057064E+02  0.26105773745E+02 -0.12182413912E+03  0.29778062311E+03  0.26305493226E+03 0.  0.
         25    1    4    4    0    0  0.71973943561E+02  0.53064968397E+01 -0.59508613451E+02  0.15619600070E+03  0.12509000000E+03 0.  0.
         25    1    3    3    0    0 -0.62871057064E+02 -0.26105773745E+02  0.61984495344E+02  0.15531859838E+03  0.12509000000E+03 0.  0.
         25    1    4    4    0    0 -0.91028864969E+01  0.20799276906E+02 -0.62315525666E+02  0.14158462240E+03  0.12509000000E+03 0.  0.
<mgrwt>
<rscale>  2 0.44913041E+03</rscale>
<asrwt>0</asrwt>
<pdfrwt beam="1">  1       21 0.28916145E-01 0.44913041E+03</pdfrwt>
<pdfrwt beam="2">  1       21 0.37716093E-01 0.44913041E+03</pdfrwt>
<totfact> 0.71998009E+04</totfact>
</mgrwt>
</event>
<event>
 7    0  0.4766352E-002  0.4609454E+03  0.7546771E-02  0.1024507E+00
         21   -1    0    0  502  501  0.00000000000E+00  0.00000000000E+00  0.24908384815E+03  0.24908384815E+03  0.00000000000E+00 0. -1.
         21   -1    0    0  501  502 -0.00000000000E+00 -0.00000000000E+00 -0.21325214341E+03  0.21325214341E+03  0.00000000000E+00 0. -1.
      99926    2    1    2    0    0  0.00000000000E+00  0.00000000000E+00  0.35831704734E+02  0.46233599156E+03  0.46094539592E+03 0.  0.
      99925    2    3    3    0    0 -0.23103016851E+02 -0.51266310667E+02  0.12721891923E+03  0.29752969595E+03  0.26301574586E+03 0.  0.
         25    1    4    4    0    0  0.45559616667E+01 -0.28763313222E+02  0.10430458465E+03  0.16545404030E+03  0.12509000000E+03 0.  0.
         25    1    4    4    0    0 -0.27658978518E+02 -0.22502997445E+02  0.22914334583E+02  0.13207565565E+03  0.12509000000E+03 0.  0.
         25    1    3    3    0    0  0.23103016851E+02  0.51266310667E+02 -0.91387214494E+02  0.16480629560E+03  0.12509000000E+03 0.  0.
<mgrwt>
<rscale>  2 0.46094540E+03</rscale>
<asrwt>0</asrwt>
<pdfrwt beam="1">  1       21 0.36629978E-01 0.46094540E+03</pdfrwt>
<pdfrwt beam="2">  1       21 0.31360609E-01 0.46094540E+03</pdfrwt>
<totfact> 0.64879007E+04</totfact>
</mgrwt>
</event>
<event>
 7    0  0.4766352E-002  0.4563411E+03  0.7546771E-02  0.1025848E+00
         21   -1    0    0  502  501  0.00000000000E+00  0.00000000000E+00  0.58800678638E+03  0.58800678638E+03  0.00000000000E+00 0. -1.
         21   -1    0    0  501  502 -0.00000000000E+00 -0.00000000000E+00 -0.88539445433E+02  0.88539445433E+02  0.00000000000E+00 0. -1.
      99926    2    1    2    0    0  0.00000000000E+00  0.00000000000E+00  0.49946734095E+03  0.67654623182E+03  0.45634107760E+03 0.  0.
      99925    2    3    3    0    0  0.97741449582E+02 -0.58986278341E+02  0.32797464067E+03  0.43552750568E+03  0.26283848897E+03 0.  0.
         25    1    3    3    0    0 -0.97741449582E+02  0.58986278341E+02  0.17149270028E+03  0.24101872614E+03  0.12509000000E+03 0.  0.
         25    1    4    4    0    0  0.85772242442E+02 -0.46725679615E+02  0.20525675550E+03  0.25945714576E+03  0.12509000000E+03 0.  0.
         25    1    4    4    0    0  0.11969207139E+02 -0.12260598726E+02  0.12271788517E+03  0.17607035991E+03  0.12509000000E+03 0.  0.
<mgrwt>
<rscale>  2 0.45634108E+03</rscale>
<asrwt>0</asrwt>
<pdfrwt beam="1">  1       21 0.86471584E-01 0.45634108E+03</pdfrwt>
<pdfrwt beam="2">  1       21 0.13020507E-01 0.45634108E+03</pdfrwt>
<totfact> 0.53626396E+04</totfact>
</mgrwt>
</event>
<event>
 7    0  0.4766352E-002  0.4673467E+03  0.7546771E-02  0.1022672E+00
         21   -1    0    0  502  501  0.00000000000E+00  0.00000000000E+00  0.96204007256E+02  0.96204007256E+02  0.00000000000E+00 0.  1.
         21   -1    0    0  501  502 -0.00000000000E+00 -0.00000000000E+00 -0.56757755758E+03  0.56757755758E+03  0.00000000000E+00 0.  1.
      99926    2    1    2    0    0  0.00000000000E+00 -0.88817841970E-15 -0.47137355032E+03  0.66378156483E+03  0.46734670414E+03 0.  0.
      99925    2    3    3    0    0 -0.28842809879E+02 -0.40444314104E+01 -0.12161770904E+03  0.29118939943E+03  0.26296793356E+03 0.  0.
         25    1    4    4    0    0  0.19687636586E+02  0.11744085811E+02 -0.39844295830E+02  0.13326891084E+03  0.12509000000E+03 0.  0.
         25    1    4    4    0    0 -0.48530446464E+02 -0.15788517222E+02 -0.81773413211E+02  0.15792048860E+03  0.12509000000E+03 0.  0.
         25    1    3    3    0    0  0.28842809879E+02  0.40444314104E+01 -0.34975584128E+03  0.37259216540E+03  0.12509000000E+03 0.  0.
<mgrwt>
<rscale>  2 0.46734670E+03</rscale>
<asrwt>0</asrwt>
<pdfrwt beam="1">  1       21 0.14147648E-01 0.46734670E+03</pdfrwt>
<pdfrwt beam="2">  1       21 0.83467287E-01 0.46734670E+03</pdfrwt>
<totfact> 0.49877312E+04</totfact>
</mgrwt>
</event>
<event>
 7    0  0.4766352E-002  0.4653307E+03  0.7546771E-02  0.1023246E+00
         21   -1    0    0  502  501  0.00000000000E+00  0.00000000000E+00  0.28274450057E+03  0.28274450057E+03  0.00000000000E+00 0.  1.
         21   -1    0    0  501  502 -0.00000000000E+00 -0.00000000000E+00 -0.19145615001E+03  0.19145615001E+03  0.00000000000E+00 0.  1.
      99926    2    1    2    0    0 -0.14210854715E-13  0.00000000000E+00  0.91288350559E+02  0.47420065058E+03  0.46533073621E+03 0.  0.
      99925    2    3    3    0    0 -0.81882073550E+02  0.63593189930E+02 -0.94394700776E+01  0.28304006436E+03  0.26319917679E+03 0.  0.
         25    1    4    4    0    0 -0.13931614500E+02  0.17786781315E+02  0.25081074526E+02  0.12956476323E+03  0.12509000000E+03 0.  0.
         25    1    3    3    0    0  0.81882073550E+02 -0.63593189930E+02  0.10072782064E+03  0.19116058622E+03  0.12509000000E+03 0.  0.
         25    1    4    4    0    0 -0.67950459049E+02  0.45806408615E+02 -0.34520544604E+02  0.15347530112E+03  0.12509000000E+03 0.  0.
<mgrwt>
<rscale>  2 0.46533074E+03</rscale>
<asrwt>0</asrwt>
<pdfrwt beam="1">  1       21 0.41580074E-01 0.46533074E+03</pdfrwt>
<pdfrwt beam="2">  1       21 0.28155316E-01 0.46533074E+03</pdfrwt>
<totfact> 0.61891728E+04</totfact>
</mgrwt>
</event>
<event>
 7    0  0.4766352E-002  0.4550512E+03  0.7546771E-02  0.1026226E+00
         21   -1    0    0  502  501  0.00000000000E+00  0.00000000000E+00  0.21531250184E+03  0.21531250184E+03  0.00000000000E+00 0.  1.
         21   -1    0    0  501  502 -0.00000000000E+00 -0.00000000000E+00 -0.24043150943E+03  0.24043150943E+03  0.00000000000E+00 0.  1.
      99926    2    1    2    0    0  0.00000000000E+00  0.00000000000E+00 -0.25119007585E+02  0.45574401127E+03  0.45505124906E+03 0.  0.
      99925    2    3    3    0    0 -0.68263800459E+02  0.73841236495E+02  0.36240555508E+02  0.28391567035E+03  0.26302519907E+03 0.  0.
         25    1    3    3    0    0  0.68263800459E+02 -0.73841236495E+02 -0.61359563093E+02  0.17182834092E+03  0.12509000000E+03 0.  0.
         25    1    4    4    0    0 -0.42237422228E+02  0.19357729841E+02 -0.18304021867E+02  0.13468952022E+03  0.12509000000E+03 0.  0.
         25    1    4    4    0    0 -0.26026378231E+02  0.54483506655E+02  0.54544577375E+02  0.14922615013E+03  0.12509000000E+03 0.  0.
<mgrwt>
<rscale>  2 0.45505125E+03</rscale>
<asrwt>0</asrwt>
<pdfrwt beam="1">  1       21 0.31663603E-01 0.45505125E+03</pdfrwt>
<pdfrwt beam="2">  1       21 0.35357575E-01 0.45505125E+03</pdfrwt>
<totfact> 0.68463353E+04</totfact>
</mgrwt>
</event>
<event>
 7    0  0.4766352E-002  0.4504757E+03  0.7546771E-02  0.1027580E+00
         21   -1    0    0  502  501  0.00000000000E+00  0.00000000000E+00  0.22690994666E+03  0.22690994666E+03  0.00000000000E+00 0.  1.
         21   -1    0    0  501  502 -0.00000000000E+00 -0.00000000000E+00 -0.22357811950E+03  0.22357811950E+03  0.00000000000E+00 0.  1.
      99926    2    1    2    0    0  0.00000000000E+00 -0.35527136788E-14  0.33318271603E+01  0.45048806616E+03  0.45047574483E+03 0.  0.
      99925    2    3    3    0    0  0.87256957549E+02 -0.24196954119E+02 -0.57387273997E+02  0.28455559021E+03  0.26358929317E+03 0.  0.
         25    1    4    4    0    0  0.59610279226E+02  0.11471596910E+02  0.16669389878E+01  0.13905132042E+03  0.12509000000E+03 0.  0.
         25    1    3    3    0    0 -0.87256957549E+02  0.24196954119E+02  0.60719101157E+02  0.16593247595E+03  0.12509000000E+03 0.  0.
         25    1    4    4    0    0  0.27646678322E+02 -0.35668551029E+02 -0.59054212984E+02  0.14550426979E+03  0.12509000000E+03 0.  0.
<mgrwt>
<rscale>  2 0.45047574E+03</rscale>
<asrwt>0</asrwt>
<pdfrwt beam="1">  1       21 0.33369110E-01 0.45047574E+03</pdfrwt>
<pdfrwt beam="2">  1       21 0.32879135E-01 0.45047574E+03</pdfrwt>
<totfact> 0.71421215E+04</totfact>
</mgrwt>
</event>
<event>
 7    0  0.4766352E-002  0.4550051E+03  0.7546771E-02  0.1026240E+00
         21   -1    0    0  502  501  0.00000000000E+00  0.00000000000E+00  0.13022048764E+04  0.13022048764E+04  0.00000000000E+00 0.  1.
         21   -1    0    0  501  502 -0.00000000000E+00 -0.00000000000E+00 -0.39745977897E+02  0.39745977897E+02  0.00000000000E+00 0.  1.
      99926    2    1    2    0    0 -0.71054273576E-14  0.00000000000E+00  0.12624588985E+04  0.13419508543E+04  0.45500508232E+03 0.  0.
      99925    2    3    3    0    0  0.57411913834E+02  0.65262281574E+02  0.10071460085E+04  0.10446505463E+04  0.26343194216E+03 0.  0.
         25    1    3    3    0    0 -0.57411913834E+02 -0.65262281574E+02  0.25531288998E+03  0.29730030800E+03  0.12509000000E+03 0.  0.
         25    1    4    4    0    0  0.44505311848E+01  0.48839057711E+02  0.38926855441E+03  0.41180405090E+03  0.12509000000E+03 0.  0.
         25    1    4    4    0    0  0.52961382649E+02  0.16423223863E+02  0.61787745409E+03  0.63284649537E+03  0.12509000000E+03 0.  0.
<mgrwt>
<rscale>  2 0.45500508E+03</rscale>
<asrwt>0</asrwt>
<pdfrwt beam="1">  1       21 0.19150069E+00 0.45500508E+03</pdfrwt>
<pdfrwt beam="2">  1       21 0.58449976E-02 0.45500508E+03</pdfrwt>
<totfact> 0.27919229E+04</totfact>
</mgrwt>
</event>
<event>
 7    0  0.4766352E-002  0.4260924E+03  0.7546771E-02  0.1035102E+00
         21   -1    0    0  502  501  0.00000000000E+00  0.00000000000E+00  0.26733754643E+03  0.26733754643E+03  0.00000000000E+00 0. -1.
         21   -1    0    0  501  502 -0.00000000000E+00 -0.00000000000E+00 -0.16978043673E+03  0.16978043673E+03  0.00000000000E+00 0. -1.
      99926    2    1    2    0    0  0.00000000000E+00  0.00000000000E+00  0.97557109699E+02  0.43711798316E+03  0.42609240964E+03 0.  0.
      99925    2    3    3    0    0 -0.78622383103E+02  0.26487961119E+02  0.59107068960E+02  0.28216958871E+03  0.26314053277E+03 0.  0.
         25    1    4    4    0    0 -0.48780741239E+02 -0.20788863707E+02  0.85817702945E+01  0.13613556645E+03  0.12509000000E+03 0.  0.
         25    1    3    3    0    0  0.78622383103E+02 -0.26487961119E+02  0.38450040739E+02  0.15494839445E+03  0.12509000000E+03 0.  0.
         25    1    4    4    0    0 -0.29841641864E+02  0.47276824826E+02  0.50525298665E+02  0.14603402227E+03  0.12509000000E+03 0.  0.
<mgrwt>
<rscale>  2 0.42609241E+03</rscale>
<asrwt>0</asrwt>
<pdfrwt beam="1">  1       21 0.39314345E-01 0.42609241E+03</pdfrwt>
<pdfrwt beam="2">  1       21 0.24967711E-01 0.42609241E+03</pdfrwt>
<totfact> 0.88597500E+04</totfact>
</mgrwt>
</event>
<event>
 7    0  0.4766352E-002  0.4594665E+03  0.7546771E-02  0.1024936E+00
         21   -1    0    0  502  501  0.00000000000E+00  0.00000000000E+00  0.10571380421E+04  0.10571380421E+04  0.00000000000E+00 0. -1.
         21   -1    0    0  501  502 -0.00000000000E+00 -0.00000000000E+00 -0.49924762518E+02  0.49924762518E+02  0.00000000000E+00 0. -1.
      99926    2    1    2    0    0  0.00000000000E+00 -0.14210854715E-13  0.10072132796E+04  0.11070628046E+04  0.45946649802E+03 0.  0.
      99925    2    3    3    0    0 -0.36920349631E+02 -0.11122363416E+03  0.64492035354E+03  0.70626674504E+03  0.26297650794E+03 0.  0.
         25    1    4    4    0    0 -0.57402450892E+02 -0.68801079952E+02  0.32720366968E+03  0.36157762586E+03  0.12509000000E+03 0.  0.
         25    1    4    4    0    0  0.20482101261E+02 -0.42422554208E+02  0.31771668386E+03  0.34468911918E+03  0.12509000000E+03 0.  0.
         25    1    3    3    0    0  0.36920349631E+02  0.11122363416E+03  0.36229292603E+03  0.40079605956E+03  0.12509000000E+03 0.  0.
<mgrwt>
<rscale>  2 0.45946650E+03</rscale>
<asrwt>0</asrwt>
<pdfrwt beam="1">  1       21 0.15546146E+00 0.45946650E+03</pdfrwt>
<pdfrwt beam="2">  1       21 0.73418775E-02 0.45946650E+03</pdfrwt>
<totfact> 0.34047274E+04</totfact>
</mgrwt>
</event>
<event>
 7    0  0.4766352E-002  0.4340523E+03  0.7546771E-02  0.1032587E+00
         21   -1    0    0  502  501  0.00000000000E+00  0.00000000000E+00  0.20638997875E+04  0.20638997875E+04  0.00000000000E+00 0. -1.
         21   -1    0    0  501  502 -0.00000000000E+00 -0.00000000000E+00 -0.22821044397E+02  0.22821044397E+02  0.00000000000E+00 0. -1.
      99926    2    1    2    0    0  0.00000000000E+00  0.00000000000E+00  0.20410787431E+04  0.20867208319E+04  0.43405229493E+03 0.  0.
      99925    2    3    3    0    0  0.57710791795E+02  0.71975486396E+02  0.13136983364E+04  0.13429192654E+04  0.26290269732E+03 0.  0.
         25    1    3    3    0    0 -0.57710791795E+02 -0.71975486396E+02  0.72738040677E+03  0.74380156653E+03  0.12509000000E+03 0.  0.
         25    1    4    4    0    0  0.57205566830E+01  0.32355621458E+02  0.79087431042E+03  0.80137961915E+03  0.12509000000E+03 0.  0.
         25    1    4    4    0    0  0.51990235112E+02  0.39619864938E+02  0.52282402594E+03  0.54153964624E+03  0.12509000000E+03 0.  0.
<mgrwt>
<rscale>  2 0.43405229E+03</rscale>
<asrwt>0</asrwt>
<pdfrwt beam="1">  1       21 0.30351455E+00 0.43405229E+03</pdfrwt>
<pdfrwt beam="2">  1       21 0.33560373E-02 0.43405229E+03</pdfrwt>
<totfact> 0.14575707E+04</totfact>
</mgrwt>
</event>
<event>
 7    0  0.4766352E-002  0.4672651E+03  0.7546771E-02  0.1022695E+00
         21   -1    0    0  502  501  0.00000000000E+00  0.00000000000E+00  0.16846763871E+03  0.16846763871E+03  0.00000000000E+00 0. -1.
         21   -1    0    0  501  502 -0.00000000000E+00 -0.00000000000E+00 -0.32400385124E+03  0.32400385124E+03  0.00000000000E+00 0. -1.
      99926    2    1    2    0    0  0.00000000000E+00  0.14210854715E-13 -0.15553621253E+03  0.49247148995E+03  0.46726508002E+03 0.  0.
      99925    2    3    3    0    0 -0.35361979385E+02  0.10888388897E+03 -0.14803493124E+03  0.32273655488E+03  0.26294176565E+03 0.  0.
         25    1    4    4    0    0 -0.35224270866E+02  0.19777539824E+02 -0.50594799916E+02  0.14085184492E+03  0.12509000000E+03 0.  0.
         25    1    4    4    0    0 -0.13770851848E+00  0.89106349147E+02 -0.97440131327E+02  0.18188470995E+03  0.12509000000E+03 0.  0.
         25    1    3    3    0    0  0.35361979385E+02 -0.10888388897E+03 -0.75012812916E+01  0.16973493507E+03  0.12509000000E+03 0.  0.
<mgrwt>
<rscale>  2 0.46726508E+03</rscale>
<asrwt>0</asrwt>
<pdfrwt beam="1">  1       21 0.24774653E-01 0.46726508E+03</pdfrwt>
<pdfrwt beam="2">  1       21 0.47647625E-01 0.46726508E+03</pdfrwt>
<totfact> 0.59768179E+04</totfact>
</mgrwt>
</event>
<event>
 7    0  0.4766352E-002  0.4586880E+03  0.7546771E-02  0.1025162E+00
         21   -1    0    0  502  501  0.00000000000E+00  0.00000000000E+00  0.37524663650E+02  0.37524663650E+02  0.00000000000E+00 0.  1.
         21   -1    0    0  501  502 -0.00000000000E+00 -0.00000000000E+00 -0.14017092950E+04  0.14017092950E+04  0.00000000000E+00 0.  1.
      99926    2    1    2    0    0 -0.71054273576E-14  0.00000000000E+00 -0.13641846314E+04  0.14392339587E+04  0.45868799780E+03 0.  0.
      99925    2    3    3    0    0 -0.63442289156E+02  0.63577452069E+02 -0.62633763616E+03  0.68548817068E+03  0.26368196983E+03 0.  0.
         25    1    4    4    0    0 -0.41552038654E+02  0.63316849189E+00 -0.23752886634E+03  0.27165132664E+03  0.12509000000E+03 0.  0.
         25    1    4    4    0    0 -0.21890250502E+02  0.62944283577E+02 -0.38880876982E+03  0.41383684405E+03  0.12509000000E+03 0.  0.
         25    1    3    3    0    0  0.63442289156E+02 -0.63577452069E+02 -0.73784699522E+03  0.75374578800E+03  0.12509000000E+03 0.  0.
<mgrwt>
<rscale>  2 0.45868800E+03</rscale>
<asrwt>0</asrwt>
<pdfrwt beam="1">  1       21 0.55183320E-02 0.45868800E+03</pdfrwt>
<pdfrwt beam="2">  1       21 0.20613375E+00 0.45868800E+03</pdfrwt>
<totfact> 0.24592703E+04</totfact>
</mgrwt>
</event>
<event>
 7    0  0.4766352E-002  0.4451184E+03  0.7546771E-02  0.1029188E+00
         21   -1    0    0  502  501  0.00000000000E+00  0.00000000000E+00  0.70554761507E+02  0.70554761507E+02  0.00000000000E+00 0. -1.
         21   -1    0    0  501  502 -0.00000000000E+00 -0.00000000000E+00 -0.70204472757E+03  0.70204472757E+03  0.00000000000E+00 0. -1.
      99926    2    1    2    0    0 -0.88817841970E-15  0.00000000000E+00 -0.63148996607E+03  0.77259948908E+03  0.44511840367E+03 0.  0.
      99925    2    3    3    0    0 -0.47309256782E+01 -0.89477246360E+02 -0.49143127132E+03  0.56453097789E+03  0.26298663710E+03 0.  0.
         25    1    4    4    0    0 -0.12907103419E+02 -0.38147005475E+02 -0.16378767804E+03  0.20998975909E+03  0.12509000000E+03 0.  0.
         25    1    4    4    0    0  0.81761777404E+01 -0.51330240885E+02 -0.32764359328E+03  0.35454121880E+03  0.12509000000E+03 0.  0.
         25    1    3    3    0    0  0.47309256782E+01  0.89477246360E+02 -0.14005869475E+03  0.20806851119E+03  0.12509000000E+03 0.  0.
<mgrwt>
<rscale>  2 0.44511840E+03</rscale>
<asrwt>0</asrwt>
<pdfrwt beam="1">  1       21 0.10375700E-01 0.44511840E+03</pdfrwt>
<pdfrwt beam="2">  1       21 0.10324187E+00 0.44511840E+03</pdfrwt>
<totfact> 0.53121004E+04</totfact>
</mgrwt>
</event>
<event>
 7    0  0.4766352E-002  0.4500215E+03  0.7546771E-02  0.1027716E+00
         21   -1    0    0  502  501  0.00000000000E+00  0.00000000000E+00  0.31252102394E+03  0.31252102394E+03  0.00000000000E+00 0. -1.
         21   -1    0    0  501  502 -0.00000000000E+00 -0.00000000000E+00 -0.16200455167E+03  0.16200455167E+03  0.00000000000E+00 0. -1.
      99926    2    1    2    0    0  0.00000000000E+00  0.00000000000E+00  0.15051647228E+03  0.47452557561E+03  0.45002145891E+03 0.  0.
      99925    2    3    3    0    0 -0.45697694133E+02  0.90470997088E+02  0.54403725970E+02  0.28701971259E+03  0.26295868393E+03 0.  0.
         25    1    4    4    0    0  0.15518147767E+02  0.55794221862E+02  0.34791126827E+02  0.14216799467E+03  0.12509000000E+03 0.  0.
         25    1    3    3    0    0  0.45697694133E+02 -0.90470997088E+02  0.96112746305E+02  0.18750586302E+03  0.12509000000E+03 0.  0.
         25    1    4    4    0    0 -0.61215841901E+02  0.34676775226E+02  0.19612599143E+02  0.14485171792E+03  0.12509000000E+03 0.  0.
<mgrwt>
<rscale>  2 0.45002146E+03</rscale>
<asrwt>0</asrwt>
<pdfrwt beam="1">  1       21 0.45958974E-01 0.45002146E+03</pdfrwt>
<pdfrwt beam="2">  1       21 0.23824199E-01 0.45002146E+03</pdfrwt>
<totfact> 0.69819056E+04</totfact>
</mgrwt>
</event>
<event>
 7    0  0.4766352E-002  0.4531283E+03  0.7546771E-02  0.1026793E+00
         21   -1    0    0  502  501  0.00000000000E+00  0.00000000000E+00  0.52213968233E+03  0.52213968233E+03  0.00000000000E+00 0. -1.
         21   -1    0    0  501  502 -0.00000000000E+00 -0.00000000000E+00 -0.98309552462E+02  0.98309552462E+02  0.00000000000E+00 0. -1.
      99926    2    1    2    0    0 -0.28421709430E-13 -0.14210854715E-13  0.42383012987E+03  0.62044923479E+03  0.45312831954E+03 0.  0.
      99925    2    3    3    0    0 -0.79428194699E+02 -0.77243928108E+02  0.25253287951E+03  0.38114666768E+03  0.26310542471E+03 0.  0.
         25    1    4    4    0    0 -0.73090765847E+02 -0.31978335384E+02  0.10139408754E+03  0.17970293006E+03  0.12509000000E+03 0.  0.
         25    1    3    3    0    0  0.79428194699E+02  0.77243928108E+02  0.17129725036E+03  0.23930256711E+03  0.12509000000E+03 0.  0.
         25    1    4    4    0    0 -0.63374288520E+01 -0.45265592723E+02  0.15113879197E+03  0.20144373762E+03  0.12509000000E+03 0.  0.
<mgrwt>
<rscale>  2 0.45312832E+03</rscale>
<asrwt>0</asrwt>
<pdfrwt beam="1">  1       21 0.76785246E-01 0.45312832E+03</pdfrwt>
<pdfrwt beam="2">  1       21 0.14457287E-01 0.45312832E+03</pdfrwt>
<totfact> 0.58293675E+04</totfact>
</mgrwt>
</event>
<event>
 7    0  0.4766352E-002  0.4497446E+03  0.7546771E-02  0.1027798E+00
         21   -1    0    0  502  501  0.00000000000E+00  0.00000000000E+00  0.78783316788E+02  0.78783316788E+02  0.00000000000E+00 0.  1.
         21   -1    0    0  501  502 -0.00000000000E+00 -0.00000000000E+00 -0.64185603974E+03  0.64185603974E+03  0.00000000000E+00 0.  1.
      99926    2    1    2    0    0  0.00000000000E+00  0.00000000000E+00 -0.56307272296E+03  0.72063935653E+03  0.44974458401E+03 0.  0.
      99925    2    3    3    0    0 -0.57825029288E+02  0.80108928007E+02 -0.28559533780E+03  0.40063563509E+03  0.26302669214E+03 0.  0.
         25    1    4    4    0    0 -0.49386365102E+02  0.56430893177E+01 -0.14956021033E+03  0.20121287765E+03  0.12509000000E+03 0.  0.
         25    1    4    4    0    0 -0.84386641858E+01  0.74465838690E+02 -0.13603512746E+03  0.19942275745E+03  0.12509000000E+03 0.  0.
         25    1    3    3    0    0  0.57825029288E+02 -0.80108928007E+02 -0.27747738516E+03  0.32000372144E+03  0.12509000000E+03 0.  0.
<mgrwt>
<rscale>  2 0.44974458E+03</rscale>
<asrwt>0</asrwt>
<pdfrwt beam="1">  1       21 0.11585782E-01 0.44974458E+03</pdfrwt>
<pdfrwt beam="2">  1       21 0.94390590E-01 0.44974458E+03</pdfrwt>
<totfact> 0.53994222E+04</totfact>
</mgrwt>
</event>
<event>
 7    0  0.4766352E-002  0.4520998E+03  0.7546771E-02  0.1027098E+00
         21   -1    0    0  502  501  0.00000000000E+00  0.00000000000E+00  0.23863793600E+03  0.23863793600E+03  0.00000000000E+00 0.  1.
         21   -1    0    0  501  502 -0.00000000000E+00 -0.00000000000E+00 -0.21412589810E+03  0.21412589810E+03  0.00000000000E+00 0.  1.
      99926    2    1    2    0    0  0.26645352591E-14 -0.66613381478E-15  0.24512037899E+02  0.45276383411E+03  0.45209982247E+03 0.  0.
      99925    2    3    3    0    0 -0.64111634454E+01  0.12276167857E+01 -0.94882218673E+02  0.27971728932E+03  0.26305230747E+03 0.  0.
         25    1    3    3    0    0  0.64111634454E+01 -0.12276167857E+01  0.11939425657E+03  0.17304654479E+03  0.12509000000E+03 0.  0.
         25    1    4    4    0    0  0.28533526059E+02 -0.16851651512E+02 -0.66732321329E+02  0.14559825232E+03  0.12509000000E+03 0.  0.
         25    1    4    4    0    0 -0.34944689504E+02  0.18079268298E+02 -0.28149897345E+02  0.13411903701E+03  0.12509000000E+03 0.  0.
<mgrwt>
<rscale>  2 0.45209982E+03</rscale>
<asrwt>0</asrwt>
<pdfrwt beam="1">  1       21 0.35093814E-01 0.45209982E+03</pdfrwt>
<pdfrwt beam="2">  1       21 0.31489103E-01 0.45209982E+03</pdfrwt>
<totfact> 0.70323203E+04</totfact>
</mgrwt>
</event>
<event>
 7    0  0.4766352E-002  0.4565106E+03  0.7546771E-02  0.1025798E+00
         21   -1    0    0  502  501  0.00000000000E+00  0.00000000000E+00  0.17423403368E+03  0.17423403368E+03  0.00000000000E+00 0. -1.
         21   -1    0    0  501  502 -0.00000000000E+00 -0.00000000000E+00 -0.29902584597E+03  0.29902584597E+03  0.00000000000E+00 0. -1.
      99926    2    1    2    0    0  0.00000000000E+00 -0.88817841970E-15 -0.12479181230E+03  0.47325987965E+03  0.45651058835E+03 0.  0.
      99925    2    3    3    0    0  0.10194933257E+02 -0.41798866461E+01  0.39870964106E+02  0.26617838326E+03  0.26294453753E+03 0.  0.
         25    1    4    4    0    0  0.26432807339E+02  0.29617815129E+02  0.33439394084E+02  0.13543119823E+03  0.12509000000E+03 0.  0.
         25    1    4    4    0    0 -0.16237874082E+02 -0.33797701775E+02  0.64315700222E+01  0.13074718503E+03  0.12509000000E+03 0.  0.
         25    1    3    3    0    0 -0.10194933257E+02  0.41798866461E+01 -0.16466277640E+03  0.20708149640E+03  0.12509000000E+03 0.  0.
<mgrwt>
<rscale>  2 0.45651059E+03</rscale>
<asrwt>0</asrwt>
<pdfrwt beam="1">  1       21 0.25622652E-01 0.45651059E+03</pdfrwt>
<pdfrwt beam="2">  1       21 0.43974389E-01 0.45651059E+03</pdfrwt>
<totfact> 0.66394776E+04</totfact>
</mgrwt>
</event>
<event>
 7    0  0.4766352E-002  0.4502278E+03  0.7546771E-02  0.1027654E+00
         21   -1    0    0  502  501  0.00000000000E+00  0.00000000000E+00  0.10251409974E+03  0.10251409974E+03  0.00000000000E+00 0. -1.
         21   -1    0    0  501  502 -0.00000000000E+00 -0.00000000000E+00 -0.49433471511E+03  0.49433471511E+03  0.00000000000E+00 0. -1.
      99926    2    1    2    0    0  0.00000000000E+00  0.00000000000E+00 -0.39182061537E+03  0.59684881484E+03  0.45022784582E+03 0.  0.
      99925    2    3    3    0    0 -0.64609397014E+01  0.77809437822E+02 -0.14732418224E+03  0.31132812160E+03  0.26291582735E+03 0.  0.
         25    1    4    4    0    0 -0.20009561117E+01 -0.12731984957E+01 -0.53691375505E+02  0.13614660026E+03  0.12509000000E+03 0.  0.
         25    1    4    4    0    0 -0.44599835897E+01  0.79082636318E+02 -0.93632806735E+02  0.17518152134E+03  0.12509000000E+03 0.  0.
         25    1    3    3    0    0  0.64609397014E+01 -0.77809437822E+02 -0.24449643313E+03  0.28552069324E+03  0.12509000000E+03 0.  0.
<mgrwt>
<rscale>  2 0.45022785E+03</rscale>
<asrwt>0</asrwt>
<pdfrwt beam="1">  1       21 0.15075603E-01 0.45022785E+03</pdfrwt>
<pdfrwt beam="2">  1       21 0.72696282E-01 0.45022785E+03</pdfrwt>
<totfact> 0.61145967E+04</totfact>
</mgrwt>
</event>
<event>
 7    0  0.4766352E-002  0.4545967E+03  0.7546771E-02  0.1026360E+00
         21   -1    0    0  502  501  0.00000000000E+00  0.00000000000E+00  0.20485417764E+03  0.20485417764E+03  0.00000000000E+00 0.  1.
         21   -1    0    0  501  502 -0.00000000000E+00 -0.00000000000E+00 -0.25220154588E+03  0.25220154588E+03  0.00000000000E+00 0.  1.
      99926    2    1    2    0    0  0.00000000000E+00  0.44408920985E-15 -0.47347368238E+02  0.45705572352E+03  0.45459670162E+03 0.  0.
      99925    2    3    3    0    0  0.11122546674E+03  0.24150693504E+01 -0.48717067993E+02  0.28964508709E+03  0.26295244200E+03 0.  0.
         25    1    3    3    0    0 -0.11122546674E+03 -0.24150693504E+01  0.13696997552E+01  0.16741063642E+03  0.12509000000E+03 0.  0.
         25    1    4    4    0    0  0.81895351966E+02 -0.25199589784E+02 -0.70702931145E+01  0.15178723643E+03  0.12509000000E+03 0.  0.
         25    1    4    4    0    0  0.29330114769E+02  0.27614659135E+02 -0.41646774878E+02  0.13785785066E+03  0.12509000000E+03 0.  0.
<mgrwt>
<rscale>  2 0.45459670E+03</rscale>
<asrwt>0</asrwt>
<pdfrwt beam="1">  1       21 0.30125615E-01 0.45459670E+03</pdfrwt>
<pdfrwt beam="2">  1       21 0.37088462E-01 0.45459670E+03</pdfrwt>
<totfact> 0.68615950E+04</totfact>
</mgrwt>
</event>
<event>
 7    0  0.4766352E-002  0.4580238E+03  0.7546771E-02  0.1025356E+00
         21   -1    0    0  502  501  0.00000000000E+00  0.00000000000E+00  0.11560995130E+04  0.11560995130E+04  0.00000000000E+00 0. -1.
         21   -1    0    0  501  502 -0.00000000000E+00 -0.00000000000E+00 -0.45365001971E+02  0.45365001971E+02  0.00000000000E+00 0. -1.
      99926    2    1    2    0    0  0.17763568394E-14  0.00000000000E+00  0.11107345110E+04  0.12014645149E+04  0.45802382770E+03 0.  0.
      99925    2    3    3    0    0  0.14857543061E+02  0.10367825094E+03  0.82903774172E+03  0.87593340394E+03  0.26265152701E+03 0.  0.
         25    1    4    4    0    0  0.83655862653E+01  0.61147363172E+02  0.54557767321E+03  0.56312652989E+03  0.12509000000E+03 0.  0.
         25    1    3    3    0    0 -0.14857543061E+02 -0.10367825094E+03  0.28169676928E+03  0.32553111100E+03  0.12509000000E+03 0.  0.
         25    1    4    4    0    0  0.64919567961E+01  0.42530887773E+02  0.28346006851E+03  0.31280687405E+03  0.12509000000E+03 0.  0.
<mgrwt>
<rscale>  2 0.45802383E+03</rscale>
<asrwt>0</asrwt>
<pdfrwt beam="1">  1       21 0.17001462E+00 0.45802383E+03</pdfrwt>
<pdfrwt beam="2">  1       21 0.66713246E-02 0.45802383E+03</pdfrwt>
<totfact> 0.31364239E+04</totfact>
</mgrwt>
</event>
<event>
 7    0  0.4766352E-002  0.4540061E+03  0.7546771E-02  0.1026534E+00
         21   -1    0    0  502  501  0.00000000000E+00  0.00000000000E+00  0.36313181868E+03  0.36313181868E+03  0.00000000000E+00 0. -1.
         21   -1    0    0  501  502 -0.00000000000E+00 -0.00000000000E+00 -0.14190545278E+03  0.14190545278E+03  0.00000000000E+00 0. -1.
      99926    2    1    2    0    0  0.00000000000E+00  0.00000000000E+00  0.22122636590E+03  0.50503727146E+03  0.45400610194E+03 0.  0.
      99925    2    3    3    0    0  0.29744552247E+02  0.10509605887E+03  0.10952669324E+03  0.30490170503E+03  0.26275279869E+03 0.  0.
         25    1    3    3    0    0 -0.29744552247E+02 -0.10509605887E+03  0.11169967267E+03  0.20013556644E+03  0.12509000000E+03 0.  0.
         25    1    4    4    0    0  0.32215946977E+01  0.15202905191E+02  0.30205345179E+02  0.12962012952E+03  0.12509000000E+03 0.  0.
         25    1    4    4    0    0  0.26522957549E+02  0.89893153681E+02  0.79321348060E+02  0.17528157551E+03  0.12509000000E+03 0.  0.
<mgrwt>
<rscale>  2 0.45400610E+03</rscale>
<asrwt>0</asrwt>
<pdfrwt beam="1">  1       21 0.53401738E-01 0.45400610E+03</pdfrwt>
<pdfrwt beam="2">  1       21 0.20868449E-01 0.45400610E+03</pdfrwt>
<totfact> 0.65432870E+04</totfact>
</mgrwt>
</event>
<event>
 7    0  0.4766352E-002  0.4549866E+03  0.7546771E-02  0.1026245E+00
         21   -1    0    0  502  501  0.00000000000E+00  0.00000000000E+00  0.14447479132E+03  0.14447479132E+03  0.00000000000E+00 0.  1.
         21   -1    0    0  501  502 -0.00000000000E+00 -0.00000000000E+00 -0.35821613167E+03  0.35821613167E+03  0.00000000000E+00 0.  1.
      99926    2    1    2    0    0  0.00000000000E+00  0.00000000000E+00 -0.21374134036E+03  0.50269092299E+03  0.45498659703E+03 0.  0.
      99925    2    3    3    0    0  0.18676361050E+02 -0.10406570026E+03 -0.89990791074E+02  0.29741018112E+03  0.26301330180E+03 0.  0.
         25    1    4    4    0    0  0.22071469257E+02 -0.29392065400E+02 -0.89903753332E+01  0.13068809514E+03  0.12509000000E+03 0.  0.
         25    1    4    4    0    0 -0.33951082066E+01 -0.74673634864E+02 -0.81000415740E+02  0.16672208598E+03  0.12509000000E+03 0.  0.
         25    1    3    3    0    0 -0.18676361050E+02  0.10406570026E+03 -0.12375054928E+03  0.20528074187E+03  0.12509000000E+03 0.  0.
<mgrwt>
<rscale>  2 0.45498660E+03</rscale>
<asrwt>0</asrwt>
<pdfrwt beam="1">  1       21 0.21246293E-01 0.45498660E+03</pdfrwt>
<pdfrwt beam="2">  1       21 0.52678842E-01 0.45498660E+03</pdfrwt>
<totfact> 0.65088952E+04</totfact>
</mgrwt>
</event>
<event>
 7    0  0.4766352E-002  0.4081507E+03  0.7546771E-02  0.1040993E+00
         21   -1    0    0  502  501  0.00000000000E+00  0.00000000000E+00  0.37881957608E+03  0.37881957608E+03  0.00000000000E+00 0.  1.
         21   -1    0    0  501  502 -0.00000000000E+00 -0.00000000000E+00 -0.10993822935E+03  0.10993822935E+03  0.00000000000E+00 0.  1.
      99926    2    1    2    0    0  0.17763568394E-14  0.00000000000E+00  0.26888134673E+03  0.48875780544E+03  0.40815072431E+03 0.  0.
      99925    2    3    3    0    0 -0.10166268588E+02  0.58778470646E+02  0.18008044890E+03  0.32416324543E+03  0.26285847900E+03 0.  0.
         25    1    4    4    0    0 -0.21802465057E+02  0.20509668393E+02  0.13201746185E+03  0.18431525253E+03  0.12509000000E+03 0.  0.
         25    1    3    3    0    0  0.10166268588E+02 -0.58778470646E+02  0.88800897829E+02  0.16459456001E+03  0.12509000000E+03 0.  0.
         25    1    4    4    0    0  0.11636196469E+02  0.38268802252E+02  0.48062987048E+02  0.13984799290E+03  0.12509000000E+03 0.  0.
<mgrwt>
<rscale>  2 0.40815072E+03</rscale>
<asrwt>0</asrwt>
<pdfrwt beam="1">  1       21 0.55708761E-01 0.40815072E+03</pdfrwt>
<pdfrwt beam="2">  1       21 0.16167387E-01 0.40815072E+03</pdfrwt>
<totfact> 0.97593450E+04</totfact>
</mgrwt>
</event>
<event>
 7    0  0.4766352E-002  0.4538203E+03  0.7546771E-02  0.1026589E+00
         21   -1    0    0  502  501  0.00000000000E+00  0.00000000000E+00  0.41061859447E+02  0.41061859447E+02  0.00000000000E+00 0. -1.
         21   -1    0    0  501  502 -0.00000000000E+00 -0.00000000000E+00 -0.12539185493E+04  0.12539185493E+04  0.00000000000E+00 0. -1.
      99926    2    1    2    0    0  0.00000000000E+00  0.00000000000E+00 -0.12128566898E+04  0.12949804087E+04  0.45382034872E+03 0.  0.
      99925    2    3    3    0    0  0.10864682518E+02  0.53011265837E+02 -0.48647016077E+03  0.55591807486E+03  0.26355920209E+03 0.  0.
         25    1    4    4    0    0  0.21980487672E+02 -0.72983272157E+01 -0.19443128422E+03  0.23235197396E+03  0.12509000000E+03 0.  0.
         25    1    3    3    0    0 -0.10864682518E+02 -0.53011265837E+02 -0.72638652904E+03  0.73906233385E+03  0.12509000000E+03 0.  0.
         25    1    4    4    0    0 -0.11115805154E+02  0.60309593052E+02 -0.29203887655E+03  0.32356610090E+03  0.12509000000E+03 0.  0.
<mgrwt>
<rscale>  2 0.45382035E+03</rscale>
<asrwt>0</asrwt>
<pdfrwt beam="1">  1       21 0.60385098E-02 0.45382035E+03</pdfrwt>
<pdfrwt beam="2">  1       21 0.18439976E+00 0.45382035E+03</pdfrwt>
<totfact> 0.29530843E+04</totfact>
</mgrwt>
</event>
<event>
 7    0  0.4766352E-002  0.4222997E+03  0.7546771E-02  0.1036320E+00
         21   -1    0    0  502  501  0.00000000000E+00  0.00000000000E+00  0.72255852556E+02  0.72255852556E+02  0.00000000000E+00 0.  1.
         21   -1    0    0  501  502 -0.00000000000E+00 -0.00000000000E+00 -0.61703325170E+03  0.61703325170E+03  0.00000000000E+00 0.  1.
      99926    2    1    2    0    0  0.88817841970E-15  0.00000000000E+00 -0.54477739915E+03  0.68928910426E+03  0.42229972132E+03 0.  0.
      99925    2    3    3    0    0  0.78514601578E+01  0.28099622338E+02 -0.47335189565E+03  0.54231854649E+03  0.26305161955E+03 0.  0.
         25    1    4    4    0    0 -0.10529831320E+02  0.91390434668E+01 -0.15777887075E+03  0.20183181023E+03  0.12509000000E+03 0.  0.
         25    1    3    3    0    0 -0.78514601578E+01 -0.28099622338E+02 -0.71425503500E+02  0.14697055777E+03  0.12509000000E+03 0.  0.
         25    1    4    4    0    0  0.18381291478E+02  0.18960578871E+02 -0.31557302489E+03  0.34048673626E+03  0.12509000000E+03 0.  0.
<mgrwt>
<rscale>  2 0.42229972E+03</rscale>
<asrwt>0</asrwt>
<pdfrwt beam="1">  1       21 0.10625861E-01 0.42229972E+03</pdfrwt>
<pdfrwt beam="2">  1       21 0.90740184E-01 0.42229972E+03</pdfrwt>
<totfact> 0.69792706E+04</totfact>
</mgrwt>
</event>
<event>
 7    0  0.4766352E-002  0.4239115E+03  0.7546771E-02  0.1035801E+00
         21   -1    0    0  502  501  0.00000000000E+00  0.00000000000E+00  0.75700818433E+03  0.75700818433E+03  0.00000000000E+00 0.  1.
         21   -1    0    0  501  502 -0.00000000000E+00 -0.00000000000E+00 -0.59345779409E+02  0.59345779409E+02  0.00000000000E+00 0.  1.
      99926    2    1    2    0    0  0.00000000000E+00  0.00000000000E+00  0.69766240492E+03  0.81635396374E+03  0.42391150359E+03 0.  0.
      99925    2    3    3    0    0 -0.55097060711E+02 -0.11289774537E+02  0.34162613270E+03  0.43481434542E+03  0.26304363770E+03 0.  0.
         25    1    4    4    0    0 -0.50343396072E+02 -0.15063724383E+02  0.12442290076E+03  0.18409220422E+03  0.12509000000E+03 0.  0.
         25    1    4    4    0    0 -0.47536646395E+01  0.37739498463E+01  0.21720323194E+03  0.25072214121E+03  0.12509000000E+03 0.  0.
         25    1    3    3    0    0  0.55097060711E+02  0.11289774537E+02  0.35603627222E+03  0.38153961831E+03  0.12509000000E+03 0.  0.
<mgrwt>
<rscale>  2 0.42391150E+03</rscale>
<asrwt>0</asrwt>
<pdfrwt beam="1">  1       21 0.11132473E+00 0.42391150E+03</pdfrwt>
<pdfrwt beam="2">  1       21 0.87273209E-02 0.42391150E+03</pdfrwt>
<totfact> 0.60430608E+04</totfact>
</mgrwt>
</event>
<event>
 7    0  0.4766352E-002  0.4536896E+03  0.7546771E-02  0.1026627E+00
         21   -1    0    0  502  501  0.00000000000E+00  0.00000000000E+00  0.33821485412E+03  0.33821485412E+03  0.00000000000E+00 0. -1.
         21   -1    0    0  501  502 -0.00000000000E+00 -0.00000000000E+00 -0.15214755556E+03  0.15214755556E+03  0.00000000000E+00 0. -1.
      99926    2    1    2    0    0  0.00000000000E+00  0.00000000000E+00  0.18606729856E+03  0.49036240967E+03  0.45368960009E+03 0.  0.
      99925    2    3    3    0    0  0.53275967153E+02 -0.41423491686E+02  0.22562484808E+02  0.27371623140E+03  0.26430526910E+03 0.  0.
         25    1    4    4    0    0  0.13339690800E+02 -0.67243529126E+01  0.49317847239E+02  0.13528829376E+03  0.12509000000E+03 0.  0.
         25    1    3    3    0    0 -0.53275967153E+02  0.41423491686E+02  0.16350481375E+03  0.21664617827E+03  0.12509000000E+03 0.  0.
         25    1    4    4    0    0  0.39936276353E+02 -0.34699138773E+02 -0.26755362431E+02  0.13842793764E+03  0.12509000000E+03 0.  0.
<mgrwt>
<rscale>  2 0.45368960E+03</rscale>
<asrwt>0</asrwt>
<pdfrwt beam="1">  1       21 0.49737479E-01 0.45368960E+03</pdfrwt>
<pdfrwt beam="2">  1       21 0.22374640E-01 0.45368960E+03</pdfrwt>
<totfact> 0.66643767E+04</totfact>
</mgrwt>
</event>
<event>
 7    0  0.4766352E-002  0.4506871E+03  0.7546771E-02  0.1027517E+00
         21   -1    0    0  502  501  0.00000000000E+00  0.00000000000E+00  0.87754767481E+02  0.87754767481E+02  0.00000000000E+00 0. -1.
         21   -1    0    0  501  502 -0.00000000000E+00 -0.00000000000E+00 -0.57865468696E+03  0.57865468696E+03  0.00000000000E+00 0. -1.
      99926    2    1    2    0    0 -0.14210854715E-13  0.00000000000E+00 -0.49089991948E+03  0.66640945444E+03  0.45068706441E+03 0.  0.
      99925    2    3    3    0    0  0.87004036139E+02 -0.34030719681E+02 -0.22706735879E+03  0.35984311518E+03  0.26305833940E+03 0.  0.
         25    1    4    4    0    0  0.79462899603E+02 -0.39131082578E+02 -0.13511074637E+03  0.20432331223E+03  0.12509000000E+03 0.  0.
         25    1    3    3    0    0 -0.87004036139E+02  0.34030719681E+02 -0.26383256070E+03  0.30656633926E+03  0.12509000000E+03 0.  0.
         25    1    4    4    0    0  0.75411365370E+01  0.51003628973E+01 -0.91956612416E+02  0.15551980295E+03  0.12509000000E+03 0.  0.
<mgrwt>
<rscale>  2 0.45068706E+03</rscale>
<asrwt>0</asrwt>
<pdfrwt beam="1">  1       21 0.12905113E-01 0.45068706E+03</pdfrwt>
<pdfrwt beam="2">  1       21 0.85096279E-01 0.45068706E+03</pdfrwt>
<totfact> 0.56667077E+04</totfact>
</mgrwt>
</event>
<event>
 7    0  0.4766352E-002  0.4554777E+03  0.7546771E-02  0.1026101E+00
         21   -1    0    0  502  501  0.00000000000E+00  0.00000000000E+00  0.12059691091E+04  0.12059691091E+04  0.00000000000E+00 0.  1.
         21   -1    0    0  501  502 -0.00000000000E+00 -0.00000000000E+00 -0.43006884494E+02  0.43006884494E+02  0.00000000000E+00 0.  1.
      99926    2    1    2    0    0  0.17763568394E-14 -0.17763568394E-14  0.11629622246E+04  0.12489759936E+04  0.45547765775E+03 0.  0.
      99925    2    3    3    0    0  0.12810237498E+02  0.12904174447E+02  0.10387484744E+04  0.10717552732E+04  0.26330657532E+03 0.  0.
         25    1    4    4    0    0 -0.20147271925E+02 -0.20858251069E+02  0.44599749339E+03  0.46411448093E+03  0.12509000000E+03 0.  0.
         25    1    4    4    0    0  0.32957509423E+02  0.33762425516E+02  0.59275098103E+03  0.60764079226E+03  0.12509000000E+03 0.  0.
         25    1    3    3    0    0 -0.12810237498E+02 -0.12904174447E+02  0.12421375018E+03  0.17722072039E+03  0.12509000000E+03 0.  0.
<mgrwt>
<rscale>  2 0.45547766E+03</rscale>
<asrwt>0</asrwt>
<pdfrwt beam="1">  1       21 0.17734838E+00 0.45547766E+03</pdfrwt>
<pdfrwt beam="2">  1       21 0.63245426E-02 0.45547766E+03</pdfrwt>
<totfact> 0.30519639E+04</totfact>
</mgrwt>
</event>
<event>
 7    0  0.4766352E-002  0.4520080E+03  0.7546771E-02  0.1027125E+00
         21   -1    0    0  502  501  0.00000000000E+00  0.00000000000E+00  0.23298378915E+03  0.23298378915E+03  0.00000000000E+00 0. -1.
         21   -1    0    0  501  502 -0.00000000000E+00 -0.00000000000E+00 -0.21923332626E+03  0.21923332626E+03  0.00000000000E+00 0. -1.
      99926    2    1    2    0    0  0.19706458687E-14  0.35527136788E-14  0.13750462888E+02  0.45221711540E+03  0.45200801346E+03 0.  0.
      99925    2    3    3    0    0  0.18010631971E+00  0.25002850146E+02  0.11596289745E+03  0.28875438316E+03  0.26326132503E+03 0.  0.
         25    1    4    4    0    0 -0.28004557227E+02  0.32395178230E+02  0.83153371563E+02  0.15619121006E+03  0.12509000000E+03 0.  0.
         25    1    4    4    0    0  0.28184663546E+02 -0.73923280839E+01  0.32809525884E+02  0.13256317310E+03  0.12509000000E+03 0.  0.
         25    1    3    3    0    0 -0.18010631971E+00 -0.25002850146E+02 -0.10221243456E+03  0.16346273224E+03  0.12509000000E+03 0.  0.
<mgrwt>
<rscale>  2 0.45200801E+03</rscale>
<asrwt>0</asrwt>
<pdfrwt beam="1">  1       21 0.34262322E-01 0.45200801E+03</pdfrwt>
<pdfrwt beam="2">  1       21 0.32240195E-01 0.45200801E+03</pdfrwt>
<totfact> 0.70416238E+04</totfact>
</mgrwt>
</event>
<event>
 7    0  0.4766352E-002  0.4537940E+03  0.7546771E-02  0.1026597E+00
         21   -1    0    0  502  501  0.00000000000E+00  0.00000000000E+00  0.32734368562E+03  0.32734368562E+03  0.00000000000E+00 0. -1.
         21   -1    0    0  501  502 -0.00000000000E+00 -0.00000000000E+00 -0.15727275866E+03  0.15727275866E+03  0.00000000000E+00 0. -1.
      99926    2    1    2    0    0  0.00000000000E+00  0.00000000000E+00  0.17007092696E+03  0.48461644428E+03  0.45379398174E+03 0.  0.
      99925    2    3    3    0    0  0.50925143602E+02 -0.92442457729E+02  0.66904768150E+02  0.29114876567E+03  0.26296839640E+03 0.  0.
         25    1    3    3    0    0 -0.50925143602E+02  0.92442457729E+02  0.10316615881E+03  0.19346767861E+03  0.12509000000E+03 0.  0.
         25    1    4    4    0    0  0.13010757663E+02 -0.63178620425E+02  0.69954597056E+02  0.15716860896E+03  0.12509000000E+03 0.  0.
         25    1    4    4    0    0  0.37914385939E+02 -0.29263837304E+02 -0.30498289065E+01  0.13398015671E+03  0.12509000000E+03 0.  0.
<mgrwt>
<rscale>  2 0.45379398E+03</rscale>
<asrwt>0</asrwt>
<pdfrwt beam="1">  1       21 0.48138777E-01 0.45379398E+03</pdfrwt>
<pdfrwt beam="2">  1       21 0.23128347E-01 0.45379398E+03</pdfrwt>
<totfact> 0.67004765E+04</totfact>
</mgrwt>
</event>
<event>
 7    0  0.4766352E-002  0.4557775E+03  0.7546771E-02  0.1026013E+00
         21   -1    0    0  502  501  0.00000000000E+00  0.00000000000E+00  0.96524889406E+02  0.96524889406E+02  0.00000000000E+00 0.  1.
         21   -1    0    0  501  502 -0.00000000000E+00 -0.00000000000E+00 -0.53802990232E+03  0.53802990232E+03  0.00000000000E+00 0.  1.
      99926    2    1    2    0    0  0.00000000000E+00  0.00000000000E+00 -0.44150501291E+03  0.63455479173E+03  0.45577747561E+03 0.  0.
      99925    2    3    3    0    0 -0.10806396628E+03 -0.36084705677E+02 -0.27683356558E+03  0.39845286361E+03  0.26295994884E+03 0.  0.
         25    1    4    4    0    0 -0.77184507957E+02 -0.89971116124E+00 -0.10416348674E+03  0.18015492727E+03  0.12509000000E+03 0.  0.
         25    1    3    3    0    0  0.10806396628E+03  0.36084705677E+02 -0.16467144733E+03  0.23610192811E+03  0.12509000000E+03 0.  0.
         25    1    4    4    0    0 -0.30879458327E+02 -0.35184994516E+02 -0.17267007884E+03  0.21829793634E+03  0.12509000000E+03 0.  0.
<mgrwt>
<rscale>  2 0.45577748E+03</rscale>
<asrwt>0</asrwt>
<pdfrwt beam="1">  1       21 0.14194837E-01 0.45577748E+03</pdfrwt>
<pdfrwt beam="2">  1       21 0.79122044E-01 0.45577748E+03</pdfrwt>
<totfact> 0.56254173E+04</totfact>
</mgrwt>
</event>
<event>
 7    0  0.4766352E-002  0.4503720E+03  0.7546771E-02  0.1027611E+00
         21   -1    0    0  502  501  0.00000000000E+00  0.00000000000E+00  0.80959576098E+02  0.80959576098E+02  0.00000000000E+00 0. -1.
         21   -1    0    0  501  502 -0.00000000000E+00 -0.00000000000E+00 -0.62634633359E+03  0.62634633359E+03  0.00000000000E+00 0. -1.
      99926    2    1    2    0    0  0.00000000000E+00  0.00000000000E+00 -0.54538675750E+03  0.70730590969E+03  0.45037199584E+03 0.  0.
      99925    2    3    3    0    0  0.32832123490E+02 -0.10354704569E+03 -0.35203242664E+03  0.45268198237E+03  0.26304792102E+03 0.  0.
         25    1    3    3    0    0 -0.32832123490E+02  0.10354704569E+03 -0.19335433085E+03  0.25462392732E+03  0.12509000000E+03 0.  0.
         25    1    4    4    0    0  0.15758314362E+02 -0.33315806286E+02 -0.22618923868E+03  0.26108877267E+03  0.12509000000E+03 0.  0.
         25    1    4    4    0    0  0.17073809127E+02 -0.70231239406E+02 -0.12584318796E+03  0.19159320970E+03  0.12509000000E+03 0.  0.
<mgrwt>
<rscale>  2 0.45037200E+03</rscale>
<asrwt>0</asrwt>
<pdfrwt beam="1">  1       21 0.11905821E-01 0.45037200E+03</pdfrwt>
<pdfrwt beam="2">  1       21 0.92109750E-01 0.45037200E+03</pdfrwt>
<totfact> 0.54464421E+04</totfact>
</mgrwt>
</event>
<event>
 7    0  0.4766352E-002  0.4552103E+03  0.7546771E-02  0.1026180E+00
         21   -1    0    0  502  501  0.00000000000E+00  0.00000000000E+00  0.89055441165E+03  0.89055441165E+03  0.00000000000E+00 0.  1.
         21   -1    0    0  501  502 -0.00000000000E+00 -0.00000000000E+00 -0.58170633734E+02  0.58170633734E+02  0.00000000000E+00 0.  1.
      99926    2    1    2    0    0  0.00000000000E+00  0.00000000000E+00  0.83238377792E+03  0.94872504539E+03  0.45521034479E+03 0.  0.
      99925    2    3    3    0    0 -0.30834998807E+02 -0.92500317779E+02  0.64426507777E+03  0.70266964637E+03  0.26298295677E+03 0.  0.
         25    1    4    4    0    0 -0.53467112635E+02 -0.62304241199E+02  0.33092867940E+03  0.36318294227E+03  0.12509000000E+03 0.  0.
         25    1    3    3    0    0  0.30834998807E+02  0.92500317779E+02  0.18811870015E+03  0.24605539902E+03  0.12509000000E+03 0.  0.
         25    1    4    4    0    0  0.22632113828E+02 -0.30196076580E+02  0.31333639838E+03  0.33948670410E+03  0.12509000000E+03 0.  0.
<mgrwt>
<rscale>  2 0.45521034E+03</rscale>
<asrwt>0</asrwt>
<pdfrwt beam="1">  1       21 0.13096388E+00 0.45521034E+03</pdfrwt>
<pdfrwt beam="2">  1       21 0.85545055E-02 0.45521034E+03</pdfrwt>
<totfact> 0.41124789E+04</totfact>
</mgrwt>
</event>
<event>
 7    0  0.4766352E-002  0.4537244E+03  0.7546771E-02  0.1026617E+00
         21   -1    0    0  502  501  0.00000000000E+00  0.00000000000E+00  0.36871033573E+02  0.36871033573E+02  0.00000000000E+00 0. -1.
         21   -1    0    0  501  502 -0.00000000000E+00 -0.00000000000E+00 -0.13958509634E+04  0.13958509634E+04  0.00000000000E+00 0. -1.
      99926    2    1    2    0    0 -0.14210854715E-13  0.00000000000E+00 -0.13589799298E+04  0.14327219969E+04  0.45372444383E+03 0.  0.
      99925    2    3    3    0    0 -0.89961983221E+02  0.20449287790E+02 -0.10566604910E+04  0.10927868811E+04  0.26294570258E+03 0.  0.
         25    1    4    4    0    0 -0.11994426099E+02 -0.12973659250E+02 -0.43128964805E+03  0.44941122673E+03  0.12509000000E+03 0.  0.
         25    1    3    3    0    0  0.89961983221E+02 -0.20449287790E+02 -0.30231943880E+03  0.33993511582E+03  0.12509000000E+03 0.  0.
         25    1    4    4    0    0 -0.77967557122E+02  0.33422947040E+02 -0.62537084295E+03  0.64337565439E+03  0.12509000000E+03 0.  0.
<mgrwt>
<rscale>  2 0.45372444E+03</rscale>
<asrwt>0</asrwt>
<pdfrwt beam="1">  1       21 0.54222108E-02 0.45372444E+03</pdfrwt>
<pdfrwt beam="2">  1       21 0.20527220E+00 0.45372444E+03</pdfrwt>
<totfact> 0.25726981E+04</totfact>
</mgrwt>
</event>
<event>
 7    0  0.4766352E-002  0.4217365E+03  0.7546771E-02  0.1036503E+00
         21   -1    0    0  502  501  0.00000000000E+00  0.00000000000E+00  0.22700003607E+02  0.22700003607E+02  0.00000000000E+00 0. -1.
         21   -1    0    0  501  502 -0.00000000000E+00 -0.00000000000E+00 -0.19588287181E+04  0.19588287181E+04  0.00000000000E+00 0. -1.
      99926    2    1    2    0    0 -0.17763568394E-14  0.00000000000E+00 -0.19361287145E+04  0.19815287218E+04  0.42173650052E+03 0.  0.
      99925    2    3    3    0    0 -0.10728628851E+02 -0.62295590103E+02 -0.14751417793E+04  0.14997068598E+04  0.26283369742E+03 0.  0.
         25    1    4    4    0    0  0.28988535929E+02 -0.50042568215E+02 -0.80787676046E+03  0.81954680284E+03  0.12509000000E+03 0.  0.
         25    1    3    3    0    0  0.10728628851E+02  0.62295590103E+02 -0.46098693528E+03  0.48182186191E+03  0.12509000000E+03 0.  0.
         25    1    4    4    0    0 -0.39717164780E+02 -0.12253021887E+02 -0.66726501880E+03  0.68016005700E+03  0.12509000000E+03 0.  0.
<mgrwt>
<rscale>  2 0.42173650E+03</rscale>
<asrwt>0</asrwt>
<pdfrwt beam="1">  1       21 0.33382359E-02 0.42173650E+03</pdfrwt>
<pdfrwt beam="2">  1       21 0.28806304E+00 0.42173650E+03</pdfrwt>
<totfact> 0.18303246E+04</totfact>
</mgrwt>
</event>
<event>
 7    0  0.4766352E-002  0.4512353E+03  0.7546771E-02  0.1027354E+00
         21   -1    0    0  502  501  0.00000000000E+00  0.00000000000E+00  0.21741163804E+03  0.21741163804E+03  0.00000000000E+00 0.  1.
         21   -1    0    0  501  502 -0.00000000000E+00 -0.00000000000E+00 -0.23413337456E+03  0.23413337456E+03  0.00000000000E+00 0.  1.
      99926    2    1    2    0    0  0.35527136788E-14  0.00000000000E+00 -0.16721736524E+02  0.45154501260E+03  0.45123528445E+03 0.  0.
      99925    2    3    3    0    0  0.16615693032E+02  0.92393112265E+02  0.45952430645E+02  0.28305724515E+03  0.26305362514E+03 0.  0.
         25    1    4    4    0    0  0.32591965243E+02  0.50290895435E+02  0.56325249369E+02  0.14970454963E+03  0.12509000000E+03 0.  0.
         25    1    3    3    0    0 -0.16615693032E+02 -0.92393112265E+02 -0.62674167169E+02  0.16848776745E+03  0.12509000000E+03 0.  0.
         25    1    4    4    0    0 -0.15976272212E+02  0.42102216829E+02 -0.10372818724E+02  0.13335269553E+03  0.12509000000E+03 0.  0.
<mgrwt>
<rscale>  2 0.45123528E+03</rscale>
<asrwt>0</asrwt>
<pdfrwt beam="1">  1       21 0.31972300E-01 0.45123528E+03</pdfrwt>
<pdfrwt beam="2">  1       21 0.34431378E-01 0.45123528E+03</pdfrwt>
<totfact> 0.70905734E+04</totfact>
</mgrwt>
</event>
<event>
 7    0  0.4766352E-002  0.4532765E+03  0.7546771E-02  0.1026749E+00
         21   -1    0    0  502  501  0.00000000000E+00  0.00000000000E+00  0.36698657652E+03  0.36698657652E+03  0.00000000000E+00 0. -1.
         21   -1    0    0  501  502 -0.00000000000E+00 -0.00000000000E+00 -0.13996395773E+03  0.13996395773E+03  0.00000000000E+00 0. -1.
      99926    2    1    2    0    0  0.00000000000E+00  0.00000000000E+00  0.22702261879E+03  0.50695053425E+03  0.45327648817E+03 0.  0.
      99925    2    3    3    0    0  0.14993133446E+02 -0.32834034479E+02  0.26116430378E+03  0.37235472962E+03  0.26294178676E+03 0.  0.
         25    1    3    3    0    0 -0.14993133446E+02  0.32834034479E+02 -0.34141684989E+02  0.13459580463E+03  0.12509000000E+03 0.  0.
         25    1    4    4    0    0 -0.26358122037E+02 -0.35207195671E+02  0.14747141107E+03  0.19831697458E+03  0.12509000000E+03 0.  0.
         25    1    4    4    0    0  0.41351255483E+02  0.23731611915E+01  0.11369289272E+03  0.17403775504E+03  0.12509000000E+03 0.  0.
<mgrwt>
<rscale>  2 0.45327649E+03</rscale>
<asrwt>0</asrwt>
<pdfrwt beam="1">  1       21 0.53968614E-01 0.45327649E+03</pdfrwt>
<pdfrwt beam="2">  1       21 0.20582935E-01 0.45327649E+03</pdfrwt>
<totfact> 0.65678909E+04</totfact>
</mgrwt>
</event>
<event>
 7    0  0.4766352E-002  0.4556044E+03  0.7546771E-02  0.1026064E+00
         21   -1    0    0  502  501  0.00000000000E+00  0.00000000000E+00  0.18078302736E+04  0.18078302736E+04  0.00000000000E+00 0. -1.
         21   -1    0    0  501  502 -0.00000000000E+00 -0.00000000000E+00 -0.28705042591E+02  0.28705042591E+02  0.00000000000E+00 0. -1.
      99926    2    1    2    0    0  0.00000000000E+00  0.00000000000E+00  0.17791252310E+04  0.18365353162E+04  0.45560441175E+03 0.  0.
      99925    2    3    3    0    0 -0.52186894798E+02 -0.82602808483E+02  0.13519052129E+04  0.13807819312E+04  0.26337110871E+03 0.  0.
         25    1    3    3    0    0  0.52186894798E+02  0.82602808483E+02  0.42722001809E+03  0.45575338498E+03  0.12509000000E+03 0.  0.
         25    1    4    4    0    0 -0.18594098020E+02 -0.98916799022E+01  0.48895692317E+03  0.50514351092E+03  0.12509000000E+03 0.  0.
         25    1    4    4    0    0 -0.33592796777E+02 -0.72711128581E+02  0.86294828975E+03  0.87563842029E+03  0.12509000000E+03 0.  0.
<mgrwt>
<rscale>  2 0.45560441E+03</rscale>
<asrwt>0</asrwt>
<pdfrwt beam="1">  1       21 0.26585732E+00 0.45560441E+03</pdfrwt>
<pdfrwt beam="2">  1       21 0.42213310E-02 0.45560441E+03</pdfrwt>
<totfact> 0.16490263E+04</totfact>
</mgrwt>
</event>
<event>
 7    0  0.4766352E-002  0.4385951E+03  0.7546771E-02  0.1031179E+00
         21   -1    0    0  502  501  0.00000000000E+00  0.00000000000E+00  0.46493734305E+03  0.46493734305E+03  0.00000000000E+00 0. -1.
         21   -1    0    0  501  502 -0.00000000000E+00 -0.00000000000E+00 -0.10343634408E+03  0.10343634408E+03  0.00000000000E+00 0. -1.
      99926    2    1    2    0    0 -0.35527136788E-14  0.00000000000E+00  0.36150099896E+03  0.56837368713E+03  0.43859511622E+03 0.  0.
      99925    2    3    3    0    0 -0.24593854624E+02 -0.33714586083E+02  0.34447822697E+03  0.43541198638E+03  0.26301486275E+03 0.  0.
         25    1    4    4    0    0 -0.34692722798E+02  0.16654009100E+02  0.17789791355E+03  0.22085315660E+03  0.12509000000E+03 0.  0.
         25    1    3    3    0    0  0.24593854624E+02  0.33714586083E+02  0.17022771995E+02  0.13296170075E+03  0.12509000000E+03 0.  0.
         25    1    4    4    0    0  0.10098868174E+02 -0.50368595183E+02  0.16658031342E+03  0.21455882978E+03  0.12509000000E+03 0.  0.
<mgrwt>
<rscale>  2 0.43859512E+03</rscale>
<asrwt>0</asrwt>
<pdfrwt beam="1">  1       21 0.68373138E-01 0.43859512E+03</pdfrwt>
<pdfrwt beam="2">  1       21 0.15211227E-01 0.43859512E+03</pdfrwt>
<totfact> 0.69220655E+04</totfact>
</mgrwt>
</event>
<event>
 6    0  0.4766352E-002  0.4540726E+03  0.7546771E-02  0.1026514E+00
         21   -1    0    0  502  501  0.00000000000E+00  0.00000000000E+00  0.23906299363E+03  0.23906299363E+03  0.00000000000E+00 0. -1.
         21   -1    0    0  501  502 -0.00000000000E+00 -0.00000000000E+00 -0.21561466733E+03  0.21561466733E+03  0.00000000000E+00 0. -1.
      99926    2    1    2    0    0  0.00000000000E+00  0.00000000000E+00  0.23448326301E+02  0.45467766096E+03  0.45407262786E+03 0.  0.
         25    1    3    3    0    0  0.10655947771E+03 -0.42606939680E+01  0.34651493051E+01  0.16441590909E+03  0.12509000000E+03 0.  0.
         25    1    3    3    0    0 -0.60224707879E+02  0.41181485921E+01  0.59550305513E+02  0.15112154570E+03  0.12509000000E+03 0.  0.
         25    1    3    3    0    0 -0.46334769833E+02  0.14254537592E+00 -0.39567128517E+02  0.13914020617E+03  0.12509000000E+03 0.  0.
<mgrwt>
<rscale>  2 0.45407263E+03</rscale>
<asrwt>0</asrwt>
<pdfrwt beam="1">  1       21 0.35156323E-01 0.45407263E+03</pdfrwt>
<pdfrwt beam="2">  1       21 0.31708039E-01 0.45407263E+03</pdfrwt>
<totfact> 0.69079171E+04</totfact>
</mgrwt>
</event>
<event>
 7    0  0.4766352E-002  0.4178965E+03  0.7546771E-02  0.1037753E+00
         21   -1    0    0  502  501  0.00000000000E+00  0.00000000000E+00  0.24677496574E+03  0.24677496574E+03  0.00000000000E+00 0. -1.
         21   -1    0    0  501  502 -0.00000000000E+00 -0.00000000000E+00 -0.17691981447E+03  0.17691981447E+03  0.00000000000E+00 0. -1.
      99926    2    1    2    0    0  0.00000000000E+00  0.00000000000E+00  0.69855151279E+02  0.42369478021E+03  0.41789654774E+03 0.  0.
      99925    2    3    3    0    0  0.22218073908E+02  0.26295129090E+02 -0.19778728726E+02  0.26600262071E+03  0.26302303985E+03 0.  0.
         25    1    4    4    0    0  0.34285363819E+02  0.41599192809E+02 -0.28288971255E+02  0.13911776669E+03  0.12509000000E+03 0.  0.
         25    1    4    4    0    0 -0.12067289911E+02 -0.15304063719E+02  0.85102425297E+01  0.12688485402E+03  0.12509000000E+03 0.  0.
         25    1    3    3    0    0 -0.22218073908E+02 -0.26295129090E+02  0.89633880005E+02  0.15769215950E+03  0.12509000000E+03 0.  0.
<mgrwt>
<rscale>  2 0.41789655E+03</rscale>
<asrwt>0</asrwt>
<pdfrwt beam="1">  1       21 0.36290437E-01 0.41789655E+03</pdfrwt>
<pdfrwt beam="2">  1       21 0.26017619E-01 0.41789655E+03</pdfrwt>
<totfact> 0.96433288E+04</totfact>
</mgrwt>
</event>
<event>
 7    0  0.4766352E-002  0.4521994E+03  0.7546771E-02  0.1027068E+00
         21   -1    0    0  502  501  0.00000000000E+00  0.00000000000E+00  0.45658736012E+03  0.45658736012E+03  0.00000000000E+00 0. -1.
         21   -1    0    0  501  502 -0.00000000000E+00 -0.00000000000E+00 -0.11196341432E+03  0.11196341432E+03  0.00000000000E+00 0. -1.
      99926    2    1    2    0    0  0.00000000000E+00  0.14210854715E-13  0.34462394579E+03  0.56855077444E+03  0.45219942404E+03 0.  0.
      99925    2    3    3    0    0  0.38729598924E+02 -0.10303855722E+03  0.23376430747E+03  0.36841508643E+03  0.26261568566E+03 0.  0.
         25    1    4    4    0    0  0.38320660285E+02 -0.35318323217E+02  0.73616727279E+02  0.15421669039E+03  0.12509000000E+03 0.  0.
         25    1    4    4    0    0  0.40893863818E+00 -0.67720234005E+02  0.16014758019E+03  0.21419839604E+03  0.12509000000E+03 0.  0.
         25    1    3    3    0    0 -0.38729598924E+02  0.10303855722E+03  0.11085963832E+03  0.20013568801E+03  0.12509000000E+03 0.  0.
<mgrwt>
<rscale>  2 0.45219942E+03</rscale>
<asrwt>0</asrwt>
<pdfrwt beam="1">  1       21 0.67145199E-01 0.45219942E+03</pdfrwt>
<pdfrwt beam="2">  1       21 0.16465208E-01 0.45219942E+03</pdfrwt>
<totfact> 0.62019229E+04</totfact>
</mgrwt>
</event>
<event>
 7    0  0.7529773E-002  0.3964440E+03  0.7546771E-02  0.1045018E+00
         21   -1    0    0  502  501  0.00000000000E+00  0.00000000000E+00  0.20500695047E+03  0.20500695047E+03  0.00000000000E+00 0.  1.
         21   -1    0    0  501  502 -0.00000000000E+00 -0.00000000000E+00 -0.19166163635E+03  0.19166163635E+03  0.00000000000E+00 0.  1.
      99926    2    1    2    0    0 -0.99920072216E-15  0.88817841970E-15  0.13345314114E+02  0.39666858682E+03  0.39644403181E+03 0.  0.
      99925    2    3    3    0    0  0.15895656897E+00  0.79567471410E+01 -0.30542367685E+02  0.26386432557E+03  0.26196986657E+03 0.  0.
         25    1    4    4    0    0  0.29062295892E+02  0.27634543594E+02 -0.47754281687E+01  0.13144808046E+03  0.12509000000E+03 0.  0.
         25    1    3    3    0    0 -0.15895656897E+00 -0.79567471410E+01  0.43887681799E+02  0.13280426125E+03  0.12509000000E+03 0.  0.
         25    1    4    4    0    0 -0.28903339323E+02 -0.19677796453E+02 -0.25766939516E+02  0.13241624511E+03  0.12509000000E+03 0.  0.
<mgrwt>
<rscale>  2 0.39644403E+03</rscale>
<asrwt>0</asrwt>
<pdfrwt beam="1">  1       21 0.30148081E-01 0.39644403E+03</pdfrwt>
<pdfrwt beam="2">  1       21 0.28185535E-01 0.39644403E+03</pdfrwt>
<totfact> 0.12009233E+05</totfact>
</mgrwt>
</event>
<event>
 7    0  0.4766352E-002  0.4562566E+03  0.7546771E-02  0.1025873E+00
         21   -1    0    0  502  501  0.00000000000E+00  0.00000000000E+00  0.66087974204E+03  0.66087974204E+03  0.00000000000E+00 0. -1.
         21   -1    0    0  501  502 -0.00000000000E+00 -0.00000000000E+00 -0.78747342971E+02  0.78747342971E+02  0.00000000000E+00 0. -1.
      99926    2    1    2    0    0  0.71054273576E-14  0.00000000000E+00  0.58213239907E+03  0.73962708501E+03  0.45625661073E+03 0.  0.
      99925    2    3    3    0    0 -0.62513573198E+02 -0.59654774303E+02  0.24435017837E+03  0.36920708602E+03  0.26294528664E+03 0.  0.
         25    1    4    4    0    0 -0.56666011241E+02  0.11140857401E-01  0.10808785580E+03  0.17476135049E+03  0.12509000000E+03 0.  0.
         25    1    4    4    0    0 -0.58475619568E+01 -0.59665915161E+02  0.13626232257E+03  0.19444573553E+03  0.12509000000E+03 0.  0.
         25    1    3    3    0    0  0.62513573198E+02  0.59654774303E+02  0.33778222070E+03  0.37041999899E+03  0.12509000000E+03 0.  0.
<mgrwt>
<rscale>  2 0.45625661E+03</rscale>
<asrwt>0</asrwt>
<pdfrwt beam="1">  1       21 0.97188195E-01 0.45625661E+03</pdfrwt>
<pdfrwt beam="2">  1       21 0.11580492E-01 0.45625661E+03</pdfrwt>
<totfact> 0.50304910E+04</totfact>
</mgrwt>
</event>
<event>
 7    0  0.4766352E-002  0.4891823E+03  0.7546771E-02  0.1016642E+00
         21   -1    0    0  502  501  0.00000000000E+00  0.00000000000E+00  0.73342672489E+02  0.73342672489E+02  0.00000000000E+00 0. -1.
         21   -1    0    0  501  502 -0.00000000000E+00 -0.00000000000E+00 -0.81568942505E+03  0.81568942505E+03  0.00000000000E+00 0. -1.
      99926    2    1    2    0    0  0.00000000000E+00 -0.14210854715E-13 -0.74234675256E+03  0.88903209754E+03  0.48918234782E+03 0.  0.
      99925    2    3    3    0    0  0.90846196313E+02 -0.10572519517E+03 -0.51134351761E+03  0.59164203224E+03  0.26293963763E+03 0.  0.
         25    1    4    4    0    0  0.31811412115E+02 -0.15245048675E+02 -0.26240863531E+03  0.29283131225E+03  0.12509000000E+03 0.  0.
         25    1    3    3    0    0 -0.90846196313E+02  0.10572519517E+03 -0.23100323495E+03  0.29739006529E+03  0.12509000000E+03 0.  0.
         25    1    4    4    0    0  0.59034784198E+02 -0.90480146498E+02 -0.24893488230E+03  0.29881071999E+03  0.12509000000E+03 0.  0.
<mgrwt>
<rscale>  2 0.48918235E+03</rscale>
<asrwt>0</asrwt>
<pdfrwt beam="1">  1       21 0.10785687E-01 0.48918235E+03</pdfrwt>
<pdfrwt beam="2">  1       21 0.11995433E+00 0.48918235E+03</pdfrwt>
<totfact> 0.33733313E+04</totfact>
</mgrwt>
</event>
<event>
 7    0  0.4766352E-002  0.4479454E+03  0.7546771E-02  0.1028337E+00
         21   -1    0    0  502  501  0.00000000000E+00  0.00000000000E+00  0.18193054038E+03  0.18193054038E+03  0.00000000000E+00 0.  1.
         21   -1    0    0  501  502 -0.00000000000E+00 -0.00000000000E+00 -0.27573036854E+03  0.27573036854E+03  0.00000000000E+00 0.  1.
      99926    2    1    2    0    0 -0.17763568394E-14  0.00000000000E+00 -0.93799828154E+02  0.45766090892E+03  0.44794542055E+03 0.  0.
      99925    2    3    3    0    0  0.81461474648E+01  0.26590272127E+02  0.45677546132E+02  0.26825434006E+03  0.26286983557E+03 0.  0.
         25    1    4    4    0    0 -0.34542517947E+00 -0.25923478517E+02  0.12686248679E+02  0.12837676995E+03  0.12509000000E+03 0.  0.
         25    1    4    4    0    0  0.84915726443E+01  0.52513750643E+02  0.32991297453E+02  0.13987757011E+03  0.12509000000E+03 0.  0.
         25    1    3    3    0    0 -0.81461474648E+01 -0.26590272127E+02 -0.13947737429E+03  0.18940656886E+03  0.12509000000E+03 0.  0.
<mgrwt>
<rscale>  2 0.44794542E+03</rscale>
<asrwt>0</asrwt>
<pdfrwt beam="1">  1       21 0.26754491E-01 0.44794542E+03</pdfrwt>
<pdfrwt beam="2">  1       21 0.40548583E-01 0.44794542E+03</pdfrwt>
<totfact> 0.72328444E+04</totfact>
</mgrwt>
</event>
<event>
 7    0  0.4766352E-002  0.4475432E+03  0.7546771E-02  0.1028457E+00
         21   -1    0    0  502  501  0.00000000000E+00  0.00000000000E+00  0.14832313891E+03  0.14832313891E+03  0.00000000000E+00 0. -1.
         21   -1    0    0  501  502 -0.00000000000E+00 -0.00000000000E+00 -0.33759893204E+03  0.33759893204E+03  0.00000000000E+00 0. -1.
      99926    2    1    2    0    0  0.00000000000E+00 -0.71054273576E-14 -0.18927579314E+03  0.48592207095E+03  0.44754321933E+03 0.  0.
      99925    2    3    3    0    0 -0.78941366995E+02 -0.45947073481E+02 -0.17851156881E+03  0.33066019665E+03  0.26291997350E+03 0.  0.
         25    1    3    3    0    0  0.78941366995E+02  0.45947073481E+02 -0.10764224325E+02  0.15526187430E+03  0.12509000000E+03 0.  0.
         25    1    4    4    0    0 -0.53058237348E+02  0.33436320323E+01 -0.12163252390E+03  0.18239609479E+03  0.12509000000E+03 0.  0.
         25    1    4    4    0    0 -0.25883129647E+02 -0.49290705513E+02 -0.56879044911E+02  0.14826410186E+03  0.12509000000E+03 0.  0.
<mgrwt>
<rscale>  2 0.44754322E+03</rscale>
<asrwt>0</asrwt>
<pdfrwt beam="1">  1       21 0.21812226E-01 0.44754322E+03</pdfrwt>
<pdfrwt beam="2">  1       21 0.49646902E-01 0.44754322E+03</pdfrwt>
<totfact> 0.70344324E+04</totfact>
</mgrwt>
</event>
<event>
 7    0  0.4766352E-002  0.4436521E+03  0.7546771E-02  0.1029632E+00
         21   -1    0    0  502  501  0.00000000000E+00  0.00000000000E+00  0.51086816503E+02  0.51086816503E+02  0.00000000000E+00 0. -1.
         21   -1    0    0  501  502 -0.00000000000E+00 -0.00000000000E+00 -0.96319938617E+03  0.96319938617E+03  0.00000000000E+00 0. -1.
      99926    2    1    2    0    0  0.00000000000E+00 -0.14210854715E-13 -0.91211256966E+03  0.10142862027E+04  0.44365207222E+03 0.  0.
      99925    2    3    3    0    0  0.43828737655E+02  0.89717648976E+02 -0.62824804385E+03  0.68840771014E+03  0.26313372264E+03 0.  0.
         25    1    4    4    0    0  0.12778043257E+02  0.54305720294E+01 -0.24660791117E+03  0.27686772916E+03  0.12509000000E+03 0.  0.
         25    1    3    3    0    0 -0.43828737655E+02 -0.89717648976E+02 -0.28386452581E+03  0.32587849253E+03  0.12509000000E+03 0.  0.
         25    1    4    4    0    0  0.31050694398E+02  0.84287076947E+02 -0.38164013269E+03  0.41153998097E+03  0.12509000000E+03 0.  0.
<mgrwt>
<rscale>  2 0.44365207E+03</rscale>
<asrwt>0</asrwt>
<pdfrwt beam="1">  1       21 0.75127674E-02 0.44365207E+03</pdfrwt>
<pdfrwt beam="2">  1       21 0.14164696E+00 0.44365207E+03</pdfrwt>
<totfact> 0.42235806E+04</totfact>
</mgrwt>
</event>
<event>
 7    0  0.4766352E-002  0.4450038E+03  0.7546771E-02  0.1029223E+00
         21   -1    0    0  502  501  0.00000000000E+00  0.00000000000E+00  0.38505588648E+03  0.38505588648E+03  0.00000000000E+00 0.  1.
         21   -1    0    0  501  502 -0.00000000000E+00 -0.00000000000E+00 -0.12857121830E+03  0.12857121830E+03  0.00000000000E+00 0.  1.
      99926    2    1    2    0    0 -0.35527136788E-14  0.00000000000E+00  0.25648466818E+03  0.51362710479E+03  0.44500384017E+03 0.  0.
      99925    2    3    3    0    0 -0.27139699687E+02  0.21657766722E+02  0.27551668880E+03  0.38241983339E+03  0.26292558073E+03 0.  0.
         25    1    4    4    0    0 -0.30629801214E+02 -0.25312867592E+02  0.14552732369E+03  0.19597100813E+03  0.12509000000E+03 0.  0.
         25    1    4    4    0    0  0.34901015271E+01  0.46970634315E+02  0.12998936512E+03  0.18644882526E+03  0.12509000000E+03 0.  0.
         25    1    3    3    0    0  0.27139699687E+02 -0.21657766722E+02 -0.19032020627E+02  0.13120727140E+03  0.12509000000E+03 0.  0.
<mgrwt>
<rscale>  2 0.44500384E+03</rscale>
<asrwt>0</asrwt>
<pdfrwt beam="1">  1       21 0.56625865E-01 0.44500384E+03</pdfrwt>
<pdfrwt beam="2">  1       21 0.18907532E-01 0.44500384E+03</pdfrwt>
<totfact> 0.69688549E+04</totfact>
</mgrwt>
</event>
<event>
 7    0  0.4766352E-002  0.4852732E+03  0.7546771E-02  0.1017696E+00
         21   -1    0    0  502  501  0.00000000000E+00  0.00000000000E+00  0.47770220475E+02  0.47770220475E+02  0.00000000000E+00 0.  1.
         21   -1    0    0  501  502 -0.00000000000E+00 -0.00000000000E+00 -0.12324105711E+04  0.12324105711E+04  0.00000000000E+00 0.  1.
      99926    2    1    2    0    0  0.00000000000E+00 -0.71054273576E-14 -0.11846403506E+04  0.12801807915E+04  0.48527322075E+03 0.  0.
      99925    2    3    3    0    0  0.11481271962E+03  0.40319006455E+02 -0.90773914035E+03  0.95287455695E+03  0.26300568718E+03 0.  0.
         25    1    4    4    0    0  0.45402526507E+02  0.68054163402E+01 -0.55471612003E+03  0.57049556092E+03  0.12509000000E+03 0.  0.
         25    1    3    3    0    0 -0.11481271962E+03 -0.40319006455E+02 -0.27690121023E+03  0.32730623458E+03  0.12509000000E+03 0.  0.
         25    1    4    4    0    0  0.69410193118E+02  0.33513590115E+02 -0.35302302032E+03  0.38237899603E+03  0.12509000000E+03 0.  0.
<mgrwt>
<rscale>  2 0.48527322E+03</rscale>
<asrwt>0</asrwt>
<pdfrwt beam="1">  1       21 0.70250328E-02 0.48527322E+03</pdfrwt>
<pdfrwt beam="2">  1       21 0.18123684E+00 0.48527322E+03</pdfrwt>
<totfact> 0.23620435E+04</totfact>
</mgrwt>
</event>
<event>
 7    0  0.4766352E-002  0.4475287E+03  0.7546771E-02  0.1028462E+00
         21   -1    0    0  502  501  0.00000000000E+00  0.00000000000E+00  0.79453719578E+02  0.79453719578E+02  0.00000000000E+00 0. -1.
         21   -1    0    0  501  502 -0.00000000000E+00 -0.00000000000E+00 -0.63018439824E+03  0.63018439824E+03  0.00000000000E+00 0. -1.
      99926    2    1    2    0    0  0.35527136788E-14  0.00000000000E+00 -0.55073067867E+03  0.70963811782E+03  0.44752874527E+03 0.  0.
      99925    2    3    3    0    0 -0.17765012297E+02  0.26704481709E+02 -0.18946762081E+03  0.32598823828E+03  0.26332798399E+03 0.  0.
         25    1    3    3    0    0  0.17765012297E+02 -0.26704481709E+02 -0.36126305785E+03  0.38364987954E+03  0.12509000000E+03 0.  0.
         25    1    4    4    0    0  0.27763681300E+02 -0.13834737086E+01 -0.77209933076E+02  0.14960487246E+03  0.12509000000E+03 0.  0.
         25    1    4    4    0    0 -0.45528693597E+02  0.28087955417E+02 -0.11225768774E+03  0.17638336581E+03  0.12509000000E+03 0.  0.
<mgrwt>
<rscale>  2 0.44752875E+03</rscale>
<asrwt>0</asrwt>
<pdfrwt beam="1">  1       21 0.11684370E-01 0.44752875E+03</pdfrwt>
<pdfrwt beam="2">  1       21 0.92674178E-01 0.44752875E+03</pdfrwt>
<totfact> 0.55578419E+04</totfact>
</mgrwt>
</event>
<event>
 7    0  0.4766352E-002  0.4546032E+03  0.7546771E-02  0.1026358E+00
         21   -1    0    0  502  501  0.00000000000E+00  0.00000000000E+00  0.48042384089E+03  0.48042384089E+03  0.00000000000E+00 0.  1.
         21   -1    0    0  501  502 -0.00000000000E+00 -0.00000000000E+00 -0.10754259242E+03  0.10754259242E+03  0.00000000000E+00 0.  1.
      99926    2    1    2    0    0  0.00000000000E+00  0.00000000000E+00  0.37288124846E+03  0.58796643331E+03  0.45460323496E+03 0.  0.
      99925    2    3    3    0    0 -0.56166949362E+02 -0.83447965937E+02  0.30081607092E+03  0.41201420361E+03  0.26295837358E+03 0.  0.
         25    1    4    4    0    0  0.63745813889E+01 -0.46006357120E+02  0.11286256976E+03  0.17476466444E+03  0.12509000000E+03 0.  0.
         25    1    4    4    0    0 -0.62541530751E+02 -0.37441608817E+02  0.18795350117E+03  0.23724953918E+03  0.12509000000E+03 0.  0.
         25    1    3    3    0    0  0.56166949362E+02  0.83447965937E+02  0.72065177541E+02  0.17595222969E+03  0.12509000000E+03 0.  0.
<mgrwt>
<rscale>  2 0.45460323E+03</rscale>
<asrwt>0</asrwt>
<pdfrwt beam="1">  1       21 0.70650564E-01 0.45460323E+03</pdfrwt>
<pdfrwt beam="2">  1       21 0.15815087E-01 0.45460323E+03</pdfrwt>
<totfact> 0.59611868E+04</totfact>
</mgrwt>
</event>
<event>
 7    0  0.4766352E-002  0.4491357E+03  0.7546771E-02  0.1027980E+00
         21   -1    0    0  502  501  0.00000000000E+00  0.00000000000E+00  0.32283387667E+03  0.32283387667E+03  0.00000000000E+00 0.  1.
         21   -1    0    0  501  502 -0.00000000000E+00 -0.00000000000E+00 -0.15621257994E+03  0.15621257994E+03  0.00000000000E+00 0.  1.
      99926    2    1    2    0    0 -0.35527136788E-14  0.00000000000E+00  0.16662129672E+03  0.47904645661E+03  0.44913567112E+03 0.  0.
      99925    2    3    3    0    0 -0.29790131910E+02 -0.44715752551E+02  0.59707545782E+01  0.26846854876E+03  0.26296912609E+03 0.  0.
         25    1    3    3    0    0  0.29790131910E+02  0.44715752551E+02  0.16065054215E+03  0.21057790786E+03  0.12509000000E+03 0.  0.
         25    1    4    4    0    0  0.22858682141E+02 -0.22491653656E+02  0.18150652535E+02  0.13040455560E+03  0.12509000000E+03 0.  0.
         25    1    4    4    0    0 -0.52648814052E+02 -0.22224098894E+02 -0.12179897957E+02  0.13806399316E+03  0.12509000000E+03 0.  0.
<mgrwt>
<rscale>  2 0.44913567E+03</rscale>
<asrwt>0</asrwt>
<pdfrwt beam="1">  1       21 0.47475570E-01 0.44913567E+03</pdfrwt>
<pdfrwt beam="2">  1       21 0.22972438E-01 0.44913567E+03</pdfrwt>
<totfact> 0.69970462E+04</totfact>
</mgrwt>
</event>
<event>
 7    0  0.4766352E-002  0.4540920E+03  0.7546771E-02  0.1026509E+00
         21   -1    0    0  502  501  0.00000000000E+00  0.00000000000E+00  0.69953395960E+02  0.69953395960E+02  0.00000000000E+00 0.  1.
         21   -1    0    0  501  502 -0.00000000000E+00 -0.00000000000E+00 -0.73691741225E+03  0.73691741225E+03  0.00000000000E+00 0.  1.
      99926    2    1    2    0    0  0.00000000000E+00  0.00000000000E+00 -0.66696401629E+03  0.80687080821E+03  0.45409195337E+03 0.  0.
      99925    2    3    3    0    0  0.10093349244E+03 -0.42489144791E+02 -0.37633932250E+03  0.47205277097E+03  0.26307724265E+03 0.  0.
         25    1    4    4    0    0  0.33619731831E+02 -0.53802649751E+02 -0.15742609365E+03  0.21084471668E+03  0.12509000000E+03 0.  0.
         25    1    4    4    0    0  0.67313760609E+02  0.11313504960E+02 -0.21891322885E+03  0.26120805429E+03  0.12509000000E+03 0.  0.
         25    1    3    3    0    0 -0.10093349244E+03  0.42489144791E+02 -0.29062469379E+03  0.33481803724E+03  0.12509000000E+03 0.  0.
<mgrwt>
<rscale>  2 0.45409195E+03</rscale>
<asrwt>0</asrwt>
<pdfrwt beam="1">  1       21 0.10287265E-01 0.45409195E+03</pdfrwt>
<pdfrwt beam="2">  1       21 0.10837020E+00 0.45409195E+03</pdfrwt>
<totfact> 0.47773789E+04</totfact>
</mgrwt>
</event>
<event>
 7    0  0.4766352E-002  0.4535479E+03  0.7546771E-02  0.1026669E+00
         21   -1    0    0  502  501  0.00000000000E+00  0.00000000000E+00  0.38568603630E+03  0.38568603630E+03  0.00000000000E+00 0. -1.
         21   -1    0    0  501  502 -0.00000000000E+00 -0.00000000000E+00 -0.13333752173E+03  0.13333752173E+03  0.00000000000E+00 0. -1.
      99926    2    1    2    0    0 -0.14210854715E-13 -0.71054273576E-14  0.25234851457E+03  0.51902355802E+03  0.45354788168E+03 0.  0.
      99925    2    3    3    0    0  0.96057214663E+02  0.57167759575E+02  0.15739274742E+03  0.32625621888E+03  0.26301236130E+03 0.  0.
         25    1    3    3    0    0 -0.96057214663E+02 -0.57167759575E+02  0.94955767148E+02  0.19276733914E+03  0.12509000000E+03 0.  0.
         25    1    4    4    0    0  0.75746264071E+02  0.61173117880E+02  0.78086463551E+02  0.17670498228E+03  0.12509000000E+03 0.  0.
         25    1    4    4    0    0  0.20310950591E+02 -0.40053583050E+01  0.79306283872E+02  0.14955123661E+03  0.12509000000E+03 0.  0.
<mgrwt>
<rscale>  2 0.45354788E+03</rscale>
<asrwt>0</asrwt>
<pdfrwt beam="1">  1       21 0.56718535E-01 0.45354788E+03</pdfrwt>
<pdfrwt beam="2">  1       21 0.19608459E-01 0.45354788E+03</pdfrwt>
<totfact> 0.64695987E+04</totfact>
</mgrwt>
</event>
<event>
 7    0  0.4766352E-002  0.4562491E+03  0.7546771E-02  0.1025875E+00
         21   -1    0    0  502  501  0.00000000000E+00  0.00000000000E+00  0.14114577597E+03  0.14114577597E+03  0.00000000000E+00 0.  1.
         21   -1    0    0  501  502 -0.00000000000E+00 -0.00000000000E+00 -0.36870249883E+03  0.36870249883E+03  0.00000000000E+00 0.  1.
      99926    2    1    2    0    0  0.00000000000E+00  0.00000000000E+00 -0.22755672286E+03  0.50984827480E+03  0.45624905611E+03 0.  0.
      99925    2    3    3    0    0 -0.34371355508E+02 -0.10986463654E+03 -0.15623069494E+03  0.32549389108E+03  0.26131707684E+03 0.  0.
         25    1    3    3    0    0  0.34371355508E+02  0.10986463654E+03 -0.71326027913E+02  0.18435438372E+03  0.12509000000E+03 0.  0.
         25    1    4    4    0    0  0.36913735599E+01 -0.38064418171E+02 -0.41256122048E+02  0.13715721591E+03  0.12509000000E+03 0.  0.
         25    1    4    4    0    0 -0.38062729068E+02 -0.71800218365E+02 -0.11497457290E+03  0.18833667517E+03  0.12509000000E+03 0.  0.
<mgrwt>
<rscale>  2 0.45624906E+03</rscale>
<asrwt>0</asrwt>
<pdfrwt beam="1">  1       21 0.20756732E-01 0.45624906E+03</pdfrwt>
<pdfrwt beam="2">  1       21 0.54220955E-01 0.45624906E+03</pdfrwt>
<totfact> 0.63947903E+04</totfact>
</mgrwt>
</event>
<event>
 7    0  0.4766352E-002  0.4572438E+03  0.7546771E-02  0.1025584E+00
         21   -1    0    0  502  501  0.00000000000E+00  0.00000000000E+00  0.15077838835E+04  0.15077838835E+04  0.00000000000E+00 0.  1.
         21   -1    0    0  501  502 -0.00000000000E+00 -0.00000000000E+00 -0.34665430486E+02  0.34665430486E+02  0.00000000000E+00 0.  1.
      99926    2    1    2    0    0  0.00000000000E+00  0.00000000000E+00  0.14731184530E+04  0.15424493140E+04  0.45724381856E+03 0.  0.
      99925    2    3    3    0    0 -0.84246025344E+02  0.42748046087E+02  0.70146158184E+03  0.75503162104E+03  0.26286804626E+03 0.  0.
         25    1    3    3    0    0  0.84246025344E+02 -0.42748046087E+02  0.77165687120E+03  0.78741769297E+03  0.12509000000E+03 0.  0.
         25    1    4    4    0    0 -0.52934918783E+02 -0.12934858356E+02  0.29608702198E+03  0.32601295813E+03  0.12509000000E+03 0.  0.
         25    1    4    4    0    0 -0.31311106561E+02  0.55682904443E+02  0.40537455986E+03  0.42901866291E+03  0.12509000000E+03 0.  0.
<mgrwt>
<rscale>  2 0.45724382E+03</rscale>
<asrwt>0</asrwt>
<pdfrwt beam="1">  1       21 0.22173288E+00 0.45724382E+03</pdfrwt>
<pdfrwt beam="2">  1       21 0.50978584E-02 0.45724382E+03</pdfrwt>
<totfact> 0.22365399E+04</totfact>
</mgrwt>
</event>
<event>
 7    0  0.4766352E-002  0.4511622E+03  0.7546771E-02  0.1027376E+00
         21   -1    0    0  502  501  0.00000000000E+00  0.00000000000E+00  0.61795644598E+02  0.61795644598E+02  0.00000000000E+00 0.  1.
         21   -1    0    0  501  502 -0.00000000000E+00 -0.00000000000E+00 -0.82346963093E+03  0.82346963093E+03  0.00000000000E+00 0.  1.
      99926    2    1    2    0    0 -0.35527136788E-14  0.14210854715E-13 -0.76167398633E+03  0.88526527553E+03  0.45116221761E+03 0.  0.
      99925    2    3    3    0    0  0.29947699603E+02 -0.69182603960E+02 -0.63696660446E+03  0.69321700921E+03  0.26294537315E+03 0.  0.
         25    1    4    4    0    0  0.36465462090E+02 -0.86088801019E+01 -0.25096037417E+03  0.28290008880E+03  0.12509000000E+03 0.  0.
         25    1    3    3    0    0 -0.29947699603E+02  0.69182603960E+02 -0.12470738187E+03  0.19204826632E+03  0.12509000000E+03 0.  0.
         25    1    4    4    0    0 -0.65177624865E+01 -0.60573723858E+02 -0.38600623029E+03  0.41031692041E+03  0.12509000000E+03 0.  0.
<mgrwt>
<rscale>  2 0.45116222E+03</rscale>
<asrwt>0</asrwt>
<pdfrwt beam="1">  1       21 0.90875941E-02 0.45116222E+03</pdfrwt>
<pdfrwt beam="2">  1       21 0.12109848E+00 0.45116222E+03</pdfrwt>
<totfact> 0.45220752E+04</totfact>
</mgrwt>
</event>
<event>
 7    0  0.4766352E-002  0.4522854E+03  0.7546771E-02  0.1027043E+00
         21   -1    0    0  502  501  0.00000000000E+00  0.00000000000E+00  0.58036946084E+02  0.58036946084E+02  0.00000000000E+00 0.  1.
         21   -1    0    0  501  502 -0.00000000000E+00 -0.00000000000E+00 -0.88117165824E+03  0.88117165824E+03  0.00000000000E+00 0.  1.
      99926    2    1    2    0    0  0.00000000000E+00  0.00000000000E+00 -0.82313471215E+03  0.93920860432E+03  0.45228536134E+03 0.  0.
      99925    2    3    3    0    0  0.15243287208E+02 -0.96388035844E+02 -0.41178362072E+03  0.49832285973E+03  0.26312907665E+03 0.  0.
         25    1    3    3    0    0 -0.15243287208E+02  0.96388035844E+02 -0.41135109143E+03  0.44088574459E+03  0.12509000000E+03 0.  0.
         25    1    4    4    0    0  0.42603623273E+01 -0.68114614536E+02 -0.27963417199E+03  0.31384794032E+03  0.12509000000E+03 0.  0.
         25    1    4    4    0    0  0.10982924881E+02 -0.28273421308E+02 -0.13214944873E+03  0.18447491941E+03  0.12509000000E+03 0.  0.
<mgrwt>
<rscale>  2 0.45228536E+03</rscale>
<asrwt>0</asrwt>
<pdfrwt beam="1">  1       21 0.85348455E-02 0.45228536E+03</pdfrwt>
<pdfrwt beam="2">  1       21 0.12958406E+00 0.45228536E+03</pdfrwt>
<totfact> 0.42475518E+04</totfact>
</mgrwt>
</event>
<event>
 7    0  0.4766352E-002  0.4510689E+03  0.7546771E-02  0.1027404E+00
         21   -1    0    0  502  501  0.00000000000E+00  0.00000000000E+00  0.14565563132E+03  0.14565563132E+03  0.00000000000E+00 0. -1.
         21   -1    0    0  501  502 -0.00000000000E+00 -0.00000000000E+00 -0.34921956346E+03  0.34921956346E+03  0.00000000000E+00 0. -1.
      99926    2    1    2    0    0  0.00000000000E+00  0.00000000000E+00 -0.20356393214E+03  0.49487519479E+03  0.45106893481E+03 0.  0.
      99925    2    3    3    0    0  0.88415062006E+02 -0.14103672804E+02 -0.19755049397E+03  0.34092778067E+03  0.26303881308E+03 0.  0.
         25    1    4    4    0    0  0.11389527458E+02 -0.86802208265E+01 -0.12334650368E+03  0.17625815056E+03  0.12509000000E+03 0.  0.
         25    1    4    4    0    0  0.77025534548E+02 -0.54234519771E+01 -0.74203990294E+02  0.16466963011E+03  0.12509000000E+03 0.  0.
         25    1    3    3    0    0 -0.88415062006E+02  0.14103672804E+02 -0.60134381664E+01  0.15394741412E+03  0.12509000000E+03 0.  0.
<mgrwt>
<rscale>  2 0.45106893E+03</rscale>
<asrwt>0</asrwt>
<pdfrwt beam="1">  1       21 0.21419946E-01 0.45106893E+03</pdfrwt>
<pdfrwt beam="2">  1       21 0.51355818E-01 0.45106893E+03</pdfrwt>
<totfact> 0.67720981E+04</totfact>
</mgrwt>
</event>
<event>
 7    0  0.4766352E-002  0.4627661E+03  0.7546771E-02  0.1023982E+00
         21   -1    0    0  502  501  0.00000000000E+00  0.00000000000E+00  0.12750347716E+03  0.12750347716E+03  0.00000000000E+00 0.  1.
         21   -1    0    0  501  502 -0.00000000000E+00 -0.00000000000E+00 -0.41989531023E+03  0.41989531023E+03  0.00000000000E+00 0.  1.
      99926    2    1    2    0    0  0.14210854715E-13  0.00000000000E+00 -0.29239183307E+03  0.54739878739E+03  0.46276608388E+03 0.  0.
      99925    2    3    3    0    0  0.85538751984E+02  0.79934509678E+02 -0.15011255515E+03  0.32469426352E+03  0.26303266265E+03 0.  0.
         25    1    4    4    0    0  0.72924671782E+02  0.27336814860E+02 -0.50047863003E+02  0.15562006905E+03  0.12509000000E+03 0.  0.
         25    1    3    3    0    0 -0.85538751984E+02 -0.79934509678E+02 -0.14227927792E+03  0.22270452388E+03  0.12509000000E+03 0.  0.
         25    1    4    4    0    0  0.12614080202E+02  0.52597694818E+02 -0.10006469215E+03  0.16907419446E+03  0.12509000000E+03 0.  0.
<mgrwt>
<rscale>  2 0.46276608E+03</rscale>
<asrwt>0</asrwt>
<pdfrwt beam="1">  1       21 0.18750512E-01 0.46276608E+03</pdfrwt>
<pdfrwt beam="2">  1       21 0.61749309E-01 0.46276608E+03</pdfrwt>
<totfact> 0.58368386E+04</totfact>
</mgrwt>
</event>
<event>
 7    0  0.4766352E-002  0.4610939E+03  0.7546771E-02  0.1024464E+00
         21   -1    0    0  502  501  0.00000000000E+00  0.00000000000E+00  0.21579000951E+03  0.21579000951E+03  0.00000000000E+00 0.  1.
         21   -1    0    0  501  502 -0.00000000000E+00 -0.00000000000E+00 -0.24631309716E+03  0.24631309716E+03  0.00000000000E+00 0.  1.
      99926    2    1    2    0    0  0.00000000000E+00  0.00000000000E+00 -0.30523087652E+02  0.46210310668E+03  0.46109394089E+03 0.  0.
      99925    2    3    3    0    0 -0.64377840622E+02 -0.99771667735E+02 -0.15245877136E+02  0.28895636744E+03  0.26299135627E+03 0.  0.
         25    1    4    4    0    0 -0.12718809790E+02 -0.54701601466E+02 -0.42864868814E+02  0.14366258526E+03  0.12509000000E+03 0.  0.
         25    1    3    3    0    0  0.64377840622E+02  0.99771667735E+02 -0.15277210516E+02  0.17314673923E+03  0.12509000000E+03 0.  0.
         25    1    4    4    0    0 -0.51659030832E+02 -0.45070066269E+02  0.27618991678E+02  0.14529378218E+03  0.12509000000E+03 0.  0.
<mgrwt>
<rscale>  2 0.46109394E+03</rscale>
<asrwt>0</asrwt>
<pdfrwt beam="1">  1       21 0.31733825E-01 0.46109394E+03</pdfrwt>
<pdfrwt beam="2">  1       21 0.36222514E-01 0.46109394E+03</pdfrwt>
<totfact> 0.64819113E+04</totfact>
</mgrwt>
</event>
<event>
 7    0  0.4766352E-002  0.4531274E+03  0.7546771E-02  0.1026794E+00
         21   -1    0    0  502  501  0.00000000000E+00  0.00000000000E+00  0.14091208304E+04  0.14091208304E+04  0.00000000000E+00 0.  1.
         21   -1    0    0  501  502 -0.00000000000E+00 -0.00000000000E+00 -0.36427750044E+02  0.36427750044E+02  0.00000000000E+00 0.  1.
      99926    2    1    2    0    0  0.00000000000E+00  0.71054273576E-14  0.13726930804E+04  0.14455485804E+04  0.45312736131E+03 0.  0.
      99925    2    3    3    0    0 -0.93095155662E+02  0.57967217575E+02  0.80351454997E+03  0.85255733778E+03  0.26304272632E+03 0.  0.
         25    1    4    4    0    0 -0.13062556465E+02  0.49293296399E+02  0.34437433392E+03  0.36992113946E+03  0.12509000000E+03 0.  0.
         25    1    3    3    0    0  0.93095155662E+02 -0.57967217575E+02  0.56917853039E+03  0.59299124267E+03  0.12509000000E+03 0.  0.
         25    1    4    4    0    0 -0.80032599197E+02  0.86739211766E+01  0.45914021604E+03  0.48263619832E+03  0.12509000000E+03 0.  0.
<mgrwt>
<rscale>  2 0.45312736E+03</rscale>
<asrwt>0</asrwt>
<pdfrwt beam="1">  1       21 0.20722361E+00 0.45312736E+03</pdfrwt>
<pdfrwt beam="2">  1       21 0.53570230E-02 0.45312736E+03</pdfrwt>
<totfact> 0.25512281E+04</totfact>
</mgrwt>
</event>
<event>
 7    0  0.4766352E-002  0.4531865E+03  0.7546771E-02  0.1026776E+00
         21   -1    0    0  502  501  0.00000000000E+00  0.00000000000E+00  0.41992360934E+03  0.41992360934E+03  0.00000000000E+00 0.  1.
         21   -1    0    0  501  502 -0.00000000000E+00 -0.00000000000E+00 -0.12227105175E+03  0.12227105175E+03  0.00000000000E+00 0.  1.
      99926    2    1    2    0    0  0.00000000000E+00  0.00000000000E+00  0.29765255759E+03  0.54219466109E+03  0.45318650187E+03 0.  0.
      99925    2    3    3    0    0  0.89401691160E+02 -0.63565939821E+02  0.16421324555E+03  0.32891819922E+03  0.26303593040E+03 0.  0.
         25    1    3    3    0    0 -0.89401691160E+02  0.63565939821E+02  0.13343931204E+03  0.21327646187E+03  0.12509000000E+03 0.  0.
         25    1    4    4    0    0  0.15108885644E+02 -0.59465652391E+02  0.85090126906E+02  0.16325526036E+03  0.12509000000E+03 0.  0.
         25    1    4    4    0    0  0.74292805516E+02 -0.41002874305E+01  0.79123118640E+02  0.16566293886E+03  0.12509000000E+03 0.  0.
<mgrwt>
<rscale>  2 0.45318650E+03</rscale>
<asrwt>0</asrwt>
<pdfrwt beam="1">  1       21 0.61753472E-01 0.45318650E+03</pdfrwt>
<pdfrwt beam="2">  1       21 0.17981037E-01 0.45318650E+03</pdfrwt>
<totfact> 0.63288639E+04</totfact>
</mgrwt>
</event>
<event>
 7    0  0.4766352E-002  0.4552993E+03  0.7546771E-02  0.1026153E+00
         21   -1    0    0  502  501  0.00000000000E+00  0.00000000000E+00  0.82753063761E+03  0.82753063761E+03  0.00000000000E+00 0.  1.
         21   -1    0    0  501  502 -0.00000000000E+00 -0.00000000000E+00 -0.62625319686E+02  0.62625319686E+02  0.00000000000E+00 0.  1.
      99926    2    1    2    0    0  0.00000000000E+00  0.00000000000E+00  0.76490531793E+03  0.89015595730E+03  0.45529933332E+03 0.  0.
      99925    2    3    3    0    0 -0.36910602476E+02 -0.98401295884E+02  0.56474867810E+03  0.63178530073E+03  0.26299503646E+03 0.  0.
         25    1    4    4    0    0 -0.13270341652E+02 -0.35723770831E+02  0.18632790981E+03  0.22763542748E+03  0.12509000000E+03 0.  0.
         25    1    3    3    0    0  0.36910602476E+02  0.98401295884E+02  0.20015663983E+03  0.25837065657E+03  0.12509000000E+03 0.  0.
         25    1    4    4    0    0 -0.23640260824E+02 -0.62677525053E+02  0.37842076828E+03  0.40414987325E+03  0.12509000000E+03 0.  0.
<mgrwt>
<rscale>  2 0.45529933E+03</rscale>
<asrwt>0</asrwt>
<pdfrwt beam="1">  1       21 0.12169568E+00 0.45529933E+03</pdfrwt>
<pdfrwt beam="2">  1       21 0.92096063E-02 0.45529933E+03</pdfrwt>
<totfact> 0.43559858E+04</totfact>
</mgrwt>
</event>
<event>
 7    0  0.4766352E-002  0.4384762E+03  0.7546771E-02  0.1031215E+00
         21   -1    0    0  502  501  0.00000000000E+00  0.00000000000E+00  0.57401229191E+02  0.57401229191E+02  0.00000000000E+00 0. -1.
         21   -1    0    0  501  502 -0.00000000000E+00 -0.00000000000E+00 -0.83735737141E+03  0.83735737141E+03  0.00000000000E+00 0. -1.
      99926    2    1    2    0    0  0.00000000000E+00  0.00000000000E+00 -0.77995614222E+03  0.89475860060E+03  0.43847619042E+03 0.  0.
      99925    2    3    3    0    0 -0.15075010877E+02  0.72015511811E+02 -0.37006191892E+03  0.45993188535E+03  0.26301715807E+03 0.  0.
         25    1    4    4    0    0  0.21532980057E+02  0.26991257904E+02 -0.13393444238E+03  0.18648898142E+03  0.12509000000E+03 0.  0.
         25    1    4    4    0    0 -0.36607990934E+02  0.45024253908E+02 -0.23612747653E+03  0.27344290394E+03  0.12509000000E+03 0.  0.
         25    1    3    3    0    0  0.15075010877E+02 -0.72015511811E+02 -0.40989422330E+03  0.43482671525E+03  0.12509000000E+03 0.  0.
<mgrwt>
<rscale>  2 0.43847619E+03</rscale>
<asrwt>0</asrwt>
<pdfrwt beam="1">  1       21 0.84413576E-02 0.43847619E+03</pdfrwt>
<pdfrwt beam="2">  1       21 0.12314078E+00 0.43847619E+03</pdfrwt>
<totfact> 0.49567357E+04</totfact>
</mgrwt>
</event>
<event>
 7    0  0.4766352E-002  0.4488709E+03  0.7546771E-02  0.1028059E+00
         21   -1    0    0  502  501  0.00000000000E+00  0.00000000000E+00  0.12467735202E+03  0.12467735202E+03  0.00000000000E+00 0. -1.
         21   -1    0    0  501  502 -0.00000000000E+00 -0.00000000000E+00 -0.40401300559E+03  0.40401300559E+03  0.00000000000E+00 0. -1.
      99926    2    1    2    0    0 -0.35527136788E-14  0.00000000000E+00 -0.27933565357E+03  0.52869035761E+03  0.44887090224E+03 0.  0.
      99925    2    3    3    0    0 -0.26059182717E+02 -0.61273099019E+02 -0.27586749072E+03  0.38694054308E+03  0.26303352975E+03 0.  0.
         25    1    3    3    0    0  0.26059182717E+02  0.61273099019E+02 -0.34681628481E+01  0.14174981454E+03  0.12509000000E+03 0.  0.
         25    1    4    4    0    0 -0.67311811260E+01 -0.20869296582E+02 -0.19071147921E+03  0.22912706680E+03  0.12509000000E+03 0.  0.
         25    1    4    4    0    0 -0.19328001591E+02 -0.40403802436E+02 -0.85156011515E+02  0.15781347627E+03  0.12509000000E+03 0.  0.
<mgrwt>
<rscale>  2 0.44887090E+03</rscale>
<asrwt>0</asrwt>
<pdfrwt beam="1">  1       21 0.18334905E-01 0.44887090E+03</pdfrwt>
<pdfrwt beam="2">  1       21 0.59413676E-01 0.44887090E+03</pdfrwt>
<totfact> 0.66463510E+04</totfact>
</mgrwt>
</event>
<event>
 7    0  0.4766352E-002  0.4251238E+03  0.7546771E-02  0.1035411E+00
         21   -1    0    0  502  501  0.00000000000E+00  0.00000000000E+00  0.24428455885E+03  0.24428455885E+03  0.00000000000E+00 0. -1.
         21   -1    0    0  501  502 -0.00000000000E+00 -0.00000000000E+00 -0.18495870911E+03  0.18495870911E+03  0.00000000000E+00 0. -1.
      99926    2    1    2    0    0  0.00000000000E+00 -0.35527136788E-14  0.59325849739E+02  0.42924326795E+03  0.42512377802E+03 0.  0.
      99925    2    3    3    0    0 -0.76251689927E+02  0.30020025676E+02  0.38342891564E+02  0.27823560327E+03  0.26311471156E+03 0.  0.
         25    1    4    4    0    0 -0.52352418726E+02  0.52694220436E+02  0.10093484929E+02  0.14583155746E+03  0.12509000000E+03 0.  0.
         25    1    4    4    0    0 -0.23899271202E+02 -0.22674194760E+02  0.28249406635E+02  0.13240404581E+03  0.12509000000E+03 0.  0.
         25    1    3    3    0    0  0.76251689927E+02 -0.30020025676E+02  0.20982958175E+02  0.15100766468E+03  0.12509000000E+03 0.  0.
<mgrwt>
<rscale>  2 0.42512378E+03</rscale>
<asrwt>0</asrwt>
<pdfrwt beam="1">  1       21 0.35924200E-01 0.42512378E+03</pdfrwt>
<pdfrwt beam="2">  1       21 0.27199810E-01 0.42512378E+03</pdfrwt>
<totfact> 0.90113841E+04</totfact>
</mgrwt>
</event>
<event>
 7    0  0.4766352E-002  0.4478618E+03  0.7546771E-02  0.1028362E+00
         21   -1    0    0  502  501  0.00000000000E+00  0.00000000000E+00  0.30352731622E+02  0.30352731622E+02  0.00000000000E+00 0.  1.
         21   -1    0    0  501  502 -0.00000000000E+00 -0.00000000000E+00 -0.16520769552E+04  0.16520769552E+04  0.00000000000E+00 0.  1.
      99926    2    1    2    0    0 -0.71054273576E-14 -0.14210854715E-13 -0.16217242236E+04  0.16824296869E+04  0.44786180208E+03 0.  0.
      99925    2    3    3    0    0  0.46001048202E+02  0.73915948292E+02 -0.79727181944E+03  0.84400918455E+03  0.26292486698E+03 0.  0.
         25    1    4    4    0    0 -0.13832635054E+02  0.24746776558E+02 -0.41653364838E+03  0.43583429543E+03  0.12509000000E+03 0.  0.
         25    1    4    4    0    0  0.59833683256E+02  0.49169171734E+02 -0.38073817107E+03  0.40817488912E+03  0.12509000000E+03 0.  0.
         25    1    3    3    0    0 -0.46001048202E+02 -0.73915948292E+02 -0.82445240418E+03  0.83842050232E+03  0.12509000000E+03 0.  0.
<mgrwt>
<rscale>  2 0.44786180E+03</rscale>
<asrwt>0</asrwt>
<pdfrwt beam="1">  1       21 0.44636371E-02 0.44786180E+03</pdfrwt>
<pdfrwt beam="2">  1       21 0.24295249E+00 0.44786180E+03</pdfrwt>
<totfact> 0.20756424E+04</totfact>
</mgrwt>
</event>
<event>
 7    0  0.4766352E-002  0.4589494E+03  0.7546771E-02  0.1025086E+00
         21   -1    0    0  502  501  0.00000000000E+00  0.00000000000E+00  0.24753688477E+03  0.24753688477E+03  0.00000000000E+00 0.  1.
         21   -1    0    0  501  502 -0.00000000000E+00 -0.00000000000E+00 -0.21273047244E+03  0.21273047244E+03  0.00000000000E+00 0.  1.
      99926    2    1    2    0    0  0.00000000000E+00  0.00000000000E+00  0.34806412322E+02  0.46026735721E+03  0.45894940219E+03 0.  0.
      99925    2    3    3    0    0  0.93641040011E+02 -0.32007195845E+02 -0.40023155112E+02  0.28408541369E+03  0.26326709700E+03 0.  0.
         25    1    4    4    0    0  0.69289129273E+02 -0.50066809663E+02 -0.95182505256E+01  0.15180834647E+03  0.12509000000E+03 0.  0.
         25    1    4    4    0    0  0.24351910738E+02  0.18059613818E+02 -0.30504904586E+02  0.13227706722E+03  0.12509000000E+03 0.  0.
         25    1    3    3    0    0 -0.93641040011E+02  0.32007195845E+02  0.74829567434E+02  0.17618194352E+03  0.12509000000E+03 0.  0.
<mgrwt>
<rscale>  2 0.45894940E+03</rscale>
<asrwt>0</asrwt>
<pdfrwt beam="1">  1       21 0.36402483E-01 0.45894940E+03</pdfrwt>
<pdfrwt beam="2">  1       21 0.31283893E-01 0.45894940E+03</pdfrwt>
<totfact> 0.66055497E+04</totfact>
</mgrwt>
</event>
<event>
 7    0  0.4766352E-002  0.4512326E+03  0.7546771E-02  0.1027355E+00
         21   -1    0    0  502  501  0.00000000000E+00  0.00000000000E+00  0.18015812341E+04  0.18015812341E+04  0.00000000000E+00 0.  1.
         21   -1    0    0  501  502 -0.00000000000E+00 -0.00000000000E+00 -0.28254462335E+02  0.28254462335E+02  0.00000000000E+00 0.  1.
      99926    2    1    2    0    0  0.00000000000E+00 -0.71054273576E-14  0.17733267718E+04  0.18298356965E+04  0.45123257472E+03 0.  0.
      99925    2    3    3    0    0 -0.77965470443E+02 -0.59625264462E+02  0.92202648092E+03  0.96381405697E+03  0.26300364662E+03 0.  0.
         25    1    3    3    0    0  0.77965470443E+02  0.59625264462E+02  0.85130029088E+03  0.86602163951E+03  0.12509000000E+03 0.  0.
         25    1    4    4    0    0 -0.41364555008E+02  0.10804376729E+02  0.45990613102E+03  0.47852786587E+03  0.12509000000E+03 0.  0.
         25    1    4    4    0    0 -0.36600915435E+02 -0.70429641191E+02  0.46212034990E+03  0.48528619109E+03  0.12509000000E+03 0.  0.
<mgrwt>
<rscale>  2 0.45123257E+03</rscale>
<asrwt>0</asrwt>
<pdfrwt beam="1">  1       21 0.26493834E+00 0.45123257E+03</pdfrwt>
<pdfrwt beam="2">  1       21 0.41550692E-02 0.45123257E+03</pdfrwt>
<totfact> 0.17190313E+04</totfact>
</mgrwt>
</event>
<event>
 7    0  0.4766352E-002  0.4488958E+03  0.7546771E-02  0.1028052E+00
         21   -1    0    0  502  501  0.00000000000E+00  0.00000000000E+00  0.15518758654E+03  0.15518758654E+03  0.00000000000E+00 0. -1.
         21   -1    0    0  501  502 -0.00000000000E+00 -0.00000000000E+00 -0.32461919994E+03  0.32461919994E+03  0.00000000000E+00 0. -1.
      99926    2    1    2    0    0  0.00000000000E+00 -0.35527136788E-14 -0.16943161340E+03  0.47980678648E+03  0.44889584619E+03 0.  0.
      99925    2    3    3    0    0  0.19917308424E+02 -0.20659238691E+02 -0.21777705632E+03  0.34266345536E+03  0.26299789746E+03 0.  0.
         25    1    3    3    0    0 -0.19917308424E+02  0.20659238691E+02  0.48345442916E+02  0.13714333111E+03  0.12509000000E+03 0.  0.
         25    1    4    4    0    0  0.64903602085E+01  0.49761746427E+01 -0.59221793589E+02  0.13864204278E+03  0.12509000000E+03 0.  0.
         25    1    4    4    0    0  0.13426948215E+02 -0.25635413334E+02 -0.15855526273E+03  0.20402141259E+03  0.12509000000E+03 0.  0.
<mgrwt>
<rscale>  2 0.44889585E+03</rscale>
<asrwt>0</asrwt>
<pdfrwt beam="1">  1       21 0.22821704E-01 0.44889585E+03</pdfrwt>
<pdfrwt beam="2">  1       21 0.47738117E-01 0.44889585E+03</pdfrwt>
<totfact> 0.70047299E+04</totfact>
</mgrwt>
</event>
<event>
 7    0  0.4766352E-002  0.4700989E+03  0.7546771E-02  0.1021892E+00
         21   -1    0    0  502  501  0.00000000000E+00  0.00000000000E+00  0.43224267858E+03  0.43224267858E+03  0.00000000000E+00 0. -1.
         21   -1    0    0  501  502 -0.00000000000E+00 -0.00000000000E+00 -0.12781766526E+03  0.12781766526E+03  0.00000000000E+00 0. -1.
      99926    2    1    2    0    0  0.28865798640E-14  0.14210854715E-13  0.30442501332E+03  0.56006034384E+03  0.47009892576E+03 0.  0.
      99925    2    3    3    0    0 -0.14732792535E+01 -0.12674320665E+03  0.19302222831E+03  0.35000297169E+03  0.26301803852E+03 0.  0.
         25    1    4    4    0    0 -0.34991793850E+02 -0.86281806638E+02  0.11177806216E+03  0.19186145802E+03  0.12509000000E+03 0.  0.
         25    1    4    4    0    0  0.33518514597E+02 -0.40461400017E+02  0.81244166146E+02  0.15814151367E+03  0.12509000000E+03 0.  0.
         25    1    3    3    0    0  0.14732792535E+01  0.12674320665E+03  0.11140278501E+03  0.21005737215E+03  0.12509000000E+03 0.  0.
<mgrwt>
<rscale>  2 0.47009893E+03</rscale>
<asrwt>0</asrwt>
<pdfrwt beam="1">  1       21 0.63565099E-01 0.47009893E+03</pdfrwt>
<pdfrwt beam="2">  1       21 0.18796716E-01 0.47009893E+03</pdfrwt>
<totfact> 0.54410591E+04</totfact>
</mgrwt>
</event>
<event>
 7    0  0.4766352E-002  0.4547178E+03  0.7546771E-02  0.1026324E+00
         21   -1    0    0  502  501  0.00000000000E+00  0.00000000000E+00  0.19786820885E+03  0.19786820885E+03  0.00000000000E+00 0. -1.
         21   -1    0    0  501  502 -0.00000000000E+00 -0.00000000000E+00 -0.26124495699E+03  0.26124495699E+03  0.00000000000E+00 0. -1.
      99926    2    1    2    0    0  0.14210854715E-13  0.00000000000E+00 -0.63376748134E+02  0.45911316584E+03  0.45471781012E+03 0.  0.
      99925    2    3    3    0    0 -0.78986526441E+02 -0.79659314785E+02 -0.25456171364E+02  0.28686347489E+03  0.26278919074E+03 0.  0.
         25    1    3    3    0    0  0.78986526441E+02  0.79659314785E+02 -0.37920576771E+02  0.17224969095E+03  0.12509000000E+03 0.  0.
         25    1    4    4    0    0 -0.40081407715E+01 -0.58289460648E+02 -0.18567615558E+02  0.13930538706E+03  0.12509000000E+03 0.  0.
         25    1    4    4    0    0 -0.74978385669E+02 -0.21369854137E+02 -0.68885558057E+01  0.14755808783E+03  0.12509000000E+03 0.  0.
<mgrwt>
<rscale>  2 0.45471781E+03</rscale>
<asrwt>0</asrwt>
<pdfrwt beam="1">  1       21 0.29098266E-01 0.45471781E+03</pdfrwt>
<pdfrwt beam="2">  1       21 0.38418376E-01 0.45471781E+03</pdfrwt>
<totfact> 0.68399048E+04</totfact>
</mgrwt>
</event>
<event>
 7    0  0.4766352E-002  0.4510095E+03  0.7546771E-02  0.1027421E+00
         21   -1    0    0  502  501  0.00000000000E+00  0.00000000000E+00  0.18318409335E+03  0.18318409335E+03  0.00000000000E+00 0.  1.
         21   -1    0    0  501  502 -0.00000000000E+00 -0.00000000000E+00 -0.27760264536E+03  0.27760264536E+03  0.00000000000E+00 0.  1.
      99926    2    1    2    0    0  0.00000000000E+00  0.00000000000E+00 -0.94418552013E+02  0.46078673872E+03  0.45100948506E+03 0.  0.
      99925    2    3    3    0    0 -0.22493935677E+02  0.16853661907E+02 -0.16761039187E+03  0.31315687526E+03  0.26302844333E+03 0.  0.
         25    1    4    4    0    0 -0.51756356854E+02  0.12374356563E+02 -0.83358047941E+02  0.15946133522E+03  0.12509000000E+03 0.  0.
         25    1    4    4    0    0  0.29262421177E+02  0.44793053440E+01 -0.84252343930E+02  0.15369554004E+03  0.12509000000E+03 0.  0.
         25    1    3    3    0    0  0.22493935677E+02 -0.16853661907E+02  0.73191839858E+02  0.14762986345E+03  0.12509000000E+03 0.  0.
<mgrwt>
<rscale>  2 0.45100949E+03</rscale>
<asrwt>0</asrwt>
<pdfrwt beam="1">  1       21 0.26938837E-01 0.45100949E+03</pdfrwt>
<pdfrwt beam="2">  1       21 0.40823918E-01 0.45100949E+03</pdfrwt>
<totfact> 0.70327666E+04</totfact>
</mgrwt>
</event>
<event>
 7    0  0.4766352E-002  0.4448865E+03  0.7546771E-02  0.1029258E+00
         21   -1    0    0  502  501  0.00000000000E+00  0.00000000000E+00  0.10879961406E+03  0.10879961406E+03  0.00000000000E+00 0.  1.
         21   -1    0    0  501  502 -0.00000000000E+00 -0.00000000000E+00 -0.45479024586E+03  0.45479024586E+03  0.00000000000E+00 0.  1.
      99926    2    1    2    0    0  0.00000000000E+00  0.00000000000E+00 -0.34599063180E+03  0.56358985992E+03  0.44488651689E+03 0.  0.
      99925    2    3    3    0    0 -0.20236040637E+02 -0.91507781433E+02 -0.27495377160E+03  0.39190143570E+03  0.26306650752E+03 0.  0.
         25    1    3    3    0    0  0.20236040637E+02  0.91507781433E+02 -0.71036860202E+02  0.17168842422E+03  0.12509000000E+03 0.  0.
         25    1    4    4    0    0 -0.45682932409E+02 -0.27332630070E+02 -0.14505392741E+03  0.19880179309E+03  0.12509000000E+03 0.  0.
         25    1    4    4    0    0  0.25446891773E+02 -0.64175151363E+02 -0.12989984419E+03  0.19309964261E+03  0.12509000000E+03 0.  0.
<mgrwt>
<rscale>  2 0.44488652E+03</rscale>
<asrwt>0</asrwt>
<pdfrwt beam="1">  1       21 0.15999944E-01 0.44488652E+03</pdfrwt>
<pdfrwt beam="2">  1       21 0.66880917E-01 0.44488652E+03</pdfrwt>
<totfact> 0.66108604E+04</totfact>
</mgrwt>
</event>
<event>
 7    0  0.4766352E-002  0.4574893E+03  0.7546771E-02  0.1025512E+00
         21   -1    0    0  502  501  0.00000000000E+00  0.00000000000E+00  0.44395711264E+03  0.44395711264E+03  0.00000000000E+00 0.  1.
         21   -1    0    0  501  502 -0.00000000000E+00 -0.00000000000E+00 -0.11785847102E+03  0.11785847102E+03  0.00000000000E+00 0.  1.
      99926    2    1    2    0    0  0.00000000000E+00  0.00000000000E+00  0.32609864162E+03  0.56181558365E+03  0.45748926323E+03 0.  0.
      99925    2    3    3    0    0  0.72359289826E+02 -0.59690613428E+02  0.12209414534E+03  0.30478605469E+03  0.26303749286E+03 0.  0.
         25    1    3    3    0    0 -0.72359289826E+02  0.59690613428E+02  0.20400449629E+03  0.25702952897E+03  0.12509000000E+03 0.  0.
         25    1    4    4    0    0  0.70904974721E+02 -0.44444918304E+02  0.45139310930E+02  0.15712393737E+03  0.12509000000E+03 0.  0.
         25    1    4    4    0    0  0.14543151054E+01 -0.15245695124E+02  0.76954834406E+02  0.14766211732E+03  0.12509000000E+03 0.  0.
<mgrwt>
<rscale>  2 0.45748926E+03</rscale>
<asrwt>0</asrwt>
<pdfrwt beam="1">  1       21 0.65287810E-01 0.45748926E+03</pdfrwt>
<pdfrwt beam="2">  1       21 0.17332128E-01 0.45748926E+03</pdfrwt>
<totfact> 0.59904222E+04</totfact>
</mgrwt>
</event>
<event>
 7    0  0.4766352E-002  0.4396096E+03  0.7546771E-02  0.1030867E+00
         21   -1    0    0  502  501  0.00000000000E+00  0.00000000000E+00  0.95884058844E+02  0.95884058844E+02  0.00000000000E+00 0. -1.
         21   -1    0    0  501  502 -0.00000000000E+00 -0.00000000000E+00 -0.50388087578E+03  0.50388087578E+03  0.00000000000E+00 0. -1.
      99926    2    1    2    0    0  0.00000000000E+00  0.00000000000E+00 -0.40799681693E+03  0.59976493462E+03  0.43960957016E+03 0.  0.
      99925    2    3    3    0    0  0.56030196113E+02  0.68353317722E+02 -0.20256421691E+03  0.34351970019E+03  0.26298662232E+03 0.  0.
         25    1    3    3    0    0 -0.56030196113E+02 -0.68353317722E+02 -0.20543260002E+03  0.25624523443E+03  0.12509000000E+03 0.  0.
         25    1    4    4    0    0  0.46557668871E+02  0.67333429155E+02 -0.87092041138E+02  0.17301427381E+03  0.12509000000E+03 0.  0.
         25    1    4    4    0    0  0.94725272420E+01  0.10198885667E+01 -0.11547217578E+03  0.17050542638E+03  0.12509000000E+03 0.  0.
<mgrwt>
<rscale>  2 0.43960957E+03</rscale>
<asrwt>0</asrwt>
<pdfrwt beam="1">  1       21 0.14100597E-01 0.43960957E+03</pdfrwt>
<pdfrwt beam="2">  1       21 0.74100130E-01 0.43960957E+03</pdfrwt>
<totfact> 0.66406560E+04</totfact>
</mgrwt>
</event>
<event>
 7    0  0.4766352E-002  0.4434885E+03  0.7546771E-02  0.1029682E+00
         21   -1    0    0  502  501  0.00000000000E+00  0.00000000000E+00  0.48181276872E+03  0.48181276872E+03  0.00000000000E+00 0. -1.
         21   -1    0    0  501  502 -0.00000000000E+00 -0.00000000000E+00 -0.10205313248E+03  0.10205313248E+03  0.00000000000E+00 0. -1.
      99926    2    1    2    0    0  0.00000000000E+00  0.00000000000E+00  0.37975963624E+03  0.58386590119E+03  0.44348845448E+03 0.  0.
      99925    2    3    3    0    0 -0.59720728738E+02  0.81200582067E+02  0.21969283534E+03  0.35708629713E+03  0.26284136229E+03 0.  0.
         25    1    4    4    0    0 -0.33690677619E+01  0.81397606828E+01  0.85926102760E+02  0.15201450443E+03  0.12509000000E+03 0.  0.
         25    1    3    3    0    0  0.59720728738E+02 -0.81200582067E+02  0.16006680090E+03  0.22677960407E+03  0.12509000000E+03 0.  0.
         25    1    4    4    0    0 -0.56351660976E+02  0.73060821385E+02  0.13376673258E+03  0.20507179270E+03  0.12509000000E+03 0.  0.
<mgrwt>
<rscale>  2 0.44348845E+03</rscale>
<asrwt>0</asrwt>
<pdfrwt beam="1">  1       21 0.70854818E-01 0.44348845E+03</pdfrwt>
<pdfrwt beam="2">  1       21 0.15007814E-01 0.44348845E+03</pdfrwt>
<totfact> 0.65436643E+04</totfact>
</mgrwt>
</event>
<event>
 7    0  0.4766352E-002  0.4538233E+03  0.7546771E-02  0.1026588E+00
         21   -1    0    0  502  501  0.00000000000E+00  0.00000000000E+00  0.25197747543E+03  0.25197747543E+03  0.00000000000E+00 0.  1.
         21   -1    0    0  501  502 -0.00000000000E+00 -0.00000000000E+00 -0.20433924106E+03  0.20433924106E+03  0.00000000000E+00 0.  1.
      99926    2    1    2    0    0  0.00000000000E+00 -0.17763568394E-14  0.47638234371E+02  0.45631671649E+03  0.45382325235E+03 0.  0.
      99925    2    3    3    0    0  0.92946233892E+02 -0.15299450812E+02  0.91022017214E+02  0.29382752823E+03  0.26301432116E+03 0.  0.
         25    1    4    4    0    0  0.26071106320E+02  0.24012732170E+02  0.24503136610E+02  0.13230353621E+03  0.12509000000E+03 0.  0.
         25    1    3    3    0    0 -0.92946233892E+02  0.15299450812E+02 -0.43383782843E+02  0.16248918827E+03  0.12509000000E+03 0.  0.
         25    1    4    4    0    0  0.66875127572E+02 -0.39312182982E+02  0.66518880604E+02  0.16152399201E+03  0.12509000000E+03 0.  0.
<mgrwt>
<rscale>  2 0.45382325E+03</rscale>
<asrwt>0</asrwt>
<pdfrwt beam="1">  1       21 0.37055511E-01 0.45382325E+03</pdfrwt>
<pdfrwt beam="2">  1       21 0.30049888E-01 0.45382325E+03</pdfrwt>
<totfact> 0.69095855E+04</totfact>
</mgrwt>
</event>
<event>
 7    0  0.4766352E-002  0.4533437E+03  0.7546771E-02  0.1026730E+00
         21   -1    0    0  502  501  0.00000000000E+00  0.00000000000E+00  0.66805758557E+02  0.66805758557E+02  0.00000000000E+00 0.  1.
         21   -1    0    0  501  502 -0.00000000000E+00 -0.00000000000E+00 -0.76909728619E+03  0.76909728619E+03  0.00000000000E+00 0.  1.
      99926    2    1    2    0    0  0.00000000000E+00  0.00000000000E+00 -0.70229152763E+03  0.83590304474E+03  0.45334370011E+03 0.  0.
      99925    2    3    3    0    0  0.25884871681E+02  0.87788378693E+02 -0.56062253513E+03  0.62591628909E+03  0.26286260295E+03 0.  0.
         25    1    4    4    0    0  0.42909534303E+01  0.36767468421E+02 -0.36155693904E+03  0.38437115824E+03  0.12509000000E+03 0.  0.
         25    1    4    4    0    0  0.21593918251E+02  0.51020910273E+02 -0.19906559609E+03  0.24154513085E+03  0.12509000000E+03 0.  0.
         25    1    3    3    0    0 -0.25884871681E+02 -0.87788378693E+02 -0.14166899249E+03  0.20998675565E+03  0.12509000000E+03 0.  0.
<mgrwt>
<rscale>  2 0.45334370E+03</rscale>
<asrwt>0</asrwt>
<pdfrwt beam="1">  1       21 0.98243768E-02 0.45334370E+03</pdfrwt>
<pdfrwt beam="2">  1       21 0.11310254E+00 0.45334370E+03</pdfrwt>
<totfact> 0.46680370E+04</totfact>
</mgrwt>
</event>
<event>
 7    0  0.4766352E-002  0.4548587E+03  0.7546771E-02  0.1026283E+00
         21   -1    0    0  502  501  0.00000000000E+00  0.00000000000E+00  0.10206494784E+03  0.10206494784E+03  0.00000000000E+00 0. -1.
         21   -1    0    0  501  502 -0.00000000000E+00 -0.00000000000E+00 -0.50677648362E+03  0.50677648362E+03  0.00000000000E+00 0. -1.
      99926    2    1    2    0    0  0.17763568394E-14  0.71054273576E-14 -0.40471153578E+03  0.60884143147E+03  0.45485872694E+03 0.  0.
      99925    2    3    3    0    0  0.13290271161E+02  0.51076058636E+02 -0.38853040681E+03  0.47211275083E+03  0.26296231176E+03 0.  0.
         25    1    4    4    0    0  0.38120983595E+02  0.18374038160E+02 -0.23758559126E+03  0.27181838779E+03  0.12509000000E+03 0.  0.
         25    1    4    4    0    0 -0.24830712434E+02  0.32702020476E+02 -0.15094481556E+03  0.20029436304E+03  0.12509000000E+03 0.  0.
         25    1    3    3    0    0 -0.13290271161E+02 -0.51076058636E+02 -0.16181128973E+02  0.13672868063E+03  0.12509000000E+03 0.  0.
<mgrwt>
<rscale>  2 0.45485873E+03</rscale>
<asrwt>0</asrwt>
<pdfrwt beam="1">  1       21 0.15009551E-01 0.45485873E+03</pdfrwt>
<pdfrwt beam="2">  1       21 0.74525954E-01 0.45485873E+03</pdfrwt>
<totfact> 0.58202254E+04</totfact>
</mgrwt>
</event>
<event>
 7    0  0.4766352E-002  0.4494142E+03  0.7546771E-02  0.1027897E+00
         21   -1    0    0  502  501  0.00000000000E+00  0.00000000000E+00  0.48250752148E+02  0.48250752148E+02  0.00000000000E+00 0.  1.
         21   -1    0    0  501  502 -0.00000000000E+00 -0.00000000000E+00 -0.10464764680E+04  0.10464764680E+04  0.00000000000E+00 0.  1.
      99926    2    1    2    0    0  0.00000000000E+00  0.00000000000E+00 -0.99822571582E+03  0.10947272201E+04  0.44941418173E+03 0.  0.
      99925    2    3    3    0    0  0.77681568966E+02  0.38579707906E+02 -0.78767518401E+03  0.83491602989E+03  0.26292539141E+03 0.  0.
         25    1    4    4    0    0  0.61104091451E+01  0.19825895258E+02 -0.44459017687E+03  0.46231843646E+03  0.12509000000E+03 0.  0.
         25    1    4    4    0    0  0.71571159821E+02  0.18753812648E+02 -0.34308500713E+03  0.37259759343E+03  0.12509000000E+03 0.  0.
         25    1    3    3    0    0 -0.77681568966E+02 -0.38579707906E+02 -0.21055053181E+03  0.25981119022E+03  0.12509000000E+03 0.  0.
<mgrwt>
<rscale>  2 0.44941418E+03</rscale>
<asrwt>0</asrwt>
<pdfrwt beam="1">  1       21 0.70956989E-02 0.44941418E+03</pdfrwt>
<pdfrwt beam="2">  1       21 0.15389360E+00 0.44941418E+03</pdfrwt>
<totfact> 0.37275707E+04</totfact>
</mgrwt>
</event>
<event>
 7    0  0.4766352E-002  0.4519609E+03  0.7546771E-02  0.1027139E+00
         21   -1    0    0  502  501  0.00000000000E+00  0.00000000000E+00  0.61899209579E+03  0.61899209579E+03  0.00000000000E+00 0. -1.
         21   -1    0    0  501  502 -0.00000000000E+00 -0.00000000000E+00 -0.82500525812E+02  0.82500525812E+02  0.00000000000E+00 0. -1.
      99926    2    1    2    0    0  0.17763568394E-14  0.14210854715E-13  0.53649156998E+03  0.70149262161E+03  0.45196094245E+03 0.  0.
      99925    2    3    3    0    0 -0.13772537843E+02  0.10935317324E+03  0.34522093980E+03  0.44776094962E+03  0.26299158054E+03 0.  0.
         25    1    4    4    0    0 -0.39306690871E+02  0.32446040107E+02  0.14516082665E+03  0.19828498471E+03  0.12509000000E+03 0.  0.
         25    1    4    4    0    0  0.25534153029E+02  0.76907133135E+02  0.20006011314E+03  0.24947596491E+03  0.12509000000E+03 0.  0.
         25    1    3    3    0    0  0.13772537843E+02 -0.10935317324E+03  0.19127063018E+03  0.25373167198E+03  0.12509000000E+03 0.  0.
<mgrwt>
<rscale>  2 0.45196094E+03</rscale>
<asrwt>0</asrwt>
<pdfrwt beam="1">  1       21 0.91028247E-01 0.45196094E+03</pdfrwt>
<pdfrwt beam="2">  1       21 0.12132431E-01 0.45196094E+03</pdfrwt>
<totfact> 0.54104363E+04</totfact>
</mgrwt>
</event>
<event>
 7    0  0.4766352E-002  0.4347657E+03  0.7546771E-02  0.1032365E+00
         21   -1    0    0  502  501  0.00000000000E+00  0.00000000000E+00  0.11073505224E+03  0.11073505224E+03  0.00000000000E+00 0. -1.
         21   -1    0    0  501  502 -0.00000000000E+00 -0.00000000000E+00 -0.42674196391E+03  0.42674196391E+03  0.00000000000E+00 0. -1.
      99926    2    1    2    0    0  0.00000000000E+00  0.00000000000E+00 -0.31600691167E+03  0.53747701616E+03  0.43476565489E+03 0.  0.
      99925    2    3    3    0    0 -0.54263759793E+02  0.69687548160E+02 -0.16754243359E+03  0.32419288794E+03  0.26311528185E+03 0.  0.
         25    1    3    3    0    0  0.54263759793E+02 -0.69687548160E+02 -0.14846447808E+03  0.21328412822E+03  0.12509000000E+03 0.  0.
         25    1    4    4    0    0 -0.48720741000E+02  0.54626272103E+02 -0.54531324887E+02  0.15485126316E+03  0.12509000000E+03 0.  0.
         25    1    4    4    0    0 -0.55430187935E+01  0.15061276058E+02 -0.11301110870E+03  0.16934162478E+03  0.12509000000E+03 0.  0.
<mgrwt>
<rscale>  2 0.43476565E+03</rscale>
<asrwt>0</asrwt>
<pdfrwt beam="1">  1       21 0.16284567E-01 0.43476565E+03</pdfrwt>
<pdfrwt beam="2">  1       21 0.62756170E-01 0.43476565E+03</pdfrwt>
<totfact> 0.73834029E+04</totfact>
</mgrwt>
</event>
<event>
 7    0  0.4766352E-002  0.4541091E+03  0.7546771E-02  0.1026504E+00
         21   -1    0    0  502  501  0.00000000000E+00  0.00000000000E+00  0.53191119478E+03  0.53191119478E+03  0.00000000000E+00 0. -1.
         21   -1    0    0  501  502 -0.00000000000E+00 -0.00000000000E+00 -0.96921774059E+02  0.96921774059E+02  0.00000000000E+00 0. -1.
      99926    2    1    2    0    0  0.00000000000E+00  0.14210854715E-13  0.43498942072E+03  0.62883296884E+03  0.45410913508E+03 0.  0.
      99925    2    3    3    0    0  0.75123421996E+02 -0.70953818711E+02  0.21360835611E+03  0.35436064457E+03  0.26318237726E+03 0.  0.
         25    1    3    3    0    0 -0.75123421996E+02  0.70953818711E+02  0.22138106461E+03  0.27447232427E+03  0.12509000000E+03 0.  0.
         25    1    4    4    0    0  0.28969258019E+02 -0.25435516818E+02  0.15199235961E+03  0.20058755920E+03  0.12509000000E+03 0.  0.
         25    1    4    4    0    0  0.46154163978E+02 -0.45518301894E+02  0.61615996503E+02  0.15377308537E+03  0.12509000000E+03 0.  0.
<mgrwt>
<rscale>  2 0.45410914E+03</rscale>
<asrwt>0</asrwt>
<pdfrwt beam="1">  1       21 0.78222233E-01 0.45410914E+03</pdfrwt>
<pdfrwt beam="2">  1       21 0.14253202E-01 0.45410914E+03</pdfrwt>
<totfact> 0.57339907E+04</totfact>
</mgrwt>
</event>
<event>
 7    0  0.4766352E-002  0.4505884E+03  0.7546771E-02  0.1027547E+00
         21   -1    0    0  502  501  0.00000000000E+00  0.00000000000E+00  0.37231248797E+03  0.37231248797E+03  0.00000000000E+00 0.  1.
         21   -1    0    0  501  502 -0.00000000000E+00 -0.00000000000E+00 -0.13633031515E+03  0.13633031515E+03  0.00000000000E+00 0.  1.
      99926    2    1    2    0    0  0.00000000000E+00  0.00000000000E+00  0.23598217281E+03  0.50864280312E+03  0.45058841006E+03 0.  0.
      99925    2    3    3    0    0 -0.86689037762E+02  0.55015069283E+02  0.10851334426E+03  0.30263926560E+03  0.26319903512E+03 0.  0.
         25    1    4    4    0    0 -0.23052680831E+02  0.22671029265E+02  0.13070905659E+02  0.12986053417E+03  0.12509000000E+03 0.  0.
         25    1    3    3    0    0  0.86689037762E+02 -0.55015069283E+02  0.12746882855E+03  0.20600353751E+03  0.12509000000E+03 0.  0.
         25    1    4    4    0    0 -0.63636356932E+02  0.32344040018E+02  0.95442438602E+02  0.17277873143E+03  0.12509000000E+03 0.  0.
<mgrwt>
<rscale>  2 0.45058841E+03</rscale>
<asrwt>0</asrwt>
<pdfrwt beam="1">  1       21 0.54751836E-01 0.45058841E+03</pdfrwt>
<pdfrwt beam="2">  1       21 0.20048576E-01 0.45058841E+03</pdfrwt>
<totfact> 0.66982179E+04</totfact>
</mgrwt>
</event>
<event>
 6    0  0.4766352E-002  0.4538503E+03  0.7546771E-02  0.1026580E+00
         21   -1    0    0  502  501  0.00000000000E+00  0.00000000000E+00  0.56140352475E+03  0.56140352475E+03  0.00000000000E+00 0. -1.
         21   -1    0    0  501  502 -0.00000000000E+00 -0.00000000000E+00 -0.91725507971E+02  0.91725507971E+02  0.00000000000E+00 0. -1.
      99926    2    1    2    0    0  0.00000000000E+00  0.17763568394E-14  0.46967801677E+03  0.65312903272E+03  0.45385029904E+03 0.  0.
         25    1    3    3    0    0  0.20154338498E+02  0.69546424943E+01  0.11085135425E+03  0.16849360597E+03  0.12509000000E+03 0.  0.
         25    1    3    3    0    0 -0.47872291327E+02  0.78866953421E+01  0.32453219279E+03  0.35117318875E+03  0.12509000000E+03 0.  0.
         25    1    3    3    0    0  0.27717952830E+02 -0.14841337836E+02  0.34294469735E+02  0.13346223800E+03  0.12509000000E+03 0.  0.
<mgrwt>
<rscale>  2 0.45385030E+03</rscale>
<asrwt>0</asrwt>
<pdfrwt beam="1">  1       21 0.82559340E-01 0.45385030E+03</pdfrwt>
<pdfrwt beam="2">  1       21 0.13489046E-01 0.45385030E+03</pdfrwt>
<totfact> 0.56027976E+04</totfact>
</mgrwt>
</event>
<event>
 7    0  0.4766352E-002  0.4598482E+03  0.7546771E-02  0.1024825E+00
         21   -1    0    0  502  501  0.00000000000E+00  0.00000000000E+00  0.20236341223E+03  0.20236341223E+03  0.00000000000E+00 0.  1.
         21   -1    0    0  501  502 -0.00000000000E+00 -0.00000000000E+00 -0.26123842512E+03  0.26123842512E+03  0.00000000000E+00 0.  1.
      99926    2    1    2    0    0  0.71054273576E-14  0.00000000000E+00 -0.58875012890E+02  0.46360183734E+03  0.45984823197E+03 0.  0.
      99925    2    3    3    0    0  0.48897619932E+02 -0.10593720569E+03 -0.52045609929E+02  0.29240657564E+03  0.26301937416E+03 0.  0.
         25    1    4    4    0    0  0.76220885948E+01 -0.31446654090E+02 -0.56484023387E+02  0.14101397550E+03  0.12509000000E+03 0.  0.
         25    1    3    3    0    0 -0.48897619932E+02  0.10593720569E+03 -0.68294029601E+01  0.17119526170E+03  0.12509000000E+03 0.  0.
         25    1    4    4    0    0  0.41275531337E+02 -0.74490551599E+02  0.44384134578E+01  0.15139260014E+03  0.12509000000E+03 0.  0.
<mgrwt>
<rscale>  2 0.45984823E+03</rscale>
<asrwt>0</asrwt>
<pdfrwt beam="1">  1       21 0.29759326E-01 0.45984823E+03</pdfrwt>
<pdfrwt beam="2">  1       21 0.38417415E-01 0.45984823E+03</pdfrwt>
<totfact> 0.65355165E+04</totfact>
</mgrwt>
</event>
<event>
 7    0  0.4766352E-002  0.4487066E+03  0.7546771E-02  0.1028108E+00
         21   -1    0    0  502  501  0.00000000000E+00  0.00000000000E+00  0.11319639842E+03  0.11319639842E+03  0.00000000000E+00 0. -1.
         21   -1    0    0  501  502 -0.00000000000E+00 -0.00000000000E+00 -0.44466444788E+03  0.44466444788E+03  0.00000000000E+00 0. -1.
      99926    2    1    2    0    0 -0.71054273576E-14  0.71054273576E-14 -0.33146804946E+03  0.55786084630E+03  0.44870664807E+03 0.  0.
      99925    2    3    3    0    0  0.39649006712E+02 -0.60481527594E+02 -0.11137544117E+03  0.29457711486E+03  0.26294700757E+03 0.  0.
         25    1    3    3    0    0 -0.39649006712E+02  0.60481527594E+02 -0.22009260830E+03  0.26328373144E+03  0.12509000000E+03 0.  0.
         25    1    4    4    0    0  0.56158669770E+02 -0.23135502952E+02 -0.39099012755E+02  0.14444822112E+03  0.12509000000E+03 0.  0.
         25    1    4    4    0    0 -0.16509663058E+02 -0.37346024642E+02 -0.72276428412E+02  0.15012889374E+03  0.12509000000E+03 0.  0.
<mgrwt>
<rscale>  2 0.44870665E+03</rscale>
<asrwt>0</asrwt>
<pdfrwt beam="1">  1       21 0.16646529E-01 0.44870665E+03</pdfrwt>
<pdfrwt beam="2">  1       21 0.65391830E-01 0.44870665E+03</pdfrwt>
<totfact> 0.64501563E+04</totfact>
</mgrwt>
</event>
<event>
 7    0  0.4766352E-002  0.4675577E+03  0.7546771E-02  0.1022612E+00
         21   -1    0    0  502  501  0.00000000000E+00  0.00000000000E+00  0.14580361737E+04  0.14580361737E+04  0.00000000000E+00 0.  1.
         21   -1    0    0  501  502 -0.00000000000E+00 -0.00000000000E+00 -0.37483668031E+02  0.37483668031E+02  0.00000000000E+00 0.  1.
      99926    2    1    2    0    0  0.00000000000E+00  0.00000000000E+00  0.14205525056E+04  0.14955198417E+04  0.46755767093E+03 0.  0.
      99925    2    3    3    0    0  0.20942943861E+02 -0.12259407793E+03  0.89496630680E+03  0.94112262368E+03  0.26320939887E+03 0.  0.
         25    1    4    4    0    0  0.39662444818E+01 -0.88140557413E+02  0.58439059607E+03  0.60410625376E+03  0.12509000000E+03 0.  0.
         25    1    4    4    0    0  0.16976699380E+02 -0.34453520517E+02  0.31057571073E+03  0.33701636992E+03  0.12509000000E+03 0.  0.
         25    1    3    3    0    0 -0.20942943861E+02  0.12259407793E+03  0.52558619884E+03  0.55439721802E+03  0.12509000000E+03 0.  0.
<mgrwt>
<rscale>  2 0.46755767E+03</rscale>
<asrwt>0</asrwt>
<pdfrwt beam="1">  1       21 0.21441705E+00 0.46755767E+03</pdfrwt>
<pdfrwt beam="2">  1       21 0.55123051E-02 0.46755767E+03</pdfrwt>
<totfact> 0.21694657E+04</totfact>
</mgrwt>
</event>
<event>
 7    0  0.4766352E-002  0.4515785E+03  0.7546771E-02  0.1027252E+00
         21   -1    0    0  502  501  0.00000000000E+00  0.00000000000E+00  0.33346377650E+03  0.33346377650E+03  0.00000000000E+00 0.  1.
         21   -1    0    0  501  502 -0.00000000000E+00 -0.00000000000E+00 -0.15288255525E+03  0.15288255525E+03  0.00000000000E+00 0.  1.
      99926    2    1    2    0    0  0.71054273576E-14  0.00000000000E+00  0.18058122125E+03  0.48634633175E+03  0.45157853906E+03 0.  0.
      99925    2    3    3    0    0 -0.35419186626E+02  0.49480765698E+02  0.15422396189E+02  0.27041159496E+03  0.26302417271E+03 0.  0.
         25    1    3    3    0    0  0.35419186626E+02 -0.49480765698E+02  0.16515882507E+03  0.21593473679E+03  0.12509000000E+03 0.  0.
         25    1    4    4    0    0 -0.55009962746E+02  0.17444841285E+02 -0.68074560901E+01  0.13792848889E+03  0.12509000000E+03 0.  0.
         25    1    4    4    0    0  0.19590776120E+02  0.32035924413E+02  0.22229852279E+02  0.13248310607E+03  0.12509000000E+03 0.  0.
<mgrwt>
<rscale>  2 0.45157854E+03</rscale>
<asrwt>0</asrwt>
<pdfrwt beam="1">  1       21 0.49038791E-01 0.45157854E+03</pdfrwt>
<pdfrwt beam="2">  1       21 0.22482729E-01 0.45157854E+03</pdfrwt>
<totfact> 0.68071182E+04</totfact>
</mgrwt>
</event>
<event>
 7    0  0.4766352E-002  0.4576690E+03  0.7546771E-02  0.1025459E+00
         21   -1    0    0  502  501  0.00000000000E+00  0.00000000000E+00  0.95874387564E+02  0.95874387564E+02  0.00000000000E+00 0.  1.
         21   -1    0    0  501  502 -0.00000000000E+00 -0.00000000000E+00 -0.54618576053E+03  0.54618576053E+03  0.00000000000E+00 0.  1.
      99926    2    1    2    0    0  0.00000000000E+00 -0.88817841970E-15 -0.45031137296E+03  0.64206014809E+03  0.45766898644E+03 0.  0.
      99925    2    3    3    0    0  0.10815798897E+03  0.42625730564E+01 -0.33968702863E+03  0.44305870647E+03  0.26305402459E+03 0.  0.
         25    1    3    3    0    0 -0.10815798897E+03 -0.42625730564E+01 -0.11062434434E+03  0.19900144162E+03  0.12509000000E+03 0.  0.
         25    1    4    4    0    0  0.18215691921E+02  0.83698690360E+01 -0.11849040087E+03  0.17346281831E+03  0.12509000000E+03 0.  0.
         25    1    4    4    0    0  0.89942297049E+02 -0.41072959796E+01 -0.22119662776E+03  0.26959588816E+03  0.12509000000E+03 0.  0.
<mgrwt>
<rscale>  2 0.45766899E+03</rscale>
<asrwt>0</asrwt>
<pdfrwt beam="1">  1       21 0.14099174E-01 0.45766899E+03</pdfrwt>
<pdfrwt beam="2">  1       21 0.80321437E-01 0.45766899E+03</pdfrwt>
<totfact> 0.54993800E+04</totfact>
</mgrwt>
</event>
<event>
 7    0  0.4766352E-002  0.4470429E+03  0.7546771E-02  0.1028608E+00
         21   -1    0    0  502  501  0.00000000000E+00  0.00000000000E+00  0.60355689544E+03  0.60355689544E+03  0.00000000000E+00 0. -1.
         21   -1    0    0  501  502 -0.00000000000E+00 -0.00000000000E+00 -0.82779001041E+02  0.82779001041E+02  0.00000000000E+00 0. -1.
      99926    2    1    2    0    0  0.14210854715E-13  0.71054273576E-14  0.52077789440E+03  0.68633589648E+03  0.44704289224E+03 0.  0.
      99925    2    3    3    0    0  0.99927281547E+02 -0.33806764474E+02  0.33264898320E+03  0.43700007023E+03  0.26303109406E+03 0.  0.
         25    1    4    4    0    0  0.50337425538E+02  0.76840959378E+01  0.11302217490E+03  0.17610911918E+03  0.12509000000E+03 0.  0.
         25    1    4    4    0    0  0.49589856008E+02 -0.41490860411E+02  0.21962680830E+03  0.26089095105E+03  0.12509000000E+03 0.  0.
         25    1    3    3    0    0 -0.99927281547E+02  0.33806764474E+02  0.18812891120E+03  0.24933582625E+03  0.12509000000E+03 0.  0.
<mgrwt>
<rscale>  2 0.44704289E+03</rscale>
<asrwt>0</asrwt>
<pdfrwt beam="1">  1       21 0.88758365E-01 0.44704289E+03</pdfrwt>
<pdfrwt beam="2">  1       21 0.12173383E-01 0.44704289E+03</pdfrwt>
<totfact> 0.57147982E+04</totfact>
</mgrwt>
</event>
<event>
 7    0  0.4766352E-002  0.4552930E+03  0.7546771E-02  0.1026155E+00
         21   -1    0    0  502  501  0.00000000000E+00  0.00000000000E+00  0.16860862115E+04  0.16860862115E+04  0.00000000000E+00 0.  1.
         21   -1    0    0  501  502 -0.00000000000E+00 -0.00000000000E+00 -0.30735634467E+02  0.30735634467E+02  0.00000000000E+00 0.  1.
      99926    2    1    2    0    0  0.14210854715E-13  0.00000000000E+00  0.16553505770E+04  0.17168218459E+04  0.45529300225E+03 0.  0.
      99925    2    3    3    0    0 -0.85106477339E+02  0.69908503308E+02  0.93958202437E+03  0.98190522457E+03  0.26304596215E+03 0.  0.
         25    1    3    3    0    0  0.85106477339E+02 -0.69908503308E+02  0.71576855263E+03  0.73491662137E+03  0.12509000000E+03 0.  0.
         25    1    4    4    0    0 -0.64652087581E+02  0.66138328277E+02  0.58494492292E+03  0.60527864810E+03  0.12509000000E+03 0.  0.
         25    1    4    4    0    0 -0.20454389758E+02  0.37701750306E+01  0.35463710145E+03  0.37662657648E+03  0.12509000000E+03 0.  0.
<mgrwt>
<rscale>  2 0.45529300E+03</rscale>
<asrwt>0</asrwt>
<pdfrwt beam="1">  1       21 0.24795379E+00 0.45529300E+03</pdfrwt>
<pdfrwt beam="2">  1       21 0.45199474E-02 0.45529300E+03</pdfrwt>
<totfact> 0.18870850E+04</totfact>
</mgrwt>
</event>
<event>
 7    0  0.4766352E-002  0.4519454E+03  0.7546771E-02  0.1027143E+00
         21   -1    0    0  502  501  0.00000000000E+00  0.00000000000E+00  0.32998140619E+03  0.32998140619E+03  0.00000000000E+00 0.  1.
         21   -1    0    0  501  502 -0.00000000000E+00 -0.00000000000E+00 -0.15474707307E+03  0.15474707307E+03  0.00000000000E+00 0.  1.
      99926    2    1    2    0    0  0.14210854715E-13  0.00000000000E+00  0.17523433312E+03  0.48472847926E+03  0.45194538066E+03 0.  0.
      99925    2    3    3    0    0 -0.83956218796E+02 -0.38867477162E+02  0.17484692000E+03  0.32914253631E+03  0.26306660053E+03 0.  0.
         25    1    4    4    0    0 -0.16907219778E+02  0.15318986558E+01  0.11197537919E+03  0.16874298338E+03  0.12509000000E+03 0.  0.
         25    1    3    3    0    0  0.83956218796E+02  0.38867477162E+02  0.38741311308E+00  0.15558594295E+03  0.12509000000E+03 0.  0.
         25    1    4    4    0    0 -0.67048999018E+02 -0.40399375818E+02  0.62871540811E+02  0.16039955293E+03  0.12509000000E+03 0.  0.
<mgrwt>
<rscale>  2 0.45194538E+03</rscale>
<asrwt>0</asrwt>
<pdfrwt beam="1">  1       21 0.48526678E-01 0.45194538E+03</pdfrwt>
<pdfrwt beam="2">  1       21 0.22756922E-01 0.45194538E+03</pdfrwt>
<totfact> 0.67991315E+04</totfact>
</mgrwt>
</event>
<event>
 7    0  0.4766352E-002  0.4537590E+03  0.7546771E-02  0.1026607E+00
         21   -1    0    0  502  501  0.00000000000E+00  0.00000000000E+00  0.45849951578E+03  0.45849951578E+03  0.00000000000E+00 0.  1.
         21   -1    0    0  501  502 -0.00000000000E+00 -0.00000000000E+00 -0.11226687112E+03  0.11226687112E+03  0.00000000000E+00 0.  1.
      99926    2    1    2    0    0  0.00000000000E+00  0.00000000000E+00  0.34623264465E+03  0.57076638690E+03  0.45375899351E+03 0.  0.
      99925    2    3    3    0    0  0.47741850923E+02  0.96850293477E+02  0.18161372389E+03  0.33751510427E+03  0.26319885492E+03 0.  0.
         25    1    4    4    0    0  0.54752597906E+02  0.41476821166E+02  0.12347164050E+03  0.18870857898E+03  0.12509000000E+03 0.  0.
         25    1    3    3    0    0 -0.47741850923E+02 -0.96850293477E+02  0.16461892077E+03  0.23325128263E+03  0.12509000000E+03 0.  0.
         25    1    4    4    0    0 -0.70107469828E+01  0.55373472311E+02  0.58142083387E+02  0.14880652529E+03  0.12509000000E+03 0.  0.
<mgrwt>
<rscale>  2 0.45375899E+03</rscale>
<asrwt>0</asrwt>
<pdfrwt beam="1">  1       21 0.67426399E-01 0.45375899E+03</pdfrwt>
<pdfrwt beam="2">  1       21 0.16509834E-01 0.45375899E+03</pdfrwt>
<totfact> 0.61112267E+04</totfact>
</mgrwt>
</event>
<event>
 7    0  0.4766352E-002  0.4088972E+03  0.7546771E-02  0.1040742E+00
         21   -1    0    0  502  501  0.00000000000E+00  0.00000000000E+00  0.83642720557E+03  0.83642720557E+03  0.00000000000E+00 0. -1.
         21   -1    0    0  501  502 -0.00000000000E+00 -0.00000000000E+00 -0.49973545276E+02  0.49973545276E+02  0.00000000000E+00 0. -1.
      99926    2    1    2    0    0  0.00000000000E+00  0.35527136788E-14  0.78645366029E+03  0.88640075084E+03  0.40889721363E+03 0.  0.
      99925    2    3    3    0    0 -0.53371992244E+02 -0.24427274846E+02  0.55176532181E+03  0.61405650980E+03  0.26301172133E+03 0.  0.
         25    1    4    4    0    0 -0.14949916160E+01  0.10492330382E+02  0.31468798839E+03  0.33880431245E+03  0.12509000000E+03 0.  0.
         25    1    3    3    0    0  0.53371992244E+02  0.24427274846E+02  0.23468833848E+03  0.27234424104E+03  0.12509000000E+03 0.  0.
         25    1    4    4    0    0 -0.51877000628E+02 -0.34919605228E+02  0.23707733342E+03  0.27525219735E+03  0.12509000000E+03 0.  0.
<mgrwt>
<rscale>  2 0.40889721E+03</rscale>
<asrwt>0</asrwt>
<pdfrwt beam="1">  1       21 0.12300399E+00 0.40889721E+03</pdfrwt>
<pdfrwt beam="2">  1       21 0.73490513E-02 0.40889721E+03</pdfrwt>
<totfact> 0.63976105E+04</totfact>
</mgrwt>
</event>
<event>
 7    0  0.4766352E-002  0.4797859E+03  0.7546771E-02  0.1019194E+00
         21   -1    0    0  502  501  0.00000000000E+00  0.00000000000E+00  0.27141981227E+02  0.27141981227E+02  0.00000000000E+00 0. -1.
         21   -1    0    0  501  502 -0.00000000000E+00 -0.00000000000E+00 -0.21202814501E+04  0.21202814501E+04  0.00000000000E+00 0. -1.
      99926    2    1    2    0    0  0.28421709430E-13  0.00000000000E+00 -0.20931394689E+04  0.21474234314E+04  0.47978594942E+03 0.  0.
      99925    2    3    3    0    0  0.12983764630E+03  0.33630267208E+02 -0.13608735410E+04  0.13925395287E+04  0.26306032587E+03 0.  0.
         25    1    3    3    0    0 -0.12983764630E+03 -0.33630267208E+02 -0.73226592787E+03  0.75488390265E+03  0.12509000000E+03 0.  0.
         25    1    4    4    0    0  0.95292240650E+02  0.68209319851E+01 -0.60507377338E+03  0.62521109681E+03  0.12509000000E+03 0.  0.
         25    1    4    4    0    0  0.34545405651E+02  0.26809335223E+02 -0.75579976765E+03  0.76732843189E+03  0.12509000000E+03 0.  0.
<mgrwt>
<rscale>  2 0.47978595E+03</rscale>
<asrwt>0</asrwt>
<pdfrwt beam="1">  1       21 0.39914687E-02 0.47978595E+03</pdfrwt>
<pdfrwt beam="2">  1       21 0.31180603E+00 0.47978595E+03</pdfrwt>
<totfact> 0.94872608E+03</totfact>
</mgrwt>
</event>
<event>
 7    0  0.4766352E-002  0.4536793E+03  0.7546771E-02  0.1026630E+00
         21   -1    0    0  502  501  0.00000000000E+00  0.00000000000E+00  0.31596381211E+03  0.31596381211E+03  0.00000000000E+00 0.  1.
         21   -1    0    0  501  502 -0.00000000000E+00 -0.00000000000E+00 -0.16285481959E+03  0.16285481959E+03  0.00000000000E+00 0.  1.
      99926    2    1    2    0    0 -0.14210854715E-13 -0.35527136788E-14  0.15310899252E+03  0.47881863170E+03  0.45367931237E+03 0.  0.
      99925    2    3    3    0    0  0.97832724015E+02 -0.90317336920E+01  0.39863818437E+02  0.28356292332E+03  0.26299428389E+03 0.  0.
         25    1    3    3    0    0 -0.97832724015E+02  0.90317336920E+01  0.11324517408E+03  0.19525570838E+03  0.12509000000E+03 0.  0.
         25    1    4    4    0    0  0.59020807979E+02  0.32461562645E+02  0.33813811167E+02  0.14604140081E+03  0.12509000000E+03 0.  0.
         25    1    4    4    0    0  0.38811916035E+02 -0.41493296337E+02  0.60500072692E+01  0.13752152252E+03  0.12509000000E+03 0.  0.
<mgrwt>
<rscale>  2 0.45367931E+03</rscale>
<asrwt>0</asrwt>
<pdfrwt beam="1">  1       21 0.46465267E-01 0.45367931E+03</pdfrwt>
<pdfrwt beam="2">  1       21 0.23949238E-01 0.45367931E+03</pdfrwt>
<totfact> 0.67490911E+04</totfact>
</mgrwt>
</event>
<event>
 7    0  0.4766352E-002  0.4564414E+03  0.7546771E-02  0.1025818E+00
         21   -1    0    0  502  501  0.00000000000E+00  0.00000000000E+00  0.63866185143E+03  0.63866185143E+03  0.00000000000E+00 0.  1.
         21   -1    0    0  501  502 -0.00000000000E+00 -0.00000000000E+00 -0.81552856589E+02  0.81552856589E+02  0.00000000000E+00 0.  1.
      99926    2    1    2    0    0  0.00000000000E+00  0.00000000000E+00  0.55710899484E+03  0.72021470802E+03  0.45644144588E+03 0.  0.
      99925    2    3    3    0    0 -0.97984046763E+02 -0.23815227613E+02  0.43559800791E+03  0.51876876855E+03  0.26307294090E+03 0.  0.
         25    1    4    4    0    0 -0.33931126711E+02 -0.24959547843E+02  0.27713537501E+03  0.30696225268E+03  0.12509000000E+03 0.  0.
         25    1    4    4    0    0 -0.64052920052E+02  0.11443202305E+01  0.15846263290E+03  0.21180651586E+03  0.12509000000E+03 0.  0.
         25    1    3    3    0    0  0.97984046763E+02  0.23815227613E+02  0.12151098693E+03  0.20144593947E+03  0.12509000000E+03 0.  0.
<mgrwt>
<rscale>  2 0.45644145E+03</rscale>
<asrwt>0</asrwt>
<pdfrwt beam="1">  1       21 0.93920858E-01 0.45644145E+03</pdfrwt>
<pdfrwt beam="2">  1       21 0.11993067E-01 0.45644145E+03</pdfrwt>
<totfact> 0.51235800E+04</totfact>
</mgrwt>
</event>
<event>
 7    0  0.4766352E-002  0.4631384E+03  0.7546771E-02  0.1023875E+00
         21   -1    0    0  502  501  0.00000000000E+00  0.00000000000E+00  0.50943597136E+02  0.50943597136E+02  0.00000000000E+00 0. -1.
         21   -1    0    0  501  502 -0.00000000000E+00 -0.00000000000E+00 -0.10526210084E+04  0.10526210084E+04  0.00000000000E+00 0. -1.
      99926    2    1    2    0    0  0.00000000000E+00  0.71054273576E-14 -0.10016774112E+04  0.11035646055E+04  0.46313842677E+03 0.  0.
      99925    2    3    3    0    0  0.90717879460E+02  0.32561267698E+02 -0.79867791234E+03  0.84637542522E+03  0.26301137417E+03 0.  0.
         25    1    4    4    0    0  0.62480250447E+02 -0.10591154371E+01 -0.31080173538E+03  0.34080805483E+03  0.12509000000E+03 0.  0.
         25    1    3    3    0    0 -0.90717879460E+02 -0.32561267698E+02 -0.20299949890E+03  0.25718918030E+03  0.12509000000E+03 0.  0.
         25    1    4    4    0    0  0.28237629013E+02  0.33620383135E+02 -0.48787617696E+03  0.50556737039E+03  0.12509000000E+03 0.  0.
<mgrwt>
<rscale>  2 0.46313843E+03</rscale>
<asrwt>0</asrwt>
<pdfrwt beam="1">  1       21 0.74917052E-02 0.46313843E+03</pdfrwt>
<pdfrwt beam="2">  1       21 0.15479721E+00 0.46313843E+03</pdfrwt>
<totfact> 0.33211716E+04</totfact>
</mgrwt>
</event>
<event>
 6    0  0.4766352E-002  0.4530847E+03  0.7546771E-02  0.1026806E+00
         21   -1    0    0  502  501  0.00000000000E+00  0.00000000000E+00  0.81719753994E+02  0.81719753994E+02  0.00000000000E+00 0. -1.
         21   -1    0    0  501  502 -0.00000000000E+00 -0.00000000000E+00 -0.62801741464E+03  0.62801741464E+03  0.00000000000E+00 0. -1.
      99926    2    1    2    0    0  0.14210854715E-13  0.71054273576E-14 -0.54629766065E+03  0.70973716864E+03  0.45308466594E+03 0.  0.
         25    1    3    3    0    0  0.69996884513E+02  0.55710313789E+02 -0.22260494643E+03  0.27056177332E+03  0.12509000000E+03 0.  0.
         25    1    3    3    0    0  0.29405565717E+02 -0.44542268021E+01 -0.15234093640E+03  0.19934842973E+03  0.12509000000E+03 0.  0.
         25    1    3    3    0    0 -0.99402450229E+02 -0.51256086987E+02 -0.17135177782E+03  0.23982696559E+03  0.12509000000E+03 0.  0.
<mgrwt>
<rscale>  2 0.45308467E+03</rscale>
<asrwt>0</asrwt>
<pdfrwt beam="1">  1       21 0.12017611E-01 0.45308467E+03</pdfrwt>
<pdfrwt beam="2">  1       21 0.92355497E-01 0.45308467E+03</pdfrwt>
<totfact> 0.53174267E+04</totfact>
</mgrwt>
</event>
<event>
 7    0  0.4766352E-002  0.4602289E+03  0.7546771E-02  0.1024715E+00
         21   -1    0    0  502  501  0.00000000000E+00  0.00000000000E+00  0.24761800521E+03  0.24761800521E+03  0.00000000000E+00 0. -1.
         21   -1    0    0  501  502 -0.00000000000E+00 -0.00000000000E+00 -0.21384818853E+03  0.21384818853E+03  0.00000000000E+00 0. -1.
      99926    2    1    2    0    0  0.35527136788E-14  0.88817841970E-15  0.33769816682E+02  0.46146619373E+03  0.46022890765E+03 0.  0.
      99925    2    3    3    0    0 -0.21535635544E+02 -0.63519777023E+01 -0.95047235370E+02  0.28050909324E+03  0.26295863405E+03 0.  0.
         25    1    4    4    0    0  0.26865185850E+02  0.11793663740E+02 -0.42804314976E+02  0.13542727272E+03  0.12509000000E+03 0.  0.
         25    1    4    4    0    0 -0.48400821395E+02 -0.18145641443E+02 -0.52242920394E+02  0.14508182052E+03  0.12509000000E+03 0.  0.
         25    1    3    3    0    0  0.21535635544E+02  0.63519777023E+01  0.12881705205E+03  0.18095710049E+03  0.12509000000E+03 0.  0.
<mgrwt>
<rscale>  2 0.46022891E+03</rscale>
<asrwt>0</asrwt>
<pdfrwt beam="1">  1       21 0.36414413E-01 0.46022891E+03</pdfrwt>
<pdfrwt beam="2">  1       21 0.31448263E-01 0.46022891E+03</pdfrwt>
<totfact> 0.65307241E+04</totfact>
</mgrwt>
</event>
<event>
 7    0  0.4766352E-002  0.4591940E+03  0.7546771E-02  0.1025015E+00
         21   -1    0    0  502  501  0.00000000000E+00  0.00000000000E+00  0.31997079271E+03  0.31997079271E+03  0.00000000000E+00 0.  1.
         21   -1    0    0  501  502 -0.00000000000E+00 -0.00000000000E+00 -0.16474872863E+03  0.16474872863E+03  0.00000000000E+00 0.  1.
      99926    2    1    2    0    0  0.00000000000E+00  0.00000000000E+00  0.15522206408E+03  0.48471952134E+03  0.45919399516E+03 0.  0.
      99925    2    3    3    0    0 -0.93613102715E+02  0.70331955964E+02  0.94270007238E+02  0.30286062449E+03  0.26292152170E+03 0.  0.
         25    1    3    3    0    0  0.93613102715E+02 -0.70331955964E+02  0.60952056841E+02  0.18185889685E+03  0.12509000000E+03 0.  0.
         25    1    4    4    0    0 -0.58981475456E+02  0.70529647061E+01  0.74108245687E+02  0.15706081286E+03  0.12509000000E+03 0.  0.
         25    1    4    4    0    0 -0.34631627259E+02  0.63278991258E+02  0.20161761551E+02  0.14579981163E+03  0.12509000000E+03 0.  0.
<mgrwt>
<rscale>  2 0.45919400E+03</rscale>
<asrwt>0</asrwt>
<pdfrwt beam="1">  1       21 0.47054528E-01 0.45919400E+03</pdfrwt>
<pdfrwt beam="2">  1       21 0.24227754E-01 0.45919400E+03</pdfrwt>
<totfact> 0.64194229E+04</totfact>
</mgrwt>
</event>
<event>
 7    0  0.4766352E-002  0.4426062E+03  0.7546771E-02  0.1029950E+00
         21   -1    0    0  502  501  0.00000000000E+00  0.00000000000E+00  0.16609759648E+03  0.16609759648E+03  0.00000000000E+00 0.  1.
         21   -1    0    0  501  502 -0.00000000000E+00 -0.00000000000E+00 -0.29485707810E+03  0.29485707810E+03  0.00000000000E+00 0.  1.
      99926    2    1    2    0    0  0.14210854715E-13  0.00000000000E+00 -0.12875948161E+03  0.46095467458E+03  0.44260615440E+03 0.  0.
      99925    2    3    3    0    0 -0.10081673909E+03 -0.60038329216E+01 -0.85018140199E+02  0.29433872715E+03  0.26307250188E+03 0.  0.
         25    1    3    3    0    0  0.10081673909E+03  0.60038329216E+01 -0.43741341413E+02  0.16661594743E+03  0.12509000000E+03 0.  0.
         25    1    4    4    0    0 -0.93326563110E+02 -0.93002353772E+01 -0.50881876401E+02  0.16441659042E+03  0.12509000000E+03 0.  0.
         25    1    4    4    0    0 -0.74901759758E+01  0.32964024556E+01 -0.34136263798E+02  0.12992213673E+03  0.12509000000E+03 0.  0.
<mgrwt>
<rscale>  2 0.44260615E+03</rscale>
<asrwt>0</asrwt>
<pdfrwt beam="1">  1       21 0.24426117E-01 0.44260615E+03</pdfrwt>
<pdfrwt beam="2">  1       21 0.43361335E-01 0.44260615E+03</pdfrwt>
<totfact> 0.75244980E+04</totfact>
</mgrwt>
</event>
<event>
 7    0  0.4766352E-002  0.4532753E+03  0.7546771E-02  0.1026750E+00
         21   -1    0    0  502  501  0.00000000000E+00  0.00000000000E+00  0.28492318109E+03  0.28492318109E+03  0.00000000000E+00 0. -1.
         21   -1    0    0  501  502 -0.00000000000E+00 -0.00000000000E+00 -0.18027538069E+03  0.18027538069E+03  0.00000000000E+00 0. -1.
      99926    2    1    2    0    0  0.00000000000E+00  0.00000000000E+00  0.10464780039E+03  0.46519856178E+03  0.45327534651E+03 0.  0.
      99925    2    3    3    0    0  0.71689659075E+02  0.26172548300E+02 -0.17558086231E+02  0.27439448339E+03  0.26298219830E+03 0.  0.
         25    1    4    4    0    0  0.34814037071E+02 -0.20768544499E+02  0.14019306207E+02  0.13223992840E+03  0.12509000000E+03 0.  0.
         25    1    4    4    0    0  0.36875622004E+02  0.46941092799E+02 -0.31577392439E+02  0.14215455499E+03  0.12509000000E+03 0.  0.
         25    1    3    3    0    0 -0.71689659075E+02 -0.26172548300E+02  0.12220588662E+03  0.19080407839E+03  0.12509000000E+03 0.  0.
<mgrwt>
<rscale>  2 0.45327535E+03</rscale>
<asrwt>0</asrwt>
<pdfrwt beam="1">  1       21 0.41900468E-01 0.45327535E+03</pdfrwt>
<pdfrwt beam="2">  1       21 0.26511085E-01 0.45327535E+03</pdfrwt>
<totfact> 0.68730221E+04</totfact>
</mgrwt>
</event>
<event>
 7    0  0.4766352E-002  0.4615320E+03  0.7546771E-02  0.1024338E+00
         21   -1    0    0  502  501  0.00000000000E+00  0.00000000000E+00  0.20496568910E+03  0.20496568910E+03  0.00000000000E+00 0.  1.
         21   -1    0    0  501  502 -0.00000000000E+00 -0.00000000000E+00 -0.25981398550E+03  0.25981398550E+03  0.00000000000E+00 0.  1.
      99926    2    1    2    0    0  0.71054273576E-14  0.00000000000E+00 -0.54848296401E+02  0.46477967459E+03  0.46153202521E+03 0.  0.
      99925    2    3    3    0    0 -0.37508272133E+02 -0.10955999283E+03 -0.61588963979E+02  0.29418305327E+03  0.26332528523E+03 0.  0.
         25    1    4    4    0    0  0.34055805380E+01 -0.45649548734E+02  0.53040058376E+01  0.13330836379E+03  0.12509000000E+03 0.  0.
         25    1    3    3    0    0  0.37508272133E+02  0.10955999283E+03  0.67406675781E+01  0.17059662132E+03  0.12509000000E+03 0.  0.
         25    1    4    4    0    0 -0.40913852671E+02 -0.63910444095E+02 -0.66892969817E+02  0.16087468948E+03  0.12509000000E+03 0.  0.
<mgrwt>
<rscale>  2 0.46153203E+03</rscale>
<asrwt>0</asrwt>
<pdfrwt beam="1">  1       21 0.30142013E-01 0.46153203E+03</pdfrwt>
<pdfrwt beam="2">  1       21 0.38207939E-01 0.46153203E+03</pdfrwt>
<totfact> 0.64412206E+04</totfact>
</mgrwt>
</event>
<event>
 7    0  0.4766352E-002  0.4549438E+03  0.7546771E-02  0.1026258E+00
         21   -1    0    0  502  501  0.00000000000E+00  0.00000000000E+00  0.43661234077E+03  0.43661234077E+03  0.00000000000E+00 0. -1.
         21   -1    0    0  501  502 -0.00000000000E+00 -0.00000000000E+00 -0.11851121672E+03  0.11851121672E+03  0.00000000000E+00 0. -1.
      99926    2    1    2    0    0  0.00000000000E+00  0.88817841970E-15  0.31810112404E+03  0.55512355749E+03  0.45494377561E+03 0.  0.
      99925    2    3    3    0    0 -0.10690433084E+02 -0.59157042612E+01  0.62841818556E+02  0.27059921397E+03  0.26291740058E+03 0.  0.
         25    1    4    4    0    0 -0.48208087754E+01  0.96502409979E+01 -0.81335358908E+01  0.12581744654E+03  0.12509000000E+03 0.  0.
         25    1    4    4    0    0 -0.58696243088E+01 -0.15565945259E+02  0.70975354447E+02  0.14478176743E+03  0.12509000000E+03 0.  0.
         25    1    3    3    0    0  0.10690433084E+02  0.59157042612E+01  0.25525930548E+03  0.28452434352E+03  0.12509000000E+03 0.  0.
<mgrwt>
<rscale>  2 0.45494378E+03</rscale>
<asrwt>0</asrwt>
<pdfrwt beam="1">  1       21 0.64207697E-01 0.45494378E+03</pdfrwt>
<pdfrwt beam="2">  1       21 0.17428120E-01 0.45494378E+03</pdfrwt>
<totfact> 0.61556583E+04</totfact>
</mgrwt>
</event>
<event>
 7    0  0.4766352E-002  0.4581585E+03  0.7546771E-02  0.1025317E+00
         21   -1    0    0  502  501  0.00000000000E+00  0.00000000000E+00  0.83916118556E+02  0.83916118556E+02  0.00000000000E+00 0.  1.
         21   -1    0    0  501  502 -0.00000000000E+00 -0.00000000000E+00 -0.62535415724E+03  0.62535415724E+03  0.00000000000E+00 0.  1.
      99926    2    1    2    0    0  0.00000000000E+00 -0.35527136788E-14 -0.54143803869E+03  0.70927027580E+03  0.45815845992E+03 0.  0.
      99925    2    3    3    0    0  0.83579954371E+02 -0.29565541419E+02 -0.22401517144E+03  0.35675855292E+03  0.26312380743E+03 0.  0.
         25    1    3    3    0    0 -0.83579954371E+02  0.29565541419E+02 -0.31742286725E+03  0.35251172288E+03  0.12509000000E+03 0.  0.
         25    1    4    4    0    0  0.31707616321E+02 -0.19548071515E+02 -0.16044085589E+03  0.20682426447E+03  0.12509000000E+03 0.  0.
         25    1    4    4    0    0  0.51872338050E+02 -0.10017469904E+02 -0.63574315546E+02  0.14993428846E+03  0.12509000000E+03 0.  0.
<mgrwt>
<rscale>  2 0.45815846E+03</rscale>
<asrwt>0</asrwt>
<pdfrwt beam="1">  1       21 0.12340605E-01 0.45815846E+03</pdfrwt>
<pdfrwt beam="2">  1       21 0.91963849E-01 0.45815846E+03</pdfrwt>
<totfact> 0.51120283E+04</totfact>
</mgrwt>
</event>
<event>
 7    0  0.4766352E-002  0.4553932E+03  0.7546771E-02  0.1026126E+00
         21   -1    0    0  502  501  0.00000000000E+00  0.00000000000E+00  0.31121119560E+03  0.31121119560E+03  0.00000000000E+00 0. -1.
         21   -1    0    0  501  502 -0.00000000000E+00 -0.00000000000E+00 -0.16659346577E+03  0.16659346577E+03  0.00000000000E+00 0. -1.
      99926    2    1    2    0    0  0.00000000000E+00  0.14210854715E-13  0.14461772983E+03  0.47780466137E+03  0.45539324396E+03 0.  0.
      99925    2    3    3    0    0  0.50465173252E+02 -0.82908459600E+02  0.29163078692E+02  0.28185101646E+03  0.26299993144E+03 0.  0.
         25    1    3    3    0    0 -0.50465173252E+02  0.82908459600E+02  0.11545465114E+03  0.19595364491E+03  0.12509000000E+03 0.  0.
         25    1    4    4    0    0  0.24597505276E+02 -0.11579908752E+02 -0.15348615999E+02  0.12892718746E+03  0.12509000000E+03 0.  0.
         25    1    4    4    0    0  0.25867667976E+02 -0.71328550848E+02  0.44511694691E+02  0.15292382900E+03  0.12509000000E+03 0.  0.
<mgrwt>
<rscale>  2 0.45539324E+03</rscale>
<asrwt>0</asrwt>
<pdfrwt beam="1">  1       21 0.45766352E-01 0.45539324E+03</pdfrwt>
<pdfrwt beam="2">  1       21 0.24499039E-01 0.45539324E+03</pdfrwt>
<totfact> 0.66651980E+04</totfact>
</mgrwt>
</event>
<event>
 7    0  0.4766352E-002  0.4585831E+03  0.7546771E-02  0.1025193E+00
         21   -1    0    0  502  501  0.00000000000E+00  0.00000000000E+00  0.32729422888E+04  0.32729422888E+04  0.00000000000E+00 0.  1.
         21   -1    0    0  501  502 -0.00000000000E+00 -0.00000000000E+00 -0.16063412257E+02  0.16063412257E+02  0.00000000000E+00 0.  1.
      99926    2    1    2    0    0  0.00000000000E+00 -0.14210854715E-13  0.32568788765E+04  0.32890057010E+04  0.45858312781E+03 0.  0.
      99925    2    3    3    0    0  0.89722544280E+02  0.74226111044E+02  0.20521874325E+04  0.20722523843E+04  0.26305329384E+03 0.  0.
         25    1    3    3    0    0 -0.89722544280E+02 -0.74226111044E+02  0.12046914440E+04  0.12167533167E+04  0.12509000000E+03 0.  0.
         25    1    4    4    0    0  0.22255202445E+01  0.34376049684E+02  0.96040852715E+03  0.96913296964E+03  0.12509000000E+03 0.  0.
         25    1    4    4    0    0  0.87497024036E+02  0.39850061360E+02  0.10917789054E+04  0.11031194146E+04  0.12509000000E+03 0.  0.
<mgrwt>
<rscale>  2 0.45858313E+03</rscale>
<asrwt>0</asrwt>
<pdfrwt beam="1">  1       21 0.48131458E+00 0.45858313E+03</pdfrwt>
<pdfrwt beam="2">  1       21 0.23622688E-02 0.45858313E+03</pdfrwt>
<totfact> 0.18810558E+03</totfact>
</mgrwt>
</event>
<event>
 7    0  0.4766352E-002  0.4569253E+03  0.7546771E-02  0.1025677E+00
         21   -1    0    0  502  501  0.00000000000E+00  0.00000000000E+00  0.15706215751E+03  0.15706215751E+03  0.00000000000E+00 0.  1.
         21   -1    0    0  501  502 -0.00000000000E+00 -0.00000000000E+00 -0.33232184705E+03  0.33232184705E+03  0.00000000000E+00 0.  1.
      99926    2    1    2    0    0 -0.14210854715E-13 -0.35527136788E-14 -0.17525968954E+03  0.48938400456E+03  0.45692531681E+03 0.  0.
      99925    2    3    3    0    0  0.10425950363E+03  0.19527663379E+02 -0.62706210997E+02  0.29046902934E+03  0.26303766722E+03 0.  0.
         25    1    3    3    0    0 -0.10425950363E+03 -0.19527663379E+02 -0.11255347855E+03  0.19891497522E+03  0.12509000000E+03 0.  0.
         25    1    4    4    0    0  0.93120800699E+02 -0.18724240057E+01 -0.28229054778E+02  0.15849093705E+03  0.12509000000E+03 0.  0.
         25    1    4    4    0    0  0.11138702931E+02  0.21400087385E+02 -0.34477156219E+02  0.13197809229E+03  0.12509000000E+03 0.  0.
<mgrwt>
<rscale>  2 0.45692532E+03</rscale>
<asrwt>0</asrwt>
<pdfrwt beam="1">  1       21 0.23097376E-01 0.45692532E+03</pdfrwt>
<pdfrwt beam="2">  1       21 0.48870859E-01 0.45692532E+03</pdfrwt>
<totfact> 0.65023556E+04</totfact>
</mgrwt>
</event>
<event>
 7    0  0.4766352E-002  0.4505529E+03  0.7546771E-02  0.1027557E+00
         21   -1    0    0  502  501  0.00000000000E+00  0.00000000000E+00  0.75630144381E+02  0.75630144381E+02  0.00000000000E+00 0. -1.
         21   -1    0    0  501  502 -0.00000000000E+00 -0.00000000000E+00 -0.67102183727E+03  0.67102183727E+03  0.00000000000E+00 0. -1.
      99926    2    1    2    0    0  0.00000000000E+00  0.00000000000E+00 -0.59539169289E+03  0.74665198165E+03  0.45055289783E+03 0.  0.
      99925    2    3    3    0    0 -0.19942552101E+02 -0.85143391815E+02 -0.48382212041E+03  0.55759542885E+03  0.26302417289E+03 0.  0.
         25    1    3    3    0    0  0.19942552101E+02  0.85143391815E+02 -0.11156957248E+03  0.18905655280E+03  0.12509000000E+03 0.  0.
         25    1    4    4    0    0 -0.41245826141E+02 -0.43071340747E+02 -0.19382826099E+03  0.23827140287E+03  0.12509000000E+03 0.  0.
         25    1    4    4    0    0  0.21303274041E+02 -0.42072051067E+02 -0.28999385942E+03  0.31932402598E+03  0.12509000000E+03 0.  0.
<mgrwt>
<rscale>  2 0.45055290E+03</rscale>
<asrwt>0</asrwt>
<pdfrwt beam="1">  1       21 0.11122080E-01 0.45055290E+03</pdfrwt>
<pdfrwt beam="2">  1       21 0.98679678E-01 0.45055290E+03</pdfrwt>
<totfact> 0.52244541E+04</totfact>
</mgrwt>
</event>
<event>
 7    0  0.4766352E-002  0.4511829E+03  0.7546771E-02  0.1027370E+00
         21   -1    0    0  502  501  0.00000000000E+00  0.00000000000E+00  0.18092910637E+04  0.18092910637E+04  0.00000000000E+00 0.  1.
         21   -1    0    0  501  502 -0.00000000000E+00 -0.00000000000E+00 -0.28127868812E+02  0.28127868812E+02  0.00000000000E+00 0.  1.
      99926    2    1    2    0    0  0.00000000000E+00 -0.71054273576E-14  0.17811631949E+04  0.18374189325E+04  0.45118289720E+03 0.  0.
      99925    2    3    3    0    0  0.86944403514E+02 -0.54476520060E+02  0.95573168665E+03  0.99628178351E+03  0.26196815597E+03 0.  0.
         25    1    4    4    0    0  0.88828710391E+01 -0.19474335428E+02  0.50738362894E+03  0.52301415865E+03  0.12509000000E+03 0.  0.
         25    1    3    3    0    0 -0.86944403514E+02  0.54476520060E+02  0.82543150822E+03  0.84113714899E+03  0.12509000000E+03 0.  0.
         25    1    4    4    0    0  0.78061532475E+02 -0.35002184631E+02  0.44834805771E+03  0.47326762486E+03  0.12509000000E+03 0.  0.
<mgrwt>
<rscale>  2 0.45118290E+03</rscale>
<asrwt>0</asrwt>
<pdfrwt beam="1">  1       21 0.26607214E+00 0.45118290E+03</pdfrwt>
<pdfrwt beam="2">  1       21 0.41364525E-02 0.45118290E+03</pdfrwt>
<totfact> 0.17050709E+04</totfact>
</mgrwt>
</event>
<event>
 7    0  0.4766352E-002  0.4561227E+03  0.7546771E-02  0.1025912E+00
         21   -1    0    0  502  501  0.00000000000E+00  0.00000000000E+00  0.13015938635E+03  0.13015938635E+03  0.00000000000E+00 0.  1.
         21   -1    0    0  501  502 -0.00000000000E+00 -0.00000000000E+00 -0.39960214453E+03  0.39960214453E+03  0.00000000000E+00 0.  1.
      99926    2    1    2    0    0 -0.17763568394E-14  0.00000000000E+00 -0.26944275818E+03  0.52976153087E+03  0.45612265857E+03 0.  0.
      99925    2    3    3    0    0  0.15704139513E+02  0.47434705695E+02 -0.50169047501E+02  0.27241907499E+03  0.26305616851E+03 0.  0.
         25    1    3    3    0    0 -0.15704139513E+02 -0.47434705695E+02 -0.21927371068E+03  0.25734245588E+03  0.12509000000E+03 0.  0.
         25    1    4    4    0    0 -0.23205804470E+02  0.70243762797E+01 -0.45328548779E+02  0.13524066200E+03  0.12509000000E+03 0.  0.
         25    1    4    4    0    0  0.38909943983E+02  0.40410329415E+02 -0.48404987224E+01  0.13717841300E+03  0.12509000000E+03 0.  0.
<mgrwt>
<rscale>  2 0.45612266E+03</rscale>
<asrwt>0</asrwt>
<pdfrwt beam="1">  1       21 0.19141086E-01 0.45612266E+03</pdfrwt>
<pdfrwt beam="2">  1       21 0.58765021E-01 0.45612266E+03</pdfrwt>
<totfact> 0.62663219E+04</totfact>
</mgrwt>
</event>
<event>
 7    0  0.4766352E-002  0.4504084E+03  0.7546771E-02  0.1027600E+00
         21   -1    0    0  502  501  0.00000000000E+00  0.00000000000E+00  0.96070776364E+02  0.96070776364E+02  0.00000000000E+00 0. -1.
         21   -1    0    0  501  502 -0.00000000000E+00 -0.00000000000E+00 -0.52791208544E+03  0.52791208544E+03  0.00000000000E+00 0. -1.
      99926    2    1    2    0    0  0.00000000000E+00 -0.71054273576E-14 -0.43184130907E+03  0.62398286180E+03  0.45040836537E+03 0.  0.
      99925    2    3    3    0    0 -0.87972225108E+02 -0.63851202067E+02 -0.27733821875E+03  0.39741101576E+03  0.26306451581E+03 0.  0.
         25    1    4    4    0    0 -0.50064511477E+02 -0.63388110692E+02 -0.18448075469E+03  0.23707628485E+03  0.12509000000E+03 0.  0.
         25    1    3    3    0    0  0.87972225108E+02  0.63851202067E+02 -0.15450309033E+03  0.22657184604E+03  0.12509000000E+03 0.  0.
         25    1    4    4    0    0 -0.37907713632E+02 -0.46309137568E+00 -0.92857464051E+02  0.16033473091E+03  0.12509000000E+03 0.  0.
<mgrwt>
<rscale>  2 0.45040837E+03</rscale>
<asrwt>0</asrwt>
<pdfrwt beam="1">  1       21 0.14128056E-01 0.45040837E+03</pdfrwt>
<pdfrwt beam="2">  1       21 0.77634128E-01 0.45040837E+03</pdfrwt>
<totfact> 0.59348249E+04</totfact>
</mgrwt>
</event>
<event>
 7    0  0.4766352E-002  0.4427760E+03  0.7546771E-02  0.1029898E+00
         21   -1    0    0  502  501  0.00000000000E+00  0.00000000000E+00  0.13922862722E+03  0.13922862722E+03  0.00000000000E+00 0.  1.
         21   -1    0    0  501  502 -0.00000000000E+00 -0.00000000000E+00 -0.35202987627E+03  0.35202987627E+03  0.00000000000E+00 0.  1.
      99926    2    1    2    0    0  0.00000000000E+00  0.17763568394E-14 -0.21280124904E+03  0.49125850349E+03  0.44277595424E+03 0.  0.
      99925    2    3    3    0    0  0.96402520097E+02  0.13020057765E+02 -0.16730692329E+03  0.32639428796E+03  0.26282818884E+03 0.  0.
         25    1    3    3    0    0 -0.96402520097E+02 -0.13020057765E+02 -0.45494325754E+02  0.16486421553E+03  0.12509000000E+03 0.  0.
         25    1    4    4    0    0  0.32855573616E+02  0.40345176417E+02 -0.10005989191E+03  0.16842420268E+03  0.12509000000E+03 0.  0.
         25    1    4    4    0    0  0.63546946481E+02 -0.27325118652E+02 -0.67247031377E+02  0.15797008529E+03  0.12509000000E+03 0.  0.
<mgrwt>
<rscale>  2 0.44277595E+03</rscale>
<asrwt>0</asrwt>
<pdfrwt beam="1">  1       21 0.20474798E-01 0.44277595E+03</pdfrwt>
<pdfrwt beam="2">  1       21 0.51769099E-01 0.44277595E+03</pdfrwt>
<totfact> 0.72690986E+04</totfact>
</mgrwt>
</event>
<event>
 7    0  0.4766352E-002  0.4551796E+03  0.7546771E-02  0.1026189E+00
         21   -1    0    0  502  501  0.00000000000E+00  0.00000000000E+00  0.85275552496E+03  0.85275552496E+03  0.00000000000E+00 0. -1.
         21   -1    0    0  501  502 -0.00000000000E+00 -0.00000000000E+00 -0.60740881338E+02  0.60740881338E+02  0.00000000000E+00 0. -1.
      99926    2    1    2    0    0  0.71054273576E-14  0.71054273576E-14  0.79201464362E+03  0.91349640630E+03  0.45517962236E+03 0.  0.
      99925    2    3    3    0    0  0.52351805378E+02  0.36738741942E+02  0.68613956892E+03  0.73757742998E+03  0.26294963490E+03 0.  0.
         25    1    4    4    0    0  0.33628629057E+02 -0.16841302150E+02  0.38588115039E+03  0.40738959790E+03  0.12509000000E+03 0.  0.
         25    1    4    4    0    0  0.18723176321E+02  0.53580044092E+02  0.30025841853E+03  0.33018783208E+03  0.12509000000E+03 0.  0.
         25    1    3    3    0    0 -0.52351805378E+02 -0.36738741942E+02  0.10587507470E+03  0.17591897632E+03  0.12509000000E+03 0.  0.
<mgrwt>
<rscale>  2 0.45517962E+03</rscale>
<asrwt>0</asrwt>
<pdfrwt beam="1">  1       21 0.12540522E+00 0.45517962E+03</pdfrwt>
<pdfrwt beam="2">  1       21 0.89324831E-02 0.45517962E+03</pdfrwt>
<totfact> 0.42595456E+04</totfact>
</mgrwt>
</event>
<event>
 7    0  0.4766352E-002  0.4224828E+03  0.7546771E-02  0.1036261E+00
         21   -1    0    0  502  501  0.00000000000E+00  0.00000000000E+00  0.13414517343E+04  0.13414517343E+04  0.00000000000E+00 0. -1.
         21   -1    0    0  501  502 -0.00000000000E+00 -0.00000000000E+00 -0.33264648815E+02  0.33264648815E+02  0.00000000000E+00 0. -1.
      99926    2    1    2    0    0  0.00000000000E+00  0.00000000000E+00  0.13081870855E+04  0.13747163831E+04  0.42248276104E+03 0.  0.
      99925    2    3    3    0    0  0.33351954567E+02 -0.54350465005E+02  0.10015280854E+04  0.10374426422E+04  0.26298745971E+03 0.  0.
         25    1    4    4    0    0  0.38984064813E+02  0.18430541140E+01  0.42155872405E+03  0.44145489019E+03  0.12509000000E+03 0.  0.
         25    1    3    3    0    0 -0.33351954567E+02  0.54350465005E+02  0.30665900009E+03  0.33727374098E+03  0.12509000000E+03 0.  0.
         25    1    4    4    0    0 -0.56321102464E+01 -0.56193519119E+02  0.57996936137E+03  0.59598775196E+03  0.12509000000E+03 0.  0.
<mgrwt>
<rscale>  2 0.42248276E+03</rscale>
<asrwt>0</asrwt>
<pdfrwt beam="1">  1       21 0.19727228E+00 0.42248276E+03</pdfrwt>
<pdfrwt beam="2">  1       21 0.48918610E-02 0.42248276E+03</pdfrwt>
<totfact> 0.35076239E+04</totfact>
</mgrwt>
</event>
<event>
 7    0  0.4766352E-002  0.4695752E+03  0.7546771E-02  0.1022040E+00
         21   -1    0    0  502  501  0.00000000000E+00  0.00000000000E+00  0.42501519715E+02  0.42501519715E+02  0.00000000000E+00 0. -1.
         21   -1    0    0  501  502 -0.00000000000E+00 -0.00000000000E+00 -0.12970177252E+04  0.12970177252E+04  0.00000000000E+00 0. -1.
      99926    2    1    2    0    0  0.00000000000E+00  0.00000000000E+00 -0.12545162055E+04  0.13395192450E+04  0.46957523112E+03 0.  0.
      99925    2    3    3    0    0  0.76416803312E+02 -0.74448752996E+02 -0.97265065807E+03  0.10132098219E+04  0.26298801464E+03 0.  0.
         25    1    4    4    0    0  0.26067300167E+02 -0.41851036365E+02 -0.34200248733E+03  0.36748363613E+03  0.12509000000E+03 0.  0.
         25    1    3    3    0    0 -0.76416803312E+02  0.74448752996E+02 -0.28186554746E+03  0.32630942309E+03  0.12509000000E+03 0.  0.
         25    1    4    4    0    0  0.50349503145E+02 -0.32597716630E+02 -0.63064817074E+03  0.64572618574E+03  0.12509000000E+03 0.  0.
<mgrwt>
<rscale>  2 0.46957523E+03</rscale>
<asrwt>0</asrwt>
<pdfrwt beam="1">  1       21 0.62502239E-02 0.46957523E+03</pdfrwt>
<pdfrwt beam="2">  1       21 0.19073789E+00 0.46957523E+03</pdfrwt>
<totfact> 0.25028958E+04</totfact>
</mgrwt>
</event>
<event>
 7    0  0.4766352E-002  0.4606259E+03  0.7546771E-02  0.1024600E+00
         21   -1    0    0  502  501  0.00000000000E+00  0.00000000000E+00  0.83985569399E+03  0.83985569399E+03  0.00000000000E+00 0.  1.
         21   -1    0    0  501  502 -0.00000000000E+00 -0.00000000000E+00 -0.63158533005E+02  0.63158533005E+02  0.00000000000E+00 0.  1.
      99926    2    1    2    0    0  0.00000000000E+00  0.00000000000E+00  0.77669716099E+03  0.90301422700E+03  0.46062589406E+03 0.  0.
      99925    2    3    3    0    0  0.98325718110E+02 -0.97600380224E+01  0.35857378739E+03  0.45553476509E+03  0.26300866148E+03 0.  0.
         25    1    4    4    0    0  0.38659314385E+02  0.53089164527E+01  0.11244685547E+03  0.17266884660E+03  0.12509000000E+03 0.  0.
         25    1    3    3    0    0 -0.98325718110E+02  0.97600380224E+01  0.41812337359E+03  0.44747946191E+03  0.12509000000E+03 0.  0.
         25    1    4    4    0    0  0.59666403724E+02 -0.15068954475E+02  0.24612693193E+03  0.28286591849E+03  0.12509000000E+03 0.  0.
<mgrwt>
<rscale>  2 0.46062589E+03</rscale>
<asrwt>0</asrwt>
<pdfrwt beam="1">  1       21 0.12350818E+00 0.46062589E+03</pdfrwt>
<pdfrwt beam="2">  1       21 0.92880201E-02 0.46062589E+03</pdfrwt>
<totfact> 0.41256206E+04</totfact>
</mgrwt>
</event>
<event>
 7    0  0.4766352E-002  0.4331898E+03  0.7546771E-02  0.1032857E+00
         21   -1    0    0  502  501  0.00000000000E+00  0.00000000000E+00  0.10555720583E+03  0.10555720583E+03  0.00000000000E+00 0. -1.
         21   -1    0    0  501  502 -0.00000000000E+00 -0.00000000000E+00 -0.44443527435E+03  0.44443527435E+03  0.00000000000E+00 0. -1.
      99926    2    1    2    0    0  0.71054273576E-14 -0.35527136788E-14 -0.33887806852E+03  0.54999248018E+03  0.43318977704E+03 0.  0.
      99925    2    3    3    0    0  0.44716259694E+02  0.89894765925E+01 -0.31798380328E+03  0.41521698912E+03  0.26308001508E+03 0.  0.
         25    1    4    4    0    0  0.40905469938E+02  0.35792401507E+02 -0.19299856168E+03  0.23632669419E+03  0.12509000000E+03 0.  0.
         25    1    4    4    0    0  0.38107897567E+01 -0.26802924914E+02 -0.12498524161E+03  0.17889029493E+03  0.12509000000E+03 0.  0.
         25    1    3    3    0    0 -0.44716259694E+02 -0.89894765925E+01 -0.20894265237E+02  0.13477549106E+03  0.12509000000E+03 0.  0.
<mgrwt>
<rscale>  2 0.43318978E+03</rscale>
<asrwt>0</asrwt>
<pdfrwt beam="1">  1       21 0.15523119E-01 0.43318978E+03</pdfrwt>
<pdfrwt beam="2">  1       21 0.65358128E-01 0.43318978E+03</pdfrwt>
<totfact> 0.73801010E+04</totfact>
</mgrwt>
</event>
<event>
 7    0  0.4766352E-002  0.4533215E+03  0.7546771E-02  0.1026736E+00
         21   -1    0    0  502  501  0.00000000000E+00  0.00000000000E+00  0.79932402151E+02  0.79932402151E+02  0.00000000000E+00 0.  1.
         21   -1    0    0  501  502 -0.00000000000E+00 -0.00000000000E+00 -0.64273178919E+03  0.64273178919E+03  0.00000000000E+00 0.  1.
      99926    2    1    2    0    0 -0.71054273576E-14  0.00000000000E+00 -0.56279938704E+03  0.72266419134E+03  0.45332150114E+03 0.  0.
      99925    2    3    3    0    0  0.48082564090E+02  0.96563163753E+02 -0.40092770856E+03  0.49139308212E+03  0.26284549855E+03 0.  0.
         25    1    4    4    0    0  0.47604407797E+02  0.38705682714E+02 -0.14740953145E+03  0.20283339858E+03  0.12509000000E+03 0.  0.
         25    1    4    4    0    0  0.47815629304E+00  0.57857481039E+02 -0.25351817710E+03  0.28855968354E+03  0.12509000000E+03 0.  0.
         25    1    3    3    0    0 -0.48082564090E+02 -0.96563163753E+02 -0.16187167848E+03  0.23127110922E+03  0.12509000000E+03 0.  0.
<mgrwt>
<rscale>  2 0.45332150E+03</rscale>
<asrwt>0</asrwt>
<pdfrwt beam="1">  1       21 0.11754765E-01 0.45332150E+03</pdfrwt>
<pdfrwt beam="2">  1       21 0.94519383E-01 0.45332150E+03</pdfrwt>
<totfact> 0.52377738E+04</totfact>
</mgrwt>
</event>
<event>
 7    0  0.4766352E-002  0.4247232E+03  0.7546771E-02  0.1035540E+00
         21   -1    0    0  502  501  0.00000000000E+00  0.00000000000E+00  0.55314417747E+03  0.55314417747E+03  0.00000000000E+00 0. -1.
         21   -1    0    0  501  502 -0.00000000000E+00 -0.00000000000E+00 -0.81529292296E+02  0.81529292296E+02  0.00000000000E+00 0. -1.
      99926    2    1    2    0    0 -0.26645352591E-14 -0.71054273576E-14  0.47161488517E+03  0.63467346977E+03  0.42472321965E+03 0.  0.
      99925    2    3    3    0    0 -0.24730261505E+01 -0.57628803431E+02  0.21977217302E+03  0.34762041786E+03  0.26308354574E+03 0.  0.
         25    1    3    3    0    0  0.24730261505E+01  0.57628803431E+02  0.25184271215E+03  0.28705305190E+03  0.12509000000E+03 0.  0.
         25    1    4    4    0    0 -0.25805391680E+02 -0.27984772860E+02  0.68074594139E+02  0.14741344653E+03  0.12509000000E+03 0.  0.
         25    1    4    4    0    0  0.23332365530E+02 -0.29644030571E+02  0.15169757888E+03  0.20020697133E+03  0.12509000000E+03 0.  0.
<mgrwt>
<rscale>  2 0.42472322E+03</rscale>
<asrwt>0</asrwt>
<pdfrwt beam="1">  1       21 0.81344730E-01 0.42472322E+03</pdfrwt>
<pdfrwt beam="2">  1       21 0.11989602E-01 0.42472322E+03</pdfrwt>
<totfact> 0.72395716E+04</totfact>
</mgrwt>
</event>
<event>
 7    0  0.4766352E-002  0.4533484E+03  0.7546771E-02  0.1026728E+00
         21   -1    0    0  502  501  0.00000000000E+00  0.00000000000E+00  0.18908025644E+04  0.18908025644E+04  0.00000000000E+00 0.  1.
         21   -1    0    0  501  502 -0.00000000000E+00 -0.00000000000E+00 -0.27174275960E+02  0.27174275960E+02  0.00000000000E+00 0.  1.
      99926    2    1    2    0    0  0.00000000000E+00  0.17763568394E-14  0.18636282885E+04  0.19179768404E+04  0.45334838996E+03 0.  0.
      99925    2    3    3    0    0  0.74482062587E+02  0.39354803439E+01  0.15256625261E+04  0.15499667450E+04  0.26303555176E+03 0.  0.
         25    1    4    4    0    0  0.56867682386E+02 -0.32992614351E+02  0.74399710883E+03  0.75729891849E+03  0.12509000000E+03 0.  0.
         25    1    4    4    0    0  0.17614380202E+02  0.36928094695E+02  0.78166541729E+03  0.79266782656E+03  0.12509000000E+03 0.  0.
         25    1    3    3    0    0 -0.74482062587E+02 -0.39354803439E+01  0.33796576234E+03  0.36801009533E+03  0.12509000000E+03 0.  0.
<mgrwt>
<rscale>  2 0.45334839E+03</rscale>
<asrwt>0</asrwt>
<pdfrwt beam="1">  1       21 0.27805911E+00 0.45334839E+03</pdfrwt>
<pdfrwt beam="2">  1       21 0.39962183E-02 0.45334839E+03</pdfrwt>
<totfact> 0.15290536E+04</totfact>
</mgrwt>
</event>
<event>
 7    0  0.4766352E-002  0.4546700E+03  0.7546771E-02  0.1026338E+00
         21   -1    0    0  502  501  0.00000000000E+00  0.00000000000E+00  0.92526912156E+02  0.92526912156E+02  0.00000000000E+00 0.  1.
         21   -1    0    0  501  502 -0.00000000000E+00 -0.00000000000E+00 -0.55855314025E+03  0.55855314025E+03  0.00000000000E+00 0.  1.
      99926    2    1    2    0    0  0.00000000000E+00  0.71054273576E-14 -0.46602622809E+03  0.65108005240E+03  0.45466997852E+03 0.  0.
      99925    2    3    3    0    0 -0.97505279332E+02 -0.37502473011E+02 -0.35450783389E+03  0.45360201483E+03  0.26299290596E+03 0.  0.
         25    1    3    3    0    0  0.97505279332E+02  0.37502473011E+02 -0.11151839420E+03  0.19747803758E+03  0.12509000000E+03 0.  0.
         25    1    4    4    0    0 -0.70341667535E+02 -0.55193136091E+02 -0.19337751569E+03  0.24705587250E+03  0.12509000000E+03 0.  0.
         25    1    4    4    0    0 -0.27163611797E+02  0.17690663080E+02 -0.16113031820E+03  0.20654614232E+03  0.12509000000E+03 0.  0.
<mgrwt>
<rscale>  2 0.45466998E+03</rscale>
<asrwt>0</asrwt>
<pdfrwt beam="1">  1       21 0.13606899E-01 0.45466998E+03</pdfrwt>
<pdfrwt beam="2">  1       21 0.82140167E-01 0.45466998E+03</pdfrwt>
<totfact> 0.55784401E+04</totfact>
</mgrwt>
</event>
<event>
 7    0  0.4766352E-002  0.4547080E+03  0.7546771E-02  0.1026327E+00
         21   -1    0    0  502  501  0.00000000000E+00  0.00000000000E+00  0.21928974568E+03  0.21928974568E+03  0.00000000000E+00 0.  1.
         21   -1    0    0  501  502 -0.00000000000E+00 -0.00000000000E+00 -0.23571484411E+03  0.23571484411E+03  0.00000000000E+00 0.  1.
      99926    2    1    2    0    0  0.00000000000E+00  0.00000000000E+00 -0.16425098435E+02  0.45500458979E+03  0.45470803036E+03 0.  0.
      99925    2    3    3    0    0  0.51228797250E+02 -0.84808036051E+02  0.43709456485E+02  0.28447463512E+03  0.26305609438E+03 0.  0.
         25    1    4    4    0    0 -0.19427470455E+01 -0.12157576158E+02  0.61516104609E+01  0.12584487012E+03  0.12509000000E+03 0.  0.
         25    1    4    4    0    0  0.53171544296E+02 -0.72650459892E+02  0.37557846024E+02  0.15862976500E+03  0.12509000000E+03 0.  0.
         25    1    3    3    0    0 -0.51228797250E+02  0.84808036051E+02 -0.60134554920E+02  0.17052995468E+03  0.12509000000E+03 0.  0.
<mgrwt>
<rscale>  2 0.45470803E+03</rscale>
<asrwt>0</asrwt>
<pdfrwt beam="1">  1       21 0.32248492E-01 0.45470803E+03</pdfrwt>
<pdfrwt beam="2">  1       21 0.34663948E-01 0.45470803E+03</pdfrwt>
<totfact> 0.68705388E+04</totfact>
</mgrwt>
</event>
<event>
 7    0  0.4766352E-002  0.4568416E+03  0.7546771E-02  0.1025701E+00
         21   -1    0    0  502  501  0.00000000000E+00  0.00000000000E+00  0.60672798762E+03  0.60672798762E+03  0.00000000000E+00 0. -1.
         21   -1    0    0  501  502 -0.00000000000E+00 -0.00000000000E+00 -0.85995814114E+02  0.85995814114E+02  0.00000000000E+00 0. -1.
      99926    2    1    2    0    0 -0.26645352591E-14  0.00000000000E+00  0.52073217351E+03  0.69272380174E+03  0.45684162350E+03 0.  0.
      99925    2    3    3    0    0  0.36170592447E+01  0.86724125985E+02  0.44130393247E+03  0.52099578795E+03  0.26297013728E+03 0.  0.
         25    1    4    4    0    0 -0.33872356071E+02  0.23261038359E+02  0.21563048343E+03  0.25265079833E+03  0.12509000000E+03 0.  0.
         25    1    4    4    0    0  0.37489415316E+02  0.63463087626E+02  0.22567344904E+03  0.26834498962E+03  0.12509000000E+03 0.  0.
         25    1    3    3    0    0 -0.36170592447E+01 -0.86724125985E+02  0.79428241033E+02  0.17172801379E+03  0.12509000000E+03 0.  0.
<mgrwt>
<rscale>  2 0.45684162E+03</rscale>
<asrwt>0</asrwt>
<pdfrwt beam="1">  1       21 0.89224702E-01 0.45684162E+03</pdfrwt>
<pdfrwt beam="2">  1       21 0.12646444E-01 0.45684162E+03</pdfrwt>
<totfact> 0.52534153E+04</totfact>
</mgrwt>
</event>
