<event>
 6    0  0.1357312E-003  0.6967195E+03  0.7546771E-02  0.9722859E-01
         21   -1    0    0  502  501  0.00000000000E+00  0.00000000000E+00  0.21752077326E+03  0.21752077326E+03  0.00000000000E+00 0.  1.
         21   -1    0    0  501  502 -0.00000000000E+00 -0.00000000000E+00 -0.55789855668E+03  0.55789855668E+03  0.00000000000E+00 0.  1.
      99926    2    1    2    0    0 -0.89192955131E+02  0.14804267135E+03 -0.23462904471E+03  0.53729684123E+03  0.45140346830E+03 0.  0.
         25    1    3    3    0    0  0.23843267847E+02  0.19450583657E+03  0.14476202084E+02  0.23293366096E+03  0.12509000000E+03 0.  0.
         25    1    1    2    0    0  0.89192955131E+02 -0.14804267135E+03 -0.10574873871E+03  0.23812248870E+03  0.12509000000E+03 0.  0.
         25    1    3    3    0    0 -0.11303622298E+03 -0.46463165216E+02 -0.24910524680E+03  0.30436318028E+03  0.12509000000E+03 0.  0.
<mgrwt>
<rscale>  2 0.69671953E+03</rscale>
<asrwt>0</asrwt>
<pdfrwt beam="1">  1       21 0.31988349E-01 0.69671953E+03</pdfrwt>
<pdfrwt beam="2">  1       21 0.82043905E-01 0.69671953E+03</pdfrwt>
<totfact> 0.10297829E+04</totfact>
</mgrwt>
</event>
<event>
 6    0  0.1357312E-003  0.8926883E+03  0.7546771E-02  0.9434768E-01
         21   -1    0    0  502  501  0.00000000000E+00  0.00000000000E+00  0.38074088788E+03  0.38074088788E+03  0.00000000000E+00 0.  1.
         21   -1    0    0  501  502 -0.00000000000E+00 -0.00000000000E+00 -0.52325114357E+03  0.52325114357E+03  0.00000000000E+00 0.  1.
      99926    2    1    2    0    0  0.30920375336E+03 -0.30962640475E+02 -0.13090719518E+03  0.56880881990E+03  0.45808419930E+03 0.  0.
         25    1    3    3    0    0  0.12515561173E+03 -0.45403827481E+02 -0.25493911728E+03  0.31363497305E+03  0.12509000000E+03 0.  0.
         25    1    3    3    0    0  0.18404814162E+03  0.14441187006E+02  0.12403192210E+03  0.25517384685E+03  0.12509000000E+03 0.  0.
         25    1    1    2    0    0 -0.30920375336E+03  0.30962640475E+02 -0.11603060507E+02  0.33518321156E+03  0.12509000000E+03 0.  0.
<mgrwt>
<rscale>  2 0.89268831E+03</rscale>
<asrwt>0</asrwt>
<pdfrwt beam="1">  1       21 0.55991307E-01 0.89268831E+03</pdfrwt>
<pdfrwt beam="2">  1       21 0.76948697E-01 0.89268831E+03</pdfrwt>
<totfact> 0.35621921E+03</totfact>
</mgrwt>
</event>
<event>
 6    0  0.1357312E-003  0.7110236E+03  0.7546771E-02  0.9698564E-01
         21   -1    0    0  502  501  0.00000000000E+00  0.00000000000E+00  0.15884890622E+04  0.15884890622E+04  0.00000000000E+00 0. -1.
         21   -1    0    0  501  502 -0.00000000000E+00 -0.00000000000E+00 -0.79565310388E+02  0.79565310388E+02  0.00000000000E+00 0. -1.
      99926    2    1    2    0    0 -0.94357964211E+02 -0.54828564158E+02  0.13832565762E+04  0.14598493198E+04  0.45370880992E+03 0.  0.
         25    1    1    2    0    0  0.94357964211E+02  0.54828564158E+02  0.12566717559E+03  0.20820505272E+03  0.12509000000E+03 0.  0.
         25    1    3    3    0    0  0.80627948775E+01 -0.56664528693E+02  0.10936556969E+03  0.17573904918E+03  0.12509000000E+03 0.  0.
         25    1    3    3    0    0 -0.10242075909E+03  0.18359645358E+01  0.12738910065E+04  0.12841102707E+04  0.12509000000E+03 0.  0.
<mgrwt>
<rscale>  2 0.71102356E+03</rscale>
<asrwt>0</asrwt>
<pdfrwt beam="1">  1       21 0.23360131E+00 0.71102356E+03</pdfrwt>
<pdfrwt beam="2">  1       21 0.11700782E-01 0.71102356E+03</pdfrwt>
<totfact> 0.39816250E+03</totfact>
</mgrwt>
</event>
<event>
 6    0  0.1357312E-003  0.5558106E+03  0.7546771E-02  0.1000158E+00
         21   -1    0    0  502  501  0.00000000000E+00  0.00000000000E+00  0.57143957391E+02  0.57143957391E+02  0.00000000000E+00 0.  1.
         21   -1    0    0  501  502 -0.00000000000E+00 -0.00000000000E+00 -0.13515227073E+04  0.13515227073E+04  0.00000000000E+00 0.  1.
      99926    2    1    2    0    0  0.24493883135E+02  0.81603952017E+02 -0.62640178113E+03  0.72375798887E+03  0.35240215629E+03 0.  0.
         25    1    3    3    0    0  0.12089139771E+03  0.45711936982E+02 -0.20730398986E+03  0.27445721622E+03  0.12509000000E+03 0.  0.
         25    1    1    2    0    0 -0.24493883135E+02 -0.81603952017E+02 -0.66797696879E+03  0.68490867583E+03  0.12509000000E+03 0.  0.
         25    1    3    3    0    0 -0.96397514571E+02  0.35892015035E+02 -0.41909779128E+03  0.44930077266E+03  0.12509000000E+03 0.  0.
<mgrwt>
<rscale>  2 0.55581060E+03</rscale>
<asrwt>0</asrwt>
<pdfrwt beam="1">  1       21 0.84035248E-02 0.55581060E+03</pdfrwt>
<pdfrwt beam="2">  1       21 0.19875330E+00 0.55581060E+03</pdfrwt>
<totfact> 0.12771045E+04</totfact>
</mgrwt>
</event>
<event>
 6    0  0.1357312E-003  0.6939099E+03  0.7546771E-02  0.9727704E-01
         21   -1    0    0  502  501  0.00000000000E+00  0.00000000000E+00  0.49606546677E+03  0.49606546677E+03  0.00000000000E+00 0.  1.
         21   -1    0    0  501  502 -0.00000000000E+00 -0.00000000000E+00 -0.24266503479E+03  0.24266503479E+03  0.00000000000E+00 0.  1.
      99926    2    1    2    0    0  0.14357668427E+03 -0.39815541714E+02  0.26484552804E+03  0.54385094914E+03  0.45103343505E+03 0.  0.
         25    1    1    2    0    0 -0.14357668427E+03  0.39815541714E+02 -0.11445096060E+02  0.19487955242E+03  0.12509000000E+03 0.  0.
         25    1    3    3    0    0  0.17512543501E+03 -0.18212698281E+03  0.17465441112E+03  0.33164865035E+03  0.12509000000E+03 0.  0.
         25    1    3    3    0    0 -0.31548750743E+02  0.14231144110E+03  0.90191116921E+02  0.21220229879E+03  0.12509000000E+03 0.  0.
<mgrwt>
<rscale>  2 0.69390992E+03</rscale>
<asrwt>0</asrwt>
<pdfrwt beam="1">  1       21 0.72950804E-01 0.69390992E+03</pdfrwt>
<pdfrwt beam="2">  1       21 0.35686034E-01 0.69390992E+03</pdfrwt>
<totfact> 0.10830781E+04</totfact>
</mgrwt>
</event>
<event>
 6    0  0.1357312E-003  0.5852319E+03  0.7546771E-02  0.9936528E-01
         21   -1    0    0  502  501  0.00000000000E+00  0.00000000000E+00  0.10578898285E+04  0.10578898285E+04  0.00000000000E+00 0. -1.
         21   -1    0    0  501  502 -0.00000000000E+00 -0.00000000000E+00 -0.80938573171E+02  0.80938573171E+02  0.00000000000E+00 0. -1.
      99926    2    1    2    0    0  0.10359752123E+02  0.22546577803E+02  0.83217323593E+03  0.94589355349E+03  0.44898401677E+03 0.  0.
         25    1    1    2    0    0 -0.10359752123E+02 -0.22546577803E+02  0.14477801936E+03  0.19293484814E+03  0.12509000000E+03 0.  0.
         25    1    3    3    0    0  0.17319797223E+03  0.11761851608E+02  0.25326029803E+03  0.33154813436E+03  0.12509000000E+03 0.  0.
         25    1    3    3    0    0 -0.16283822011E+03  0.10784726195E+02  0.57891293789E+03  0.61434541913E+03  0.12509000000E+03 0.  0.
<mgrwt>
<rscale>  2 0.58523190E+03</rscale>
<asrwt>0</asrwt>
<pdfrwt beam="1">  1       21 0.15557203E+00 0.58523190E+03</pdfrwt>
<pdfrwt beam="2">  1       21 0.11902732E-01 0.58523190E+03</pdfrwt>
<totfact> 0.13824007E+04</totfact>
</mgrwt>
</event>
<event>
 6    0  0.1357312E-003  0.6762591E+03  0.7546771E-02  0.9758716E-01
         21   -1    0    0  502  501  0.00000000000E+00  0.00000000000E+00  0.53109154385E+03  0.53109154385E+03  0.00000000000E+00 0. -1.
         21   -1    0    0  501  502 -0.00000000000E+00 -0.00000000000E+00 -0.21527663593E+03  0.21527663593E+03  0.00000000000E+00 0. -1.
      99926    2    1    2    0    0  0.46075189927E+02 -0.92812353874E+02  0.34835650755E+03  0.58070732151E+03  0.45291465062E+03 0.  0.
         25    1    3    3    0    0  0.15450145191E+03 -0.77434216703E+02  0.22035590636E+02  0.21447571404E+03  0.12509000000E+03 0.  0.
         25    1    1    2    0    0 -0.46075189927E+02  0.92812353874E+02 -0.32541599634E+02  0.16566085828E+03  0.12509000000E+03 0.  0.
         25    1    3    3    0    0 -0.10842626198E+03 -0.15378137170E+02  0.32632091692E+03  0.36623160747E+03  0.12509000000E+03 0.  0.
<mgrwt>
<rscale>  2 0.67625912E+03</rscale>
<asrwt>0</asrwt>
<pdfrwt beam="1">  1       21 0.78101697E-01 0.67625912E+03</pdfrwt>
<pdfrwt beam="2">  1       21 0.31658329E-01 0.67625912E+03</pdfrwt>
<totfact> 0.11841233E+04</totfact>
</mgrwt>
</event>
<event>
 6    0  0.1357312E-003  0.5972132E+03  0.7546771E-02  0.9911205E-01
         21   -1    0    0  502  501  0.00000000000E+00  0.00000000000E+00  0.10157963062E+03  0.10157963062E+03  0.00000000000E+00 0. -1.
         21   -1    0    0  501  502 -0.00000000000E+00 -0.00000000000E+00 -0.87779315751E+03  0.87779315751E+03  0.00000000000E+00 0. -1.
      99926    2    1    2    0    0 -0.18915240957E+02  0.39457499185E+02 -0.68684973925E+03  0.81953513542E+03  0.44492762703E+03 0.  0.
         25    1    3    3    0    0 -0.12136132697E+03 -0.10554234268E+03 -0.47171220474E+03  0.51383622876E+03  0.12509000000E+03 0.  0.
         25    1    1    2    0    0  0.18915240957E+02 -0.39457499185E+02 -0.89363787636E+02  0.15983765271E+03  0.12509000000E+03 0.  0.
         25    1    3    3    0    0  0.10244608601E+03  0.14499984186E+03 -0.21513753451E+03  0.30569890666E+03  0.12509000000E+03 0.  0.
<mgrwt>
<rscale>  2 0.59721321E+03</rscale>
<asrwt>0</asrwt>
<pdfrwt beam="1">  1       21 0.14938180E-01 0.59721321E+03</pdfrwt>
<pdfrwt beam="2">  1       21 0.12908723E+00 0.59721321E+03</pdfrwt>
<totfact> 0.14971647E+04</totfact>
</mgrwt>
</event>
<event>
 6    0  0.1357312E-003  0.5697311E+03  0.7546771E-02  0.9970274E-01
         21   -1    0    0  502  501  0.00000000000E+00  0.00000000000E+00  0.74596201040E+03  0.74596201040E+03  0.00000000000E+00 0. -1.
         21   -1    0    0  501  502 -0.00000000000E+00 -0.00000000000E+00 -0.10878351919E+03  0.10878351919E+03  0.00000000000E+00 0. -1.
      99926    2    1    2    0    0 -0.23197054576E+02 -0.31683670052E+02  0.49647532770E+03  0.66242588261E+03  0.43678179982E+03 0.  0.
         25    1    3    3    0    0 -0.14945762416E+03 -0.77808666479E+02  0.11557540240E+03  0.23957660933E+03  0.12509000000E+03 0.  0.
         25    1    3    3    0    0  0.12626056958E+03  0.46124996427E+02  0.38089992530E+03  0.42284927328E+03  0.12509000000E+03 0.  0.
         25    1    1    2    0    0  0.23197054576E+02  0.31683670052E+02  0.14070316351E+03  0.19231964697E+03  0.12509000000E+03 0.  0.
<mgrwt>
<rscale>  2 0.56973107E+03</rscale>
<asrwt>0</asrwt>
<pdfrwt beam="1">  1       21 0.10970029E+00 0.56973107E+03</pdfrwt>
<pdfrwt beam="2">  1       21 0.15997577E-01 0.56973107E+03</pdfrwt>
<totfact> 0.20072821E+04</totfact>
</mgrwt>
</event>
<event>
 6    0  0.1357312E-003  0.8668592E+03  0.7546771E-02  0.9467984E-01
         21   -1    0    0  502  501  0.00000000000E+00  0.00000000000E+00  0.12714357643E+03  0.12714357643E+03  0.00000000000E+00 0.  1.
         21   -1    0    0  501  502 -0.00000000000E+00 -0.00000000000E+00 -0.14775516266E+04  0.14775516266E+04  0.00000000000E+00 0.  1.
      99926    2    1    2    0    0 -0.99562208958E+02 -0.16142369210E+03 -0.12912263796E+04  0.13699182449E+04  0.41646151386E+03 0.  0.
         25    1    1    2    0    0  0.99562208958E+02  0.16142369210E+03 -0.59181670532E+02  0.23477695809E+03  0.12509000000E+03 0.  0.
         25    1    3    3    0    0 -0.26226550347E+02 -0.23805591046E+03 -0.99813967530E+03  0.10340641991E+04  0.12509000000E+03 0.  0.
         25    1    3    3    0    0 -0.73335658612E+02  0.76632218361E+02 -0.29308670430E+03  0.33585404576E+03  0.12509000000E+03 0.  0.
<mgrwt>
<rscale>  2 0.86685915E+03</rscale>
<asrwt>0</asrwt>
<pdfrwt beam="1">  1       21 0.18697586E-01 0.86685915E+03</pdfrwt>
<pdfrwt beam="2">  1       21 0.21728699E+00 0.86685915E+03</pdfrwt>
<totfact> 0.20354855E+03</totfact>
</mgrwt>
</event>
<event>
 6    0  0.1357312E-003  0.5997639E+03  0.7546771E-02  0.9905896E-01
         21   -1    0    0  502  501  0.00000000000E+00  0.00000000000E+00  0.44216718366E+03  0.44216718366E+03  0.00000000000E+00 0. -1.
         21   -1    0    0  501  502 -0.00000000000E+00 -0.00000000000E+00 -0.20338273870E+03  0.20338273870E+03  0.00000000000E+00 0. -1.
      99926    2    1    2    0    0 -0.65624081338E+02  0.10142435852E+02  0.17075868583E+03  0.48843722058E+03  0.45277257051E+03 0.  0.
         25    1    1    2    0    0  0.65624081338E+02 -0.10142435852E+02  0.68025759125E+02  0.15711270178E+03  0.12509000000E+03 0.  0.
         25    1    3    3    0    0  0.96457552313E+02 -0.13020777049E+03  0.42658152883E+02  0.20910607117E+03  0.12509000000E+03 0.  0.
         25    1    3    3    0    0 -0.16208163365E+03  0.14035020634E+03  0.12810053295E+03  0.27933114941E+03  0.12509000000E+03 0.  0.
<mgrwt>
<rscale>  2 0.59976386E+03</rscale>
<asrwt>0</asrwt>
<pdfrwt beam="1">  1       21 0.65024586E-01 0.59976386E+03</pdfrwt>
<pdfrwt beam="2">  1       21 0.29909226E-01 0.59976386E+03</pdfrwt>
<totfact> 0.20440351E+04</totfact>
</mgrwt>
</event>
<event>
 6    0  0.1357312E-003  0.6368209E+03  0.7546771E-02  0.9831828E-01
         21   -1    0    0  502  501  0.00000000000E+00  0.00000000000E+00  0.10785626238E+04  0.10785626238E+04  0.00000000000E+00 0. -1.
         21   -1    0    0  501  502 -0.00000000000E+00 -0.00000000000E+00 -0.94000307044E+02  0.94000307044E+02  0.00000000000E+00 0. -1.
      99926    2    1    2    0    0 -0.11553037111E+03  0.22876397847E+02  0.59794293141E+03  0.74948769705E+03  0.43626306580E+03 0.  0.
         25    1    3    3    0    0 -0.16210410233E+03 -0.13021650893E+03  0.26357812089E+03  0.35826667875E+03  0.12509000000E+03 0.  0.
         25    1    3    3    0    0  0.46573731219E+02  0.15309290678E+03  0.33436481052E+03  0.39122101830E+03  0.12509000000E+03 0.  0.
         25    1    1    2    0    0  0.11553037111E+03 -0.22876397847E+02  0.38661938537E+03  0.42307523382E+03  0.12509000000E+03 0.  0.
<mgrwt>
<rscale>  2 0.63682091E+03</rscale>
<asrwt>0</asrwt>
<pdfrwt beam="1">  1       21 0.15861214E+00 0.63682091E+03</pdfrwt>
<pdfrwt beam="2">  1       21 0.13823575E-01 0.63682091E+03</pdfrwt>
<totfact> 0.98225323E+03</totfact>
</mgrwt>
</event>
<event>
 6    0  0.1357312E-003  0.7525846E+03  0.7546771E-02  0.9631304E-01
         21   -1    0    0  502  501  0.00000000000E+00  0.00000000000E+00  0.39321265510E+03  0.39321265510E+03  0.00000000000E+00 0.  1.
         21   -1    0    0  501  502 -0.00000000000E+00 -0.00000000000E+00 -0.36010000650E+03  0.36010000650E+03  0.00000000000E+00 0.  1.
      99926    2    1    2    0    0  0.77228656403E+02 -0.36833878475E+01 -0.17684861050E+03  0.49697485490E+03  0.45796369142E+03 0.  0.
         25    1    1    2    0    0 -0.77228656403E+02  0.36833878475E+01  0.20996125910E+03  0.25633780669E+03  0.12509000000E+03 0.  0.
         25    1    3    3    0    0 -0.10100578796E+03  0.12720888389E+02  0.62512481268E+02  0.17297198796E+03  0.12509000000E+03 0.  0.
         25    1    3    3    0    0  0.17823444437E+03 -0.16404276236E+02 -0.23936109177E+03  0.32400286695E+03  0.12509000000E+03 0.  0.
<mgrwt>
<rscale>  2 0.75258456E+03</rscale>
<asrwt>0</asrwt>
<pdfrwt beam="1">  1       21 0.57825391E-01 0.75258456E+03</pdfrwt>
<pdfrwt beam="2">  1       21 0.52955883E-01 0.75258456E+03</pdfrwt>
<totfact> 0.78656564E+03</totfact>
</mgrwt>
</event>
<event>
 6    0  0.1357312E-003  0.6976421E+03  0.7546771E-02  0.9721273E-01
         21   -1    0    0  502  501  0.00000000000E+00  0.00000000000E+00  0.20570968241E+04  0.20570968241E+04  0.00000000000E+00 0. -1.
         21   -1    0    0  501  502 -0.00000000000E+00 -0.00000000000E+00 -0.59149432690E+02  0.59149432690E+02  0.00000000000E+00 0. -1.
      99926    2    1    2    0    0 -0.16492489067E+03  0.13949146533E+02  0.15713108830E+04  0.16418402949E+04  0.44634836699E+03 0.  0.
         25    1    1    2    0    0  0.16492489067E+03 -0.13949146533E+02  0.42663650837E+03  0.47440596183E+03  0.12509000000E+03 0.  0.
         25    1    3    3    0    0  0.40932802992E+02  0.70380837243E+02  0.10948352699E+04  0.11049618694E+04  0.12509000000E+03 0.  0.
         25    1    3    3    0    0 -0.20585769366E+03 -0.56431690710E+02  0.47647561313E+03  0.53687842549E+03  0.12509000000E+03 0.  0.
<mgrwt>
<rscale>  2 0.69764206E+03</rscale>
<asrwt>0</asrwt>
<pdfrwt beam="1">  1       21 0.30251419E+00 0.69764206E+03</pdfrwt>
<pdfrwt beam="2">  1       21 0.86984474E-02 0.69764206E+03</pdfrwt>
<totfact> 0.25577290E+03</totfact>
</mgrwt>
</event>
<event>
 6    0  0.1357312E-003  0.6381219E+03  0.7546771E-02  0.9829326E-01
         21   -1    0    0  502  501  0.00000000000E+00  0.00000000000E+00  0.85604494456E+02  0.85604494456E+02  0.00000000000E+00 0.  1.
         21   -1    0    0  501  502 -0.00000000000E+00 -0.00000000000E+00 -0.11891885975E+04  0.11891885975E+04  0.00000000000E+00 0.  1.
      99926    2    1    2    0    0  0.84127190937E+02 -0.72513906738E+02 -0.85883449910E+03  0.97833815834E+03  0.45520677094E+03 0.  0.
         25    1    1    2    0    0 -0.84127190937E+02  0.72513906738E+02 -0.24474960390E+03  0.29645493356E+03  0.12509000000E+03 0.  0.
         25    1    3    3    0    0  0.15312533220E+03  0.11673997137E+03 -0.37942206498E+03  0.44349092412E+03  0.12509000000E+03 0.  0.
         25    1    3    3    0    0 -0.68998141263E+02 -0.18925387811E+03 -0.47941243411E+03  0.53484723423E+03  0.12509000000E+03 0.  0.
<mgrwt>
<rscale>  2 0.63812190E+03</rscale>
<asrwt>0</asrwt>
<pdfrwt beam="1">  1       21 0.12588897E-01 0.63812190E+03</pdfrwt>
<pdfrwt beam="2">  1       21 0.17488067E+00 0.63812190E+03</pdfrwt>
<totfact> 0.88271874E+03</totfact>
</mgrwt>
</event>
<event>
 6    0  0.1357312E-003  0.1408302E+04  0.7546771E-02  0.8947831E-01
         21   -1    0    0  502  501  0.00000000000E+00  0.00000000000E+00  0.10759211732E+04  0.10759211732E+04  0.00000000000E+00 0. -1.
         21   -1    0    0  501  502 -0.00000000000E+00 -0.00000000000E+00 -0.46084085816E+03  0.46084085816E+03  0.00000000000E+00 0. -1.
      99926    2    1    2    0    0  0.47612126033E+02 -0.54378488022E+03  0.66690008958E+03  0.97435496558E+03  0.45457998083E+03 0.  0.
         25    1    1    2    0    0 -0.47612126033E+02  0.54378488022E+03 -0.51819774554E+02  0.56240706577E+03  0.12509000000E+03 0.  0.
         25    1    3    3    0    0  0.21131788099E+03 -0.34276355043E+03  0.41973220044E+03  0.59494934786E+03  0.12509000000E+03 0.  0.
         25    1    3    3    0    0 -0.16370575496E+03 -0.20102132978E+03  0.24716788914E+03  0.37940561772E+03  0.12509000000E+03 0.  0.
<mgrwt>
<rscale>  2 0.14083017E+04</rscale>
<asrwt>0</asrwt>
<pdfrwt beam="1">  1       21 0.15822370E+00 0.14083017E+04</pdfrwt>
<pdfrwt beam="2">  1       21 0.67770715E-01 0.14083017E+04</pdfrwt>
<totfact> 0.33857962E+02</totfact>
</mgrwt>
</event>
<event>
 6    0  0.1357312E-003  0.6757597E+03  0.7546771E-02  0.9759609E-01
         21   -1    0    0  502  501  0.00000000000E+00  0.00000000000E+00  0.17719424745E+03  0.17719424745E+03  0.00000000000E+00 0. -1.
         21   -1    0    0  501  502 -0.00000000000E+00 -0.00000000000E+00 -0.64428044290E+03  0.64428044290E+03  0.00000000000E+00 0. -1.
      99926    2    1    2    0    0  0.25255722154E+02  0.14996086658E+03 -0.33661436554E+03  0.58526182130E+03  0.45397803402E+03 0.  0.
         25    1    3    3    0    0 -0.75200449583E+02  0.98200632478E+02  0.33033155348E+02  0.17898929937E+03  0.12509000000E+03 0.  0.
         25    1    3    3    0    0  0.10045617174E+03  0.51760234104E+02 -0.36964752089E+03  0.40627252193E+03  0.12509000000E+03 0.  0.
         25    1    1    2    0    0 -0.25255722154E+02 -0.14996086658E+03 -0.13047182991E+03  0.23621286906E+03  0.12509000000E+03 0.  0.
<mgrwt>
<rscale>  2 0.67575969E+03</rscale>
<asrwt>0</asrwt>
<pdfrwt beam="1">  1       21 0.26057977E-01 0.67575969E+03</pdfrwt>
<pdfrwt beam="2">  1       21 0.94747124E-01 0.67575969E+03</pdfrwt>
<totfact> 0.11044925E+04</totfact>
</mgrwt>
</event>
<event>
 6    0  0.1357312E-003  0.5716038E+03  0.7546771E-02  0.9966136E-01
         21   -1    0    0  502  501  0.00000000000E+00  0.00000000000E+00  0.28999499844E+03  0.28999499844E+03  0.00000000000E+00 0.  1.
         21   -1    0    0  501  502 -0.00000000000E+00 -0.00000000000E+00 -0.28166945090E+03  0.28166945090E+03  0.00000000000E+00 0.  1.
      99926    2    1    2    0    0 -0.18370657892E+02 -0.73346602793E+01 -0.29593937777E+02  0.43946507801E+03  0.43802109004E+03 0.  0.
         25    1    3    3    0    0  0.12482160445E+03 -0.66624803479E+02  0.87808851946E+02  0.20827193752E+03  0.12509000000E+03 0.  0.
         25    1    3    3    0    0 -0.14319226234E+03  0.59290143199E+02 -0.11740278972E+03  0.23119314049E+03  0.12509000000E+03 0.  0.
         25    1    1    2    0    0  0.18370657892E+02  0.73346602793E+01  0.37919485315E+02  0.13219937133E+03  0.12509000000E+03 0.  0.
<mgrwt>
<rscale>  2 0.57160382E+03</rscale>
<asrwt>0</asrwt>
<pdfrwt beam="1">  1       21 0.42646324E-01 0.57160382E+03</pdfrwt>
<pdfrwt beam="2">  1       21 0.41421978E-01 0.57160382E+03</pdfrwt>
<totfact> 0.26315890E+04</totfact>
</mgrwt>
</event>
<event>
 6    0  0.1357312E-003  0.6612059E+03  0.7546771E-02  0.9785976E-01
         21   -1    0    0  502  501  0.00000000000E+00  0.00000000000E+00  0.87561790937E+03  0.87561790937E+03  0.00000000000E+00 0. -1.
         21   -1    0    0  501  502 -0.00000000000E+00 -0.00000000000E+00 -0.12482421821E+03  0.12482421821E+03  0.00000000000E+00 0. -1.
      99926    2    1    2    0    0 -0.81500829621E+02  0.10601575572E+02  0.53974689282E+03  0.74170860092E+03  0.50204597572E+03 0.  0.
         25    1    1    2    0    0  0.81500829621E+02 -0.10601575572E+02  0.21104679833E+03  0.25873352666E+03  0.12509000000E+03 0.  0.
         25    1    3    3    0    0 -0.19765466072E+03 -0.11244567012E+03  0.15261180952E+03  0.30108016564E+03  0.12509000000E+03 0.  0.
         25    1    3    3    0    0  0.11615383110E+03  0.12304724570E+03  0.38713508330E+03  0.44062843528E+03  0.12509000000E+03 0.  0.
<mgrwt>
<rscale>  2 0.66120593E+03</rscale>
<asrwt>0</asrwt>
<pdfrwt beam="1">  1       21 0.12876734E+00 0.66120593E+03</pdfrwt>
<pdfrwt beam="2">  1       21 0.18356503E-01 0.66120593E+03</pdfrwt>
<totfact> 0.10086009E+04</totfact>
</mgrwt>
</event>
<event>
 6    0  0.1357312E-003  0.6524804E+03  0.7546771E-02  0.9802136E-01
         21   -1    0    0  502  501  0.00000000000E+00  0.00000000000E+00  0.40165484025E+03  0.40165484025E+03  0.00000000000E+00 0. -1.
         21   -1    0    0  501  502 -0.00000000000E+00 -0.00000000000E+00 -0.26498541895E+03  0.26498541895E+03  0.00000000000E+00 0. -1.
      99926    2    1    2    0    0  0.20585849128E+02  0.85876435932E+02  0.34621775357E+01  0.46368652722E+03  0.45518641172E+03 0.  0.
         25    1    3    3    0    0 -0.71419089946E+02  0.20098987905E+03 -0.69854300482E+02  0.25695281529E+03  0.12509000000E+03 0.  0.
         25    1    3    3    0    0  0.92004939074E+02 -0.11511344312E+03  0.73316478018E+02  0.20673371193E+03  0.12509000000E+03 0.  0.
         25    1    1    2    0    0 -0.20585849128E+02 -0.85876435932E+02  0.13320724377E+03  0.20295373198E+03  0.12509000000E+03 0.  0.
<mgrwt>
<rscale>  2 0.65248042E+03</rscale>
<asrwt>0</asrwt>
<pdfrwt beam="1">  1       21 0.59066889E-01 0.65248042E+03</pdfrwt>
<pdfrwt beam="2">  1       21 0.38968444E-01 0.65248042E+03</pdfrwt>
<totfact> 0.14634285E+04</totfact>
</mgrwt>
</event>
<event>
 6    0  0.1357312E-003  0.6139482E+03  0.7546771E-02  0.9876883E-01
         21   -1    0    0  502  501  0.00000000000E+00  0.00000000000E+00  0.59191848344E+03  0.59191848344E+03  0.00000000000E+00 0. -1.
         21   -1    0    0  501  502 -0.00000000000E+00 -0.00000000000E+00 -0.15919942850E+03  0.15919942850E+03  0.00000000000E+00 0. -1.
      99926    2    1    2    0    0  0.84500281486E+02  0.11757900607E+02  0.35067526836E+03  0.57890514582E+03  0.45263614330E+03 0.  0.
         25    1    3    3    0    0 -0.11776766033E+02 -0.10610572421E+03 -0.13349825617E+02  0.16499346312E+03  0.12509000000E+03 0.  0.
         25    1    3    3    0    0  0.96277047519E+02  0.11786362481E+03  0.36402509398E+03  0.41391168270E+03  0.12509000000E+03 0.  0.
         25    1    1    2    0    0 -0.84500281486E+02 -0.11757900607E+02  0.82043786579E+02  0.17221276612E+03  0.12509000000E+03 0.  0.
<mgrwt>
<rscale>  2 0.61394816E+03</rscale>
<asrwt>0</asrwt>
<pdfrwt beam="1">  1       21 0.87046835E-01 0.61394816E+03</pdfrwt>
<pdfrwt beam="2">  1       21 0.23411681E-01 0.61394816E+03</pdfrwt>
<totfact> 0.16887223E+04</totfact>
</mgrwt>
</event>
<event>
 6    0  0.1357312E-003  0.5979724E+03  0.7546771E-02  0.9909622E-01
         21   -1    0    0  502  501  0.00000000000E+00  0.00000000000E+00  0.44099163426E+03  0.44099163426E+03  0.00000000000E+00 0.  1.
         21   -1    0    0  501  502 -0.00000000000E+00 -0.00000000000E+00 -0.20270852049E+03  0.20270852049E+03  0.00000000000E+00 0.  1.
      99926    2    1    2    0    0 -0.48242353636E+02  0.50325479873E+01  0.14014874775E+03  0.47747586916E+03  0.45385998162E+03 0.  0.
         25    1    3    3    0    0 -0.10157108981E+03 -0.94942937540E+02 -0.77164579623E+02  0.20231838306E+03  0.12509000000E+03 0.  0.
         25    1    3    3    0    0  0.53328736175E+02  0.99975485527E+02  0.21731332737E+03  0.27515748611E+03  0.12509000000E+03 0.  0.
         25    1    1    2    0    0  0.48242353636E+02 -0.50325479873E+01  0.98134366026E+02  0.16622428559E+03  0.12509000000E+03 0.  0.
<mgrwt>
<rscale>  2 0.59797245E+03</rscale>
<asrwt>0</asrwt>
<pdfrwt beam="1">  1       21 0.64851711E-01 0.59797245E+03</pdfrwt>
<pdfrwt beam="2">  1       21 0.29810077E-01 0.59797245E+03</pdfrwt>
<totfact> 0.20706318E+04</totfact>
</mgrwt>
</event>
<event>
 6    0  0.1357312E-003  0.9346128E+03  0.7546771E-02  0.9383319E-01
         21   -1    0    0  502  501  0.00000000000E+00  0.00000000000E+00  0.17817554657E+03  0.17817554657E+03  0.00000000000E+00 0.  1.
         21   -1    0    0  501  502 -0.00000000000E+00 -0.00000000000E+00 -0.12256185236E+04  0.12256185236E+04  0.00000000000E+00 0.  1.
      99926    2    1    2    0    0 -0.21512208285E+03 -0.22245940958E+03 -0.86362066896E+03  0.10227378427E+04  0.45209107008E+03 0.  0.
         25    1    3    3    0    0  0.62027750044E+02 -0.19826384401E+03 -0.36480537431E+03  0.43804847088E+03  0.12509000000E+03 0.  0.
         25    1    3    3    0    0 -0.27714983290E+03 -0.24195565571E+02 -0.49881529466E+03  0.58468937185E+03  0.12509000000E+03 0.  0.
         25    1    1    2    0    0  0.21512208285E+03  0.22245940958E+03 -0.18382230810E+03  0.38105622747E+03  0.12509000000E+03 0.  0.
<mgrwt>
<rscale>  2 0.93461275E+03</rscale>
<asrwt>0</asrwt>
<pdfrwt beam="1">  1       21 0.26202285E-01 0.93461275E+03</pdfrwt>
<pdfrwt beam="2">  1       21 0.18023803E+00 0.93461275E+03</pdfrwt>
<totfact> 0.18722441E+03</totfact>
</mgrwt>
</event>
<event>
 6    0  0.1357312E-003  0.6984334E+03  0.7546771E-02  0.9719915E-01
         21   -1    0    0  502  501  0.00000000000E+00  0.00000000000E+00  0.38279797874E+02  0.38279797874E+02  0.00000000000E+00 0. -1.
         21   -1    0    0  501  502 -0.00000000000E+00 -0.00000000000E+00 -0.31858141292E+04  0.31858141292E+04  0.00000000000E+00 0. -1.
      99926    2    1    2    0    0 -0.12315593978E+03 -0.87539353444E+02 -0.17929018331E+04  0.18553327218E+04  0.45269415866E+03 0.  0.
         25    1    1    2    0    0  0.12315593978E+03  0.87539353444E+02 -0.13546324982E+04  0.13687612053E+04  0.12509000000E+03 0.  0.
         25    1    3    3    0    0 -0.56262670565E+02 -0.10962016823E+03 -0.16248512163E+04  0.16343105740E+04  0.12509000000E+03 0.  0.
         25    1    3    3    0    0 -0.66893269218E+02  0.22080814787E+02 -0.16805061689E+03  0.22102214773E+03  0.12509000000E+03 0.  0.
<mgrwt>
<rscale>  2 0.69843345E+03</rscale>
<asrwt>0</asrwt>
<pdfrwt beam="1">  1       21 0.56293845E-02 0.69843345E+03</pdfrwt>
<pdfrwt beam="2">  1       21 0.46850187E+00 0.69843345E+03</pdfrwt>
<totfact> 0.46908350E+02</totfact>
</mgrwt>
</event>
<event>
 6    0  0.1357312E-003  0.6510192E+03  0.7546771E-02  0.9804869E-01
         21   -1    0    0  502  501  0.00000000000E+00  0.00000000000E+00  0.11331408311E+04  0.11331408311E+04  0.00000000000E+00 0. -1.
         21   -1    0    0  501  502 -0.00000000000E+00 -0.00000000000E+00 -0.93506917396E+02  0.93506917396E+02  0.00000000000E+00 0. -1.
      99926    2    1    2    0    0 -0.42487365733E+02  0.90273484472E+02  0.89303038335E+03  0.10096348884E+04  0.46033125466E+03 0.  0.
         25    1    3    3    0    0 -0.16652084868E+03  0.11955160753E+03  0.72761199369E+03  0.76621700670E+03  0.12509000000E+03 0.  0.
         25    1    1    2    0    0  0.42487365733E+02 -0.90273484472E+02  0.14660353038E+03  0.21701286014E+03  0.12509000000E+03 0.  0.
         25    1    3    3    0    0  0.12403348295E+03 -0.29278123059E+02  0.16541838967E+03  0.24341788168E+03  0.12509000000E+03 0.  0.
<mgrwt>
<rscale>  2 0.65101922E+03</rscale>
<asrwt>0</asrwt>
<pdfrwt beam="1">  1       21 0.16663835E+00 0.65101922E+03</pdfrwt>
<pdfrwt beam="2">  1       21 0.13751018E-01 0.65101922E+03</pdfrwt>
<totfact> 0.85947776E+03</totfact>
</mgrwt>
</event>
<event>
 6    0  0.1357312E-003  0.1286060E+04  0.7546771E-02  0.9040693E-01
         21   -1    0    0  502  501  0.00000000000E+00  0.00000000000E+00  0.35320666182E+03  0.35320666182E+03  0.00000000000E+00 0.  1.
         21   -1    0    0  501  502 -0.00000000000E+00 -0.00000000000E+00 -0.11706679441E+04  0.11706679441E+04  0.00000000000E+00 0.  1.
      99926    2    1    2    0    0  0.37708314275E+03  0.31849964779E+03 -0.75643893542E+03  0.10110345167E+04  0.45426557068E+03 0.  0.
         25    1    1    2    0    0 -0.37708314275E+03 -0.31849964779E+03 -0.61022346817E+02  0.51284008921E+03  0.12509000000E+03 0.  0.
         25    1    3    3    0    0  0.30588126685E+03  0.19683266331E+02 -0.45610951995E+03  0.56359043877E+03  0.12509000000E+03 0.  0.
         25    1    3    3    0    0  0.71201875898E+02  0.29881638145E+03 -0.30032941548E+03  0.44744407791E+03  0.12509000000E+03 0.  0.
<mgrwt>
<rscale>  2 0.12860602E+04</rscale>
<asrwt>0</asrwt>
<pdfrwt beam="1">  1       21 0.51942157E-01 0.12860602E+04</pdfrwt>
<pdfrwt beam="2">  1       21 0.17215705E+00 0.12860602E+04</pdfrwt>
<totfact> 0.48835485E+02</totfact>
</mgrwt>
</event>
<event>
 6    0  0.1357312E-003  0.6925899E+03  0.7546771E-02  0.9729989E-01
         21   -1    0    0  502  501  0.00000000000E+00  0.00000000000E+00  0.46410562362E+03  0.46410562362E+03  0.00000000000E+00 0. -1.
         21   -1    0    0  501  502 -0.00000000000E+00 -0.00000000000E+00 -0.25838987276E+03  0.25838987276E+03  0.00000000000E+00 0. -1.
      99926    2    1    2    0    0  0.31217949807E+02  0.88861756032E+02  0.29573182846E+03  0.54188161430E+03  0.44419297324E+03 0.  0.
         25    1    3    3    0    0  0.66815360251E+01 -0.13874562566E+03  0.16837825367E+03  0.25158246356E+03  0.12509000000E+03 0.  0.
         25    1    3    3    0    0  0.24536413782E+02  0.22760738170E+03  0.12735357479E+03  0.29029915073E+03  0.12509000000E+03 0.  0.
         25    1    1    2    0    0 -0.31217949807E+02 -0.88861756032E+02 -0.90016077603E+02  0.18061388209E+03  0.12509000000E+03 0.  0.
<mgrwt>
<rscale>  2 0.69258990E+03</rscale>
<asrwt>0</asrwt>
<pdfrwt beam="1">  1       21 0.68250828E-01 0.69258990E+03</pdfrwt>
<pdfrwt beam="2">  1       21 0.37998510E-01 0.69258990E+03</pdfrwt>
<totfact> 0.11081565E+04</totfact>
</mgrwt>
</event>
<event>
 6    0  0.1357312E-003  0.6751205E+03  0.7546771E-02  0.9760752E-01
         21   -1    0    0  502  501  0.00000000000E+00  0.00000000000E+00  0.75550942649E+03  0.75550942649E+03  0.00000000000E+00 0. -1.
         21   -1    0    0  501  502 -0.00000000000E+00 -0.00000000000E+00 -0.15082130853E+03  0.15082130853E+03  0.00000000000E+00 0. -1.
      99926    2    1    2    0    0 -0.87254606519E+02  0.44463740957E+02  0.27894386485E+03  0.54391216879E+03  0.45655270999E+03 0.  0.
         25    1    3    3    0    0  0.28961033112E+02  0.13268789225E+03  0.29822519362E+03  0.35075717013E+03  0.12509000000E+03 0.  0.
         25    1    3    3    0    0 -0.11621563963E+03 -0.88224151296E+02 -0.19281328772E+02  0.19315499866E+03  0.12509000000E+03 0.  0.
         25    1    1    2    0    0  0.87254606519E+02 -0.44463740957E+02  0.32574425310E+03  0.36241856623E+03  0.12509000000E+03 0.  0.
<mgrwt>
<rscale>  2 0.67512049E+03</rscale>
<asrwt>0</asrwt>
<pdfrwt beam="1">  1       21 0.11110433E+00 0.67512049E+03</pdfrwt>
<pdfrwt beam="2">  1       21 0.22179604E-01 0.67512049E+03</pdfrwt>
<totfact> 0.10211307E+04</totfact>
</mgrwt>
</event>
<event>
 6    0  0.1357312E-003  0.7307553E+03  0.7546771E-02  0.9666036E-01
         21   -1    0    0  502  501  0.00000000000E+00  0.00000000000E+00  0.15202887935E+03  0.15202887935E+03  0.00000000000E+00 0.  1.
         21   -1    0    0  501  502 -0.00000000000E+00 -0.00000000000E+00 -0.87812810291E+03  0.87812810291E+03  0.00000000000E+00 0.  1.
      99926    2    1    2    0    0 -0.11001784091E+03  0.18529561437E+02 -0.75156218811E+03  0.86061896107E+03  0.40419302763E+03 0.  0.
         25    1    3    3    0    0 -0.60075364292E+02 -0.10977676857E+03 -0.58414087292E+03  0.61035076458E+03  0.12509000000E+03 0.  0.
         25    1    1    2    0    0  0.11001784091E+03 -0.18529561437E+02  0.25462964549E+02  0.16953802119E+03  0.12509000000E+03 0.  0.
         25    1    3    3    0    0 -0.49942476622E+02  0.12830633001E+03 -0.16742131520E+03  0.25026819649E+03  0.12509000000E+03 0.  0.
<mgrwt>
<rscale>  2 0.73075531E+03</rscale>
<asrwt>0</asrwt>
<pdfrwt beam="1">  1       21 0.22357189E-01 0.73075531E+03</pdfrwt>
<pdfrwt beam="2">  1       21 0.12913648E+00 0.73075531E+03</pdfrwt>
<totfact> 0.67566539E+03</totfact>
</mgrwt>
</event>
<event>
 6    0  0.1357312E-003  0.6503057E+03  0.7546771E-02  0.9806206E-01
         21   -1    0    0  502  501  0.00000000000E+00  0.00000000000E+00  0.11684286314E+04  0.11684286314E+04  0.00000000000E+00 0.  1.
         21   -1    0    0  501  502 -0.00000000000E+00 -0.00000000000E+00 -0.90484248018E+02  0.90484248018E+02  0.00000000000E+00 0.  1.
      99926    2    1    2    0    0 -0.40507748051E+02 -0.83215386897E+02  0.63447183069E+03  0.78893299543E+03  0.45966845558E+03 0.  0.
         25    1    3    3    0    0 -0.10253026785E+02  0.63351346639E+02  0.17275071051E+02  0.14164905174E+03  0.12509000000E+03 0.  0.
         25    1    1    2    0    0  0.40507748051E+02  0.83215386897E+02  0.44347255266E+03  0.46997988396E+03  0.12509000000E+03 0.  0.
         25    1    3    3    0    0 -0.30254721266E+02 -0.14656673354E+03  0.61719675964E+03  0.64728394368E+03  0.12509000000E+03 0.  0.
<mgrwt>
<rscale>  2 0.65030573E+03</rscale>
<asrwt>0</asrwt>
<pdfrwt beam="1">  1       21 0.17182773E+00 0.65030573E+03</pdfrwt>
<pdfrwt beam="2">  1       21 0.13306508E-01 0.65030573E+03</pdfrwt>
<totfact> 0.83637931E+03</totfact>
</mgrwt>
</event>
<event>
 6    0  0.1357312E-003  0.6099022E+03  0.7546771E-02  0.9885072E-01
         21   -1    0    0  502  501  0.00000000000E+00  0.00000000000E+00  0.93195438233E+02  0.93195438233E+02  0.00000000000E+00 0.  1.
         21   -1    0    0  501  502 -0.00000000000E+00 -0.00000000000E+00 -0.99785114817E+03  0.99785114817E+03  0.00000000000E+00 0.  1.
      99926    2    1    2    0    0  0.47933909457E+02 -0.15294062137E+03 -0.63654235254E+03  0.75456363906E+03  0.37214462977E+03 0.  0.
         25    1    3    3    0    0 -0.21871737487E+02 -0.11050693009E+03 -0.56379869389E+03  0.58839326121E+03  0.12509000000E+03 0.  0.
         25    1    3    3    0    0  0.69805646944E+02 -0.42433691281E+02 -0.72743658644E+02  0.16617037785E+03  0.12509000000E+03 0.  0.
         25    1    1    2    0    0 -0.47933909457E+02  0.15294062137E+03 -0.26811335739E+03  0.33648294734E+03  0.12509000000E+03 0.  0.
<mgrwt>
<rscale>  2 0.60990221E+03</rscale>
<asrwt>0</asrwt>
<pdfrwt beam="1">  1       21 0.13705210E-01 0.60990221E+03</pdfrwt>
<pdfrwt beam="2">  1       21 0.14674283E+00 0.60990221E+03</pdfrwt>
<totfact> 0.12448670E+04</totfact>
</mgrwt>
</event>
<event>
 6    0  0.1357312E-003  0.1196841E+04  0.7546771E-02  0.9115626E-01
         21   -1    0    0  502  501  0.00000000000E+00  0.00000000000E+00  0.12471777965E+04  0.12471777965E+04  0.00000000000E+00 0.  1.
         21   -1    0    0  501  502 -0.00000000000E+00 -0.00000000000E+00 -0.28713402749E+03  0.28713402749E+03  0.00000000000E+00 0.  1.
      99926    2    1    2    0    0 -0.23017168550E+03  0.34050544255E+03  0.93421849814E+03  0.11039196611E+04  0.42065598130E+03 0.  0.
         25    1    3    3    0    0 -0.27581788825E+03  0.17741120803E+03  0.73289610341E+03  0.81260965457E+03  0.12509000000E+03 0.  0.
         25    1    3    3    0    0  0.45646202755E+02  0.16309423452E+03  0.20132239473E+03  0.29131000649E+03  0.12509000000E+03 0.  0.
         25    1    1    2    0    0  0.23017168550E+03 -0.34050544255E+03  0.25825270883E+02  0.43039216295E+03  0.12509000000E+03 0.  0.
<mgrwt>
<rscale>  2 0.11968411E+04</rscale>
<asrwt>0</asrwt>
<pdfrwt beam="1">  1       21 0.18340850E+00 0.11968411E+04</pdfrwt>
<pdfrwt beam="2">  1       21 0.42225593E-01 0.11968411E+04</pdfrwt>
<totfact> 0.63888902E+02</totfact>
</mgrwt>
</event>
<event>
 6    0  0.1357312E-003  0.6187288E+03  0.7546771E-02  0.9867294E-01
         21   -1    0    0  502  501  0.00000000000E+00  0.00000000000E+00  0.27666949888E+03  0.27666949888E+03  0.00000000000E+00 0. -1.
         21   -1    0    0  501  502 -0.00000000000E+00 -0.00000000000E+00 -0.34592297134E+03  0.34592297134E+03  0.00000000000E+00 0. -1.
      99926    2    1    2    0    0  0.61989680817E+02 -0.14724697585E+01 -0.12026612804E+03  0.47394965060E+03  0.45422399876E+03 0.  0.
         25    1    1    2    0    0 -0.61989680817E+02  0.14724697585E+01  0.51012655584E+02  0.14864281962E+03  0.12509000000E+03 0.  0.
         25    1    3    3    0    0 -0.11526004941E+03  0.91486217349E+01  0.70990384884E+02  0.18454191696E+03  0.12509000000E+03 0.  0.
         25    1    3    3    0    0  0.17724973023E+03 -0.10621091493E+02 -0.19125651292E+03  0.28940773363E+03  0.12509000000E+03 0.  0.
<mgrwt>
<rscale>  2 0.61872881E+03</rscale>
<asrwt>0</asrwt>
<pdfrwt beam="1">  1       21 0.40686691E-01 0.61872881E+03</pdfrwt>
<pdfrwt beam="2">  1       21 0.50871025E-01 0.61872881E+03</pdfrwt>
<totfact> 0.18633644E+04</totfact>
</mgrwt>
</event>
<event>
 6    0  0.1357312E-003  0.5875265E+03  0.7546771E-02  0.9931628E-01
         21   -1    0    0  502  501  0.00000000000E+00  0.00000000000E+00  0.36256918703E+03  0.36256918703E+03  0.00000000000E+00 0. -1.
         21   -1    0    0  501  502 -0.00000000000E+00 -0.00000000000E+00 -0.23801486354E+03  0.23801486354E+03  0.00000000000E+00 0. -1.
      99926    2    1    2    0    0 -0.23997269609E+02 -0.34354593975E+02  0.83802921681E+02  0.46251054867E+03  0.45292049067E+03 0.  0.
         25    1    1    2    0    0  0.23997269609E+02  0.34354593975E+02  0.40751401811E+02  0.13807350189E+03  0.12509000000E+03 0.  0.
         25    1    3    3    0    0  0.31469670974E+02 -0.16998029503E+03 -0.60509485163E+02  0.22179392865E+03  0.12509000000E+03 0.  0.
         25    1    3    3    0    0 -0.55466940583E+02  0.13562570106E+03  0.14431240684E+03  0.24071662002E+03  0.12509000000E+03 0.  0.
<mgrwt>
<rscale>  2 0.58752653E+03</rscale>
<asrwt>0</asrwt>
<pdfrwt beam="1">  1       21 0.53318998E-01 0.58752653E+03</pdfrwt>
<pdfrwt beam="2">  1       21 0.35002186E-01 0.58752653E+03</pdfrwt>
<totfact> 0.23082433E+04</totfact>
</mgrwt>
</event>
<event>
 6    0  0.1357312E-003  0.8195915E+03  0.7546771E-02  0.9532084E-01
         21   -1    0    0  502  501  0.00000000000E+00  0.00000000000E+00  0.55168608403E+02  0.55168608403E+02  0.00000000000E+00 0. -1.
         21   -1    0    0  501  502 -0.00000000000E+00 -0.00000000000E+00 -0.30439873503E+04  0.30439873503E+04  0.00000000000E+00 0. -1.
      99926    2    1    2    0    0  0.14163438344E+03 -0.60135215415E+01 -0.27797336278E+04  0.28172684739E+04  0.43587400921E+03 0.  0.
         25    1    3    3    0    0 -0.11581491557E+03  0.94026154398E+01 -0.95041376547E+03  0.96562691426E+03  0.12509000000E+03 0.  0.
         25    1    3    3    0    0  0.25744929902E+03 -0.15416136981E+02 -0.18293198623E+04  0.18516415597E+04  0.12509000000E+03 0.  0.
         25    1    1    2    0    0 -0.14163438344E+03  0.60135215415E+01 -0.20908511413E+03  0.28188748476E+03  0.12509000000E+03 0.  0.
<mgrwt>
<rscale>  2 0.81959147E+03</rscale>
<asrwt>0</asrwt>
<pdfrwt beam="1">  1       21 0.81130279E-02 0.81959147E+03</pdfrwt>
<pdfrwt beam="2">  1       21 0.44764535E+00 0.81959147E+03</pdfrwt>
<totfact> 0.32731407E+02</totfact>
</mgrwt>
</event>
<event>
 6    0  0.1357312E-003  0.8397649E+03  0.7546771E-02  0.9504178E-01
         21   -1    0    0  502  501  0.00000000000E+00  0.00000000000E+00  0.30082988806E+03  0.30082988806E+03  0.00000000000E+00 0.  1.
         21   -1    0    0  501  502 -0.00000000000E+00 -0.00000000000E+00 -0.58604966690E+03  0.58604966690E+03  0.00000000000E+00 0.  1.
      99926    2    1    2    0    0  0.15002276827E+03 -0.14872451924E+03  0.12976894633E+02  0.50062241549E+03  0.45368335817E+03 0.  0.
         25    1    3    3    0    0  0.11393725580E+03 -0.25054894222E+03 -0.77625345825E+02  0.31213726647E+03  0.12509000000E+03 0.  0.
         25    1    1    2    0    0 -0.15002276827E+03  0.14872451924E+03 -0.29819667347E+03  0.38625713947E+03  0.12509000000E+03 0.  0.
         25    1    3    3    0    0  0.36085512466E+02  0.10182442298E+03  0.90602240458E+02  0.18848514902E+03  0.12509000000E+03 0.  0.
<mgrwt>
<rscale>  2 0.83976486E+03</rscale>
<asrwt>0</asrwt>
<pdfrwt beam="1">  1       21 0.44239689E-01 0.83976486E+03</pdfrwt>
<pdfrwt beam="2">  1       21 0.86183775E-01 0.83976486E+03</pdfrwt>
<totfact> 0.45729216E+03</totfact>
</mgrwt>
</event>
<event>
 6    0  0.1357312E-003  0.6099175E+03  0.7546771E-02  0.9885041E-01
         21   -1    0    0  502  501  0.00000000000E+00  0.00000000000E+00  0.75833942150E+03  0.75833942150E+03  0.00000000000E+00 0. -1.
         21   -1    0    0  501  502 -0.00000000000E+00 -0.00000000000E+00 -0.12263616372E+03  0.12263616372E+03  0.00000000000E+00 0. -1.
      99926    2    1    2    0    0 -0.75243823877E+02  0.21503238257E+02  0.54346790118E+03  0.70696727682E+03  0.44533285146E+03 0.  0.
         25    1    1    2    0    0  0.75243823877E+02 -0.21503238257E+02  0.92235356596E+02  0.17400830840E+03  0.12509000000E+03 0.  0.
         25    1    3    3    0    0 -0.12731043304E+03  0.13470399005E+03  0.13308513494E+03  0.26021581915E+03  0.12509000000E+03 0.  0.
         25    1    3    3    0    0  0.52066609163E+02 -0.11320075179E+03  0.41038276625E+03  0.44675145767E+03  0.12509000000E+03 0.  0.
<mgrwt>
<rscale>  2 0.60991749E+03</rscale>
<asrwt>0</asrwt>
<pdfrwt beam="1">  1       21 0.11152050E+00 0.60991749E+03</pdfrwt>
<pdfrwt beam="2">  1       21 0.18034730E-01 0.60991749E+03</pdfrwt>
<totfact> 0.15238802E+04</totfact>
</mgrwt>
</event>
<event>
 6    0  0.1357312E-003  0.6281282E+03  0.7546771E-02  0.9848708E-01
         21   -1    0    0  502  501  0.00000000000E+00  0.00000000000E+00  0.15444356332E+03  0.15444356332E+03  0.00000000000E+00 0. -1.
         21   -1    0    0  501  502 -0.00000000000E+00 -0.00000000000E+00 -0.63865567248E+03  0.63865567248E+03  0.00000000000E+00 0. -1.
      99926    2    1    2    0    0 -0.96567433949E+02 -0.20611958223E+02 -0.34706550912E+03  0.58284505600E+03  0.45771581747E+03 0.  0.
         25    1    1    2    0    0  0.96567433949E+02  0.20611958223E+02 -0.13714660004E+03  0.21025417980E+03  0.12509000000E+03 0.  0.
         25    1    3    3    0    0  0.79939897734E+02  0.12438482662E+03 -0.79195782495E+02  0.20924017876E+03  0.12509000000E+03 0.  0.
         25    1    3    3    0    0 -0.17650733168E+03 -0.14499678485E+03 -0.26786972662E+03  0.37360487723E+03  0.12509000000E+03 0.  0.
<mgrwt>
<rscale>  2 0.62812820E+03</rscale>
<asrwt>0</asrwt>
<pdfrwt beam="1">  1       21 0.22712289E-01 0.62812820E+03</pdfrwt>
<pdfrwt beam="2">  1       21 0.93919952E-01 0.62812820E+03</pdfrwt>
<totfact> 0.14895401E+04</totfact>
</mgrwt>
</event>
<event>
 6    0  0.1357312E-003  0.8202669E+03  0.7546771E-02  0.9531136E-01
         21   -1    0    0  502  501  0.00000000000E+00  0.00000000000E+00  0.14582687441E+03  0.14582687441E+03  0.00000000000E+00 0. -1.
         21   -1    0    0  501  502 -0.00000000000E+00 -0.00000000000E+00 -0.11534871873E+04  0.11534871873E+04  0.00000000000E+00 0. -1.
      99926    2    1    2    0    0  0.47936881310E+02 -0.12590197276E+03 -0.28785569196E+03  0.55640393811E+03  0.45670033021E+03 0.  0.
         25    1    3    3    0    0 -0.67493736221E+02 -0.17788068725E+03 -0.30160604383E+03  0.37790297313E+03  0.12509000000E+03 0.  0.
         25    1    3    3    0    0  0.11543061753E+03  0.51978714485E+02  0.13750351866E+02  0.17850096498E+03  0.12509000000E+03 0.  0.
         25    1    1    2    0    0 -0.47936881310E+02  0.12590197276E+03 -0.71980462093E+03  0.74291012360E+03  0.12509000000E+03 0.  0.
<mgrwt>
<rscale>  2 0.82026686E+03</rscale>
<asrwt>0</asrwt>
<pdfrwt beam="1">  1       21 0.21445129E-01 0.82026686E+03</pdfrwt>
<pdfrwt beam="2">  1       21 0.16963047E+00 0.82026686E+03</pdfrwt>
<totfact> 0.33918463E+03</totfact>
</mgrwt>
</event>
<event>
 6    0  0.1357312E-003  0.6093424E+03  0.7546771E-02  0.9886211E-01
         21   -1    0    0  502  501  0.00000000000E+00  0.00000000000E+00  0.16721939354E+03  0.16721939354E+03  0.00000000000E+00 0.  1.
         21   -1    0    0  501  502 -0.00000000000E+00 -0.00000000000E+00 -0.55510622974E+03  0.55510622974E+03  0.00000000000E+00 0.  1.
      99926    2    1    2    0    0  0.45971443209E+02  0.86813042798E+02 -0.29787776820E+03  0.53957163997E+03  0.43904044448E+03 0.  0.
         25    1    3    3    0    0 -0.46450655079E+02  0.19409008201E+03 -0.74565748068E+02  0.24705501852E+03  0.12509000000E+03 0.  0.
         25    1    3    3    0    0  0.92422098287E+02 -0.10727703921E+03 -0.22331202013E+03  0.29251662145E+03  0.12509000000E+03 0.  0.
         25    1    1    2    0    0 -0.45971443209E+02 -0.86813042798E+02 -0.90009068005E+02  0.18275398330E+03  0.12509000000E+03 0.  0.
<mgrwt>
<rscale>  2 0.60934236E+03</rscale>
<asrwt>0</asrwt>
<pdfrwt beam="1">  1       21 0.24591087E-01 0.60934236E+03</pdfrwt>
<pdfrwt beam="2">  1       21 0.81633269E-01 0.60934236E+03</pdfrwt>
<totfact> 0.17862912E+04</totfact>
</mgrwt>
</event>
<event>
 6    0  0.1357312E-003  0.1071849E+04  0.7546771E-02  0.9233073E-01
         21   -1    0    0  502  501  0.00000000000E+00  0.00000000000E+00  0.39717417043E+03  0.39717417043E+03  0.00000000000E+00 0. -1.
         21   -1    0    0  501  502 -0.00000000000E+00 -0.00000000000E+00 -0.72314581113E+03  0.72314581113E+03  0.00000000000E+00 0. -1.
      99926    2    1    2    0    0  0.17916622039E+03 -0.28785030360E+03  0.13611763208E+03  0.53369204502E+03  0.38902552274E+03 0.  0.
         25    1    3    3    0    0  0.20674181720E+03 -0.12774457420E+03 -0.22797985633E+02  0.27427743522E+03  0.12509000000E+03 0.  0.
         25    1    1    2    0    0 -0.17916622039E+03  0.28785030360E+03 -0.46208927278E+03  0.58662793654E+03  0.12509000000E+03 0.  0.
         25    1    3    3    0    0 -0.27575596815E+02 -0.16010572940E+03  0.15891561771E+03  0.25941460980E+03  0.12509000000E+03 0.  0.
<mgrwt>
<rscale>  2 0.10718486E+04</rscale>
<asrwt>0</asrwt>
<pdfrwt beam="1">  1       21 0.58407966E-01 0.10718486E+04</pdfrwt>
<pdfrwt beam="2">  1       21 0.10634497E+00 0.10718486E+04</pdfrwt>
<totfact> 0.14414082E+03</totfact>
</mgrwt>
</event>
<event>
 6    0  0.1357312E-003  0.5470669E+03  0.7546771E-02  0.1002175E+00
         21   -1    0    0  502  501  0.00000000000E+00  0.00000000000E+00  0.91473271563E+02  0.91473271563E+02  0.00000000000E+00 0.  1.
         21   -1    0    0  501  502 -0.00000000000E+00 -0.00000000000E+00 -0.81794998255E+03  0.81794998255E+03  0.00000000000E+00 0.  1.
      99926    2    1    2    0    0 -0.20556059266E+02 -0.35653550073E+02 -0.57398146632E+03  0.70793867666E+03  0.41234538803E+03 0.  0.
         25    1    3    3    0    0 -0.15533573695E+03  0.93357177908E+00 -0.42138489614E+03  0.46620038773E+03  0.12509000000E+03 0.  0.
         25    1    3    3    0    0  0.13477967768E+03 -0.36587121852E+02 -0.15259657018E+03  0.24173828892E+03  0.12509000000E+03 0.  0.
         25    1    1    2    0    0  0.20556059266E+02  0.35653550073E+02 -0.15249524468E+03  0.20148457746E+03  0.12509000000E+03 0.  0.
<mgrwt>
<rscale>  2 0.54706695E+03</rscale>
<asrwt>0</asrwt>
<pdfrwt beam="1">  1       21 0.13451952E-01 0.54706695E+03</pdfrwt>
<pdfrwt beam="2">  1       21 0.12028676E+00 0.54706695E+03</pdfrwt>
<totfact> 0.22075449E+04</totfact>
</mgrwt>
</event>
<event>
 6    0  0.1357312E-003  0.6774557E+03  0.7546771E-02  0.9756582E-01
         21   -1    0    0  502  501  0.00000000000E+00  0.00000000000E+00  0.68266773575E+03  0.68266773575E+03  0.00000000000E+00 0.  1.
         21   -1    0    0  501  502 -0.00000000000E+00 -0.00000000000E+00 -0.16807088402E+03  0.16807088402E+03  0.00000000000E+00 0.  1.
      99926    2    1    2    0    0  0.17223250929E+02  0.12096598595E+03  0.47783654883E+03  0.67205387476E+03  0.45650764840E+03 0.  0.
         25    1    1    2    0    0 -0.17223250929E+02 -0.12096598595E+03  0.36760302900E+02  0.17868474501E+03  0.12509000000E+03 0.  0.
         25    1    3    3    0    0  0.73508524448E+02 -0.88538040578E+02  0.35400315699E+03  0.39269355871E+03  0.12509000000E+03 0.  0.
         25    1    3    3    0    0 -0.56285273519E+02  0.20950402652E+03  0.12383339184E+03  0.27936031605E+03  0.12509000000E+03 0.  0.
<mgrwt>
<rscale>  2 0.67745574E+03</rscale>
<asrwt>0</asrwt>
<pdfrwt beam="1">  1       21 0.10039231E+00 0.67745574E+03</pdfrwt>
<pdfrwt beam="2">  1       21 0.24716307E-01 0.67745574E+03</pdfrwt>
<totfact> 0.10638215E+04</totfact>
</mgrwt>
</event>
<event>
 6    0  0.1357312E-003  0.7021965E+03  0.7546771E-02  0.9713483E-01
         21   -1    0    0  502  501  0.00000000000E+00  0.00000000000E+00  0.22980106785E+03  0.22980106785E+03  0.00000000000E+00 0.  1.
         21   -1    0    0  501  502 -0.00000000000E+00 -0.00000000000E+00 -0.53642041374E+03  0.53642041374E+03  0.00000000000E+00 0.  1.
      99926    2    1    2    0    0  0.28445496742E+02  0.13372600204E+02 -0.57532884330E+01  0.43887477646E+03  0.43770994547E+03 0.  0.
         25    1    1    2    0    0 -0.28445496742E+02 -0.13372600204E+02 -0.30086605746E+03  0.32734670512E+03  0.12509000000E+03 0.  0.
         25    1    3    3    0    0  0.17871742114E+03  0.76252431345E+02 -0.25749437365E+02  0.23251858320E+03  0.12509000000E+03 0.  0.
         25    1    3    3    0    0 -0.15027192440E+03 -0.62879831141E+02  0.19996148932E+02  0.20635619327E+03  0.12509000000E+03 0.  0.
<mgrwt>
<rscale>  2 0.70219651E+03</rscale>
<asrwt>0</asrwt>
<pdfrwt beam="1">  1       21 0.33794274E-01 0.70219651E+03</pdfrwt>
<pdfrwt beam="2">  1       21 0.78885355E-01 0.70219651E+03</pdfrwt>
<totfact> 0.10088071E+04</totfact>
</mgrwt>
</event>
<event>
 6    0  0.1357312E-003  0.6071679E+03  0.7546771E-02  0.9890646E-01
         21   -1    0    0  502  501  0.00000000000E+00  0.00000000000E+00  0.31257292830E+03  0.31257292830E+03  0.00000000000E+00 0.  1.
         21   -1    0    0  501  502 -0.00000000000E+00 -0.00000000000E+00 -0.29485348863E+03  0.29485348863E+03  0.00000000000E+00 0.  1.
      99926    2    1    2    0    0 -0.93338174165E+02  0.43258932390E+02  0.26476248394E+01  0.44476720972E+03  0.43269794422E+03 0.  0.
         25    1    1    2    0    0  0.93338174165E+02 -0.43258932390E+02  0.15071814826E+02  0.16265920721E+03  0.12509000000E+03 0.  0.
         25    1    3    3    0    0  0.87547197412E+02  0.66921414844E+02 -0.10679461745E+03  0.19797875127E+03  0.12509000000E+03 0.  0.
         25    1    3    3    0    0 -0.18088537158E+03 -0.23662482454E+02  0.10944224229E+03  0.24678845845E+03  0.12509000000E+03 0.  0.
<mgrwt>
<rscale>  2 0.60716791E+03</rscale>
<asrwt>0</asrwt>
<pdfrwt beam="1">  1       21 0.45966608E-01 0.60716791E+03</pdfrwt>
<pdfrwt beam="2">  1       21 0.43360807E-01 0.60716791E+03</pdfrwt>
<totfact> 0.20291918E+04</totfact>
</mgrwt>
</event>
<event>
 6    0  0.1357312E-003  0.5999130E+03  0.7546771E-02  0.9905587E-01
         21   -1    0    0  502  501  0.00000000000E+00  0.00000000000E+00  0.12130752264E+04  0.12130752264E+04  0.00000000000E+00 0. -1.
         21   -1    0    0  501  502 -0.00000000000E+00 -0.00000000000E+00 -0.74170094694E+02  0.74170094694E+02  0.00000000000E+00 0. -1.
      99926    2    1    2    0    0  0.49218328718E+02  0.47662710839E+02  0.93447513240E+03  0.10379797787E+04  0.44661400572E+03 0.  0.
         25    1    3    3    0    0  0.24135082527E+01 -0.29431941926E+02  0.85478350122E+03  0.86439250708E+03  0.12509000000E+03 0.  0.
         25    1    1    2    0    0 -0.49218328718E+02 -0.47662710839E+02  0.20442999926E+03  0.24926554231E+03  0.12509000000E+03 0.  0.
         25    1    3    3    0    0  0.46804820465E+02  0.77094652765E+02  0.79691631182E+02  0.17358727167E+03  0.12509000000E+03 0.  0.
<mgrwt>
<rscale>  2 0.59991301E+03</rscale>
<asrwt>0</asrwt>
<pdfrwt beam="1">  1       21 0.17839340E+00 0.59991301E+03</pdfrwt>
<pdfrwt beam="2">  1       21 0.10907368E-01 0.59991301E+03</pdfrwt>
<totfact> 0.10924919E+04</totfact>
</mgrwt>
</event>
<event>
 6    0  0.1357312E-003  0.6212287E+03  0.7546771E-02  0.9862316E-01
         21   -1    0    0  502  501  0.00000000000E+00  0.00000000000E+00  0.49144915174E+02  0.49144915174E+02  0.00000000000E+00 0. -1.
         21   -1    0    0  501  502 -0.00000000000E+00 -0.00000000000E+00 -0.19631995290E+04  0.19631995290E+04  0.00000000000E+00 0. -1.
      99926    2    1    2    0    0  0.12312984269E+03 -0.24485881218E+02 -0.14949197499E+04  0.15572817465E+04  0.41782874823E+03 0.  0.
         25    1    1    2    0    0 -0.12312984269E+03  0.24485881218E+02 -0.41913486391E+03  0.45506269764E+03  0.12509000000E+03 0.  0.
         25    1    3    3    0    0  0.10939185092E+03  0.12788019051E+03 -0.10457185432E+04  0.10665339656E+04  0.12509000000E+03 0.  0.
         25    1    3    3    0    0  0.13737991767E+02 -0.15236607173E+03 -0.44920120669E+03  0.49074778087E+03  0.12509000000E+03 0.  0.
<mgrwt>
<rscale>  2 0.62122870E+03</rscale>
<asrwt>0</asrwt>
<pdfrwt beam="1">  1       21 0.72271933E-02 0.62122870E+03</pdfrwt>
<pdfrwt beam="2">  1       21 0.28870582E+00 0.62122870E+03</pdfrwt>
<totfact> 0.44295328E+03</totfact>
</mgrwt>
</event>
<event>
 6    0  0.1357312E-003  0.5749433E+03  0.7546771E-02  0.9958799E-01
         21   -1    0    0  502  501  0.00000000000E+00  0.00000000000E+00  0.76683332325E+03  0.76683332325E+03  0.00000000000E+00 0.  1.
         21   -1    0    0  501  502 -0.00000000000E+00 -0.00000000000E+00 -0.10776779455E+03  0.10776779455E+03  0.00000000000E+00 0.  1.
      99926    2    1    2    0    0  0.40126138926E+02  0.60378112518E+02  0.47540241182E+03  0.64085922575E+03  0.42360060265E+03 0.  0.
         25    1    3    3    0    0  0.53129804762E+02 -0.12157793590E+03  0.10776923324E+03  0.21181521755E+03  0.12509000000E+03 0.  0.
         25    1    1    2    0    0 -0.40126138926E+02 -0.60378112518E+02  0.18366311688E+03  0.23374189205E+03  0.12509000000E+03 0.  0.
         25    1    3    3    0    0 -0.13003665836E+02  0.18195604842E+03  0.36763317858E+03  0.42904400820E+03  0.12509000000E+03 0.  0.
<mgrwt>
<rscale>  2 0.57494325E+03</rscale>
<asrwt>0</asrwt>
<pdfrwt beam="1">  1       21 0.11276960E+00 0.57494325E+03</pdfrwt>
<pdfrwt beam="2">  1       21 0.15848205E-01 0.57494325E+03</pdfrwt>
<totfact> 0.19044219E+04</totfact>
</mgrwt>
</event>
<event>
 5    0  0.1357312E-003  0.6956484E+03  0.7546771E-02  0.9724703E-01
         21   -1    0    0  502  501  0.00000000000E+00  0.00000000000E+00  0.12658515700E+04  0.12658515700E+04  0.00000000000E+00 0. -1.
         21   -1    0    0  501  502 -0.00000000000E+00 -0.00000000000E+00 -0.95573360369E+02  0.95573360369E+02  0.00000000000E+00 0. -1.
         25    1    1    2    0    0  0.18318235598E+03 -0.10853332448E+03  0.53660003809E+03  0.59069651010E+03  0.12509000000E+03 0.  0.
         25    1    1    2    0    0  0.48440854818E+02  0.41208975900E+02  0.35397193247E+03  0.38077333570E+03  0.12509000000E+03 0.  0.
         25    1    1    2    0    0 -0.23162321080E+03  0.67324348582E+02  0.27970623905E+03  0.38995508454E+03  0.12509000000E+03 0.  0.
<mgrwt>
<rscale>  2 0.69564844E+03</rscale>
<asrwt>0</asrwt>
<pdfrwt beam="1">  1       21 0.18615463E+00 0.69564844E+03</pdfrwt>
<pdfrwt beam="2">  1       21 0.14054907E-01 0.69564844E+03</pdfrwt>
<totfact> 0.58998823E+03</totfact>
</mgrwt>
</event>
<event>
 6    0  0.1357312E-003  0.6719242E+03  0.7546771E-02  0.9766488E-01
         21   -1    0    0  502  501  0.00000000000E+00  0.00000000000E+00  0.37715521685E+03  0.37715521685E+03  0.00000000000E+00 0. -1.
         21   -1    0    0  501  502 -0.00000000000E+00 -0.00000000000E+00 -0.29926815313E+03  0.29926815313E+03  0.00000000000E+00 0. -1.
      99926    2    1    2    0    0 -0.78210194391E+02 -0.10662176389E+03 -0.85514919251E+01  0.47491861310E+03  0.45605868703E+03 0.  0.
         25    1    3    3    0    0 -0.10951703157E+03 -0.11011560173E+03 -0.17432452761E+03  0.26486973209E+03  0.12509000000E+03 0.  0.
         25    1    1    2    0    0  0.78210194391E+02  0.10662176389E+03  0.86438555650E+02  0.20150475688E+03  0.12509000000E+03 0.  0.
         25    1    3    3    0    0  0.31306837179E+02  0.34938378375E+01  0.16577303569E+03  0.21004888102E+03  0.12509000000E+03 0.  0.
<mgrwt>
<rscale>  2 0.67192424E+03</rscale>
<asrwt>0</asrwt>
<pdfrwt beam="1">  1       21 0.55464003E-01 0.67192424E+03</pdfrwt>
<pdfrwt beam="2">  1       21 0.44010022E-01 0.67192424E+03</pdfrwt>
<totfact> 0.12984783E+04</totfact>
</mgrwt>
</event>
<event>
 6    0  0.1357312E-003  0.6923573E+03  0.7546771E-02  0.9730392E-01
         21   -1    0    0  502  501  0.00000000000E+00  0.00000000000E+00  0.28321957531E+03  0.28321957531E+03  0.00000000000E+00 0. -1.
         21   -1    0    0  501  502 -0.00000000000E+00 -0.00000000000E+00 -0.42313342389E+03  0.42313342389E+03  0.00000000000E+00 0. -1.
      99926    2    1    2    0    0  0.13587964118E+03 -0.69151140206E+02 -0.13511692220E+03  0.50908243455E+03  0.46654387298E+03 0.  0.
         25    1    1    2    0    0 -0.13587964118E+03  0.69151140206E+02 -0.47969263828E+01  0.19727056466E+03  0.12509000000E+03 0.  0.
         25    1    3    3    0    0 -0.11758635889E+03 -0.70084423447E+02  0.20259095865E+02  0.18653771005E+03  0.12509000000E+03 0.  0.
         25    1    3    3    0    0  0.25346600007E+03  0.93328324072E+00 -0.15537601806E+03  0.32254472449E+03  0.12509000000E+03 0.  0.
<mgrwt>
<rscale>  2 0.69235733E+03</rscale>
<asrwt>0</asrwt>
<pdfrwt beam="1">  1       21 0.41649938E-01 0.69235733E+03</pdfrwt>
<pdfrwt beam="2">  1       21 0.62225503E-01 0.69235733E+03</pdfrwt>
<totfact> 0.11270798E+04</totfact>
</mgrwt>
</event>
<event>
 6    0  0.1357312E-003  0.5982584E+03  0.7546771E-02  0.9909026E-01
         21   -1    0    0  502  501  0.00000000000E+00  0.00000000000E+00  0.66270866241E+03  0.66270866241E+03  0.00000000000E+00 0.  1.
         21   -1    0    0  501  502 -0.00000000000E+00 -0.00000000000E+00 -0.13501904143E+03  0.13501904143E+03  0.00000000000E+00 0.  1.
      99926    2    1    2    0    0  0.43439411719E+02  0.32679970701E+02  0.42525110603E+03  0.62715185437E+03  0.45774008158E+03 0.  0.
         25    1    3    3    0    0 -0.13371441673E+03  0.10294445483E+03  0.30237880665E+03  0.36818141837E+03  0.12509000000E+03 0.  0.
         25    1    1    2    0    0 -0.43439411719E+02 -0.32679970701E+02  0.10243851495E+03  0.17057584947E+03  0.12509000000E+03 0.  0.
         25    1    3    3    0    0  0.17715382845E+03 -0.70264484131E+02  0.12287229938E+03  0.25897043600E+03  0.12509000000E+03 0.  0.
<mgrwt>
<rscale>  2 0.59825843E+03</rscale>
<asrwt>0</asrwt>
<pdfrwt beam="1">  1       21 0.97457155E-01 0.59825843E+03</pdfrwt>
<pdfrwt beam="2">  1       21 0.19855742E-01 0.59825843E+03</pdfrwt>
<totfact> 0.17751571E+04</totfact>
</mgrwt>
</event>
<event>
 6    0  0.1357312E-003  0.6264447E+03  0.7546771E-02  0.9852011E-01
         21   -1    0    0  502  501  0.00000000000E+00  0.00000000000E+00  0.27991007115E+03  0.27991007115E+03  0.00000000000E+00 0. -1.
         21   -1    0    0  501  502 -0.00000000000E+00 -0.00000000000E+00 -0.35049912036E+03  0.35049912036E+03  0.00000000000E+00 0. -1.
      99926    2    1    2    0    0  0.51629951311E+02 -0.66111319833E+02 -0.11896010558E+03  0.47222061519E+03  0.44922649544E+03 0.  0.
         25    1    3    3    0    0 -0.77711274029E+00 -0.67531093194E+02  0.12746576450E+03  0.19093475763E+03  0.12509000000E+03 0.  0.
         25    1    3    3    0    0  0.52407064051E+02  0.14197733613E+01 -0.24642587008E+03  0.28128585756E+03  0.12509000000E+03 0.  0.
         25    1    1    2    0    0 -0.51629951311E+02  0.66111319833E+02  0.48371056374E+02  0.15818857632E+03  0.12509000000E+03 0.  0.
<mgrwt>
<rscale>  2 0.62644468E+03</rscale>
<asrwt>0</asrwt>
<pdfrwt beam="1">  1       21 0.41163246E-01 0.62644468E+03</pdfrwt>
<pdfrwt beam="2">  1       21 0.51543988E-01 0.62644468E+03</pdfrwt>
<totfact> 0.17655316E+04</totfact>
</mgrwt>
</event>
<event>
 6    0  0.1357312E-003  0.6415100E+03  0.7546771E-02  0.9822842E-01
         21   -1    0    0  502  501  0.00000000000E+00  0.00000000000E+00  0.20335659928E+03  0.20335659928E+03  0.00000000000E+00 0.  1.
         21   -1    0    0  501  502 -0.00000000000E+00 -0.00000000000E+00 -0.50592782905E+03  0.50592782905E+03  0.00000000000E+00 0.  1.
      99926    2    1    2    0    0 -0.89375135844E+02 -0.79819735084E+02 -0.31159104800E+03  0.53582558526E+03  0.41911928089E+03 0.  0.
         25    1    3    3    0    0 -0.26481483174E+02 -0.19384149068E+03 -0.87765281509E+02  0.24824593692E+03  0.12509000000E+03 0.  0.
         25    1    1    2    0    0  0.89375135844E+02  0.79819735084E+02  0.90198182343E+01  0.17345884306E+03  0.12509000000E+03 0.  0.
         25    1    3    3    0    0 -0.62893652670E+02  0.11402175560E+03 -0.22382576649E+03  0.28757964834E+03  0.12509000000E+03 0.  0.
<mgrwt>
<rscale>  2 0.64150998E+03</rscale>
<asrwt>0</asrwt>
<pdfrwt beam="1">  1       21 0.29905383E-01 0.64150998E+03</pdfrwt>
<pdfrwt beam="2">  1       21 0.74401150E-01 0.64150998E+03</pdfrwt>
<totfact> 0.14948231E+04</totfact>
</mgrwt>
</event>
<event>
 6    0  0.1357312E-003  0.6821806E+03  0.7546771E-02  0.9748200E-01
         21   -1    0    0  502  501  0.00000000000E+00  0.00000000000E+00  0.11045184026E+04  0.11045184026E+04  0.00000000000E+00 0. -1.
         21   -1    0    0  501  502 -0.00000000000E+00 -0.00000000000E+00 -0.10533333180E+03  0.10533333180E+03  0.00000000000E+00 0. -1.
      99926    2    1    2    0    0  0.14596567180E+03  0.33358840009E+02  0.68213690006E+03  0.83758054264E+03  0.46239769185E+03 0.  0.
         25    1    1    2    0    0 -0.14596567180E+03 -0.33358840009E+02  0.31704817078E+03  0.37227119180E+03  0.12509000000E+03 0.  0.
         25    1    3    3    0    0 -0.14997590754E+02  0.18744044709E+03  0.37814971837E+03  0.44045835959E+03  0.12509000000E+03 0.  0.
         25    1    3    3    0    0  0.16096326256E+03 -0.15408160708E+03  0.30398718170E+03  0.39712218305E+03  0.12509000000E+03 0.  0.
<mgrwt>
<rscale>  2 0.68218063E+03</rscale>
<asrwt>0</asrwt>
<pdfrwt beam="1">  1       21 0.16242917E+00 0.68218063E+03</pdfrwt>
<pdfrwt beam="2">  1       21 0.15490197E-01 0.68218063E+03</pdfrwt>
<totfact> 0.73519948E+03</totfact>
</mgrwt>
</event>
<event>
 6    0  0.1357312E-003  0.5723892E+03  0.7546771E-02  0.9964406E-01
         21   -1    0    0  502  501  0.00000000000E+00  0.00000000000E+00  0.23725386363E+03  0.23725386363E+03  0.00000000000E+00 0.  1.
         21   -1    0    0  501  502 -0.00000000000E+00 -0.00000000000E+00 -0.34523082694E+03  0.34523082694E+03  0.00000000000E+00 0.  1.
      99926    2    1    2    0    0 -0.16254908186E+02  0.98016283519E+01 -0.11120535210E+03  0.45592156579E+03  0.44174376041E+03 0.  0.
         25    1    1    2    0    0  0.16254908186E+02 -0.98016283519E+01  0.32283887873E+01  0.12656312477E+03  0.12509000000E+03 0.  0.
         25    1    3    3    0    0  0.13526221875E+03 -0.75629044300E+02  0.26977354592E+02  0.20097488879E+03  0.12509000000E+03 0.  0.
         25    1    3    3    0    0 -0.15151712694E+03  0.85430672652E+02 -0.13818270669E+03  0.25494667700E+03  0.12509000000E+03 0.  0.
<mgrwt>
<rscale>  2 0.57238919E+03</rscale>
<asrwt>0</asrwt>
<pdfrwt beam="1">  1       21 0.34890275E-01 0.57238919E+03</pdfrwt>
<pdfrwt beam="2">  1       21 0.50769238E-01 0.57238919E+03</pdfrwt>
<totfact> 0.25892465E+04</totfact>
</mgrwt>
</event>
<event>
 6    0  0.1357312E-003  0.6928290E+03  0.7546771E-02  0.9729575E-01
         21   -1    0    0  502  501  0.00000000000E+00  0.00000000000E+00  0.38984697611E+02  0.38984697611E+02  0.00000000000E+00 0. -1.
         21   -1    0    0  501  502 -0.00000000000E+00 -0.00000000000E+00 -0.30782081684E+04  0.30782081684E+04  0.00000000000E+00 0. -1.
      99926    2    1    2    0    0  0.50233147000E+02 -0.61409834383E+02 -0.15076502815E+04  0.15784731127E+04  0.46073143974E+03 0.  0.
         25    1    1    2    0    0 -0.50233147000E+02  0.61409834383E+02 -0.15315731893E+04  0.15387197533E+04  0.12509000000E+03 0.  0.
         25    1    3    3    0    0 -0.33433091946E+02 -0.19574813892E+03 -0.52116122537E+03  0.57156945025E+03  0.12509000000E+03 0.  0.
         25    1    3    3    0    0  0.83666238946E+02  0.13433830454E+03 -0.98648905612E+03  0.10069036625E+04  0.12509000000E+03 0.  0.
<mgrwt>
<rscale>  2 0.69282903E+03</rscale>
<asrwt>0</asrwt>
<pdfrwt beam="1">  1       21 0.57330427E-02 0.69282903E+03</pdfrwt>
<pdfrwt beam="2">  1       21 0.45267776E+00 0.69282903E+03</pdfrwt>
<totfact> 0.58549936E+02</totfact>
</mgrwt>
</event>
<event>
 6    0  0.1357312E-003  0.6500284E+03  0.7546771E-02  0.9806726E-01
         21   -1    0    0  502  501  0.00000000000E+00  0.00000000000E+00  0.12283948884E+03  0.12283948884E+03  0.00000000000E+00 0. -1.
         21   -1    0    0  501  502 -0.00000000000E+00 -0.00000000000E+00 -0.85993720245E+03  0.85993720245E+03  0.00000000000E+00 0. -1.
      99926    2    1    2    0    0  0.53088076848E+02 -0.88884432057E+02 -0.41042220635E+03  0.61797101521E+03  0.45024771183E+03 0.  0.
         25    1    3    3    0    0 -0.68369541358E+02  0.84900600880E+02 -0.31097525674E+03  0.35247074293E+03  0.12509000000E+03 0.  0.
         25    1    1    2    0    0 -0.53088076848E+02  0.88884432057E+02 -0.32667550726E+03  0.36480567609E+03  0.12509000000E+03 0.  0.
         25    1    3    3    0    0  0.12145761821E+03 -0.17378503294E+03 -0.99446949608E+02  0.26550027228E+03  0.12509000000E+03 0.  0.
<mgrwt>
<rscale>  2 0.65002845E+03</rscale>
<asrwt>0</asrwt>
<pdfrwt beam="1">  1       21 0.18064632E-01 0.65002845E+03</pdfrwt>
<pdfrwt beam="2">  1       21 0.12646135E+00 0.65002845E+03</pdfrwt>
<totfact> 0.10925785E+04</totfact>
</mgrwt>
</event>
<event>
 6    0  0.1357312E-003  0.6349487E+03  0.7546771E-02  0.9835439E-01
         21   -1    0    0  502  501  0.00000000000E+00  0.00000000000E+00  0.59838688625E+03  0.59838688625E+03  0.00000000000E+00 0.  1.
         21   -1    0    0  501  502 -0.00000000000E+00 -0.00000000000E+00 -0.16843611220E+03  0.16843611220E+03  0.00000000000E+00 0.  1.
      99926    2    1    2    0    0  0.58573417803E+01 -0.10954747116E+03  0.27306429597E+03  0.53814017882E+03  0.45055053594E+03 0.  0.
         25    1    3    3    0    0  0.13726859424E+03  0.75847153975E+02  0.85670594988E+02  0.21813394205E+03  0.12509000000E+03 0.  0.
         25    1    3    3    0    0 -0.13141125246E+03 -0.18539462514E+03  0.18739370098E+03  0.32000623677E+03  0.12509000000E+03 0.  0.
         25    1    1    2    0    0 -0.58573417803E+01  0.10954747116E+03  0.15688647808E+03  0.22868281963E+03  0.12509000000E+03 0.  0.
<mgrwt>
<rscale>  2 0.63494869E+03</rscale>
<asrwt>0</asrwt>
<pdfrwt beam="1">  1       21 0.87998070E-01 0.63494869E+03</pdfrwt>
<pdfrwt beam="2">  1       21 0.24770017E-01 0.63494869E+03</pdfrwt>
<totfact> 0.14682072E+04</totfact>
</mgrwt>
</event>
<event>
 6    0  0.1357312E-003  0.7181658E+03  0.7546771E-02  0.9686661E-01
         21   -1    0    0  502  501  0.00000000000E+00  0.00000000000E+00  0.70011722175E+03  0.70011722175E+03  0.00000000000E+00 0. -1.
         21   -1    0    0  501  502 -0.00000000000E+00 -0.00000000000E+00 -0.18416993502E+03  0.18416993502E+03  0.00000000000E+00 0. -1.
      99926    2    1    2    0    0 -0.35892714371E+02  0.15811801897E+03  0.22922726045E+03  0.53194431742E+03  0.45180750882E+03 0.  0.
         25    1    1    2    0    0  0.35892714371E+02 -0.15811801897E+03  0.28672002628E+03  0.35234283935E+03  0.12509000000E+03 0.  0.
         25    1    3    3    0    0  0.18849611629E+02  0.10818139403E+03 -0.84127948597E+02  0.18650346299E+03  0.12509000000E+03 0.  0.
         25    1    3    3    0    0 -0.54742326000E+02  0.49936624941E+02  0.31335520905E+03  0.34544085442E+03  0.12509000000E+03 0.  0.
<mgrwt>
<rscale>  2 0.71816584E+03</rscale>
<asrwt>0</asrwt>
<pdfrwt beam="1">  1       21 0.10295841E+00 0.71816584E+03</pdfrwt>
<pdfrwt beam="2">  1       21 0.27083814E-01 0.71816584E+03</pdfrwt>
<totfact> 0.82810996E+03</totfact>
</mgrwt>
</event>
<event>
 6    0  0.1357312E-003  0.6737099E+03  0.7546771E-02  0.9763279E-01
         21   -1    0    0  502  501  0.00000000000E+00  0.00000000000E+00  0.23385526909E+04  0.23385526909E+04  0.00000000000E+00 0.  1.
         21   -1    0    0  501  502 -0.00000000000E+00 -0.00000000000E+00 -0.48521996463E+02  0.48521996463E+02  0.00000000000E+00 0.  1.
      99926    2    1    2    0    0  0.54211509870E+02 -0.22295441390E+02  0.11673063505E+04  0.12558835297E+04  0.45956865629E+03 0.  0.
         25    1    1    2    0    0 -0.54211509870E+02  0.22295441390E+02  0.11227243440E+04  0.11311911577E+04  0.12509000000E+03 0.  0.
         25    1    3    3    0    0 -0.38554931818E+02  0.20417018435E+02  0.10448588916E+04  0.10532240735E+04  0.12509000000E+03 0.  0.
         25    1    3    3    0    0  0.92766441689E+02 -0.42712459825E+02  0.12244745883E+03  0.20265945623E+03  0.12509000000E+03 0.  0.
<mgrwt>
<rscale>  2 0.67370986E+03</rscale>
<asrwt>0</asrwt>
<pdfrwt beam="1">  1       21 0.34390473E+00 0.67370986E+03</pdfrwt>
<pdfrwt beam="2">  1       21 0.71355893E-02 0.67370986E+03</pdfrwt>
<totfact> 0.20415766E+03</totfact>
</mgrwt>
</event>
<event>
 6    0  0.1357312E-003  0.5943181E+03  0.7546771E-02  0.9917265E-01
         21   -1    0    0  502  501  0.00000000000E+00  0.00000000000E+00  0.66101960373E+03  0.66101960373E+03  0.00000000000E+00 0. -1.
         21   -1    0    0  501  502 -0.00000000000E+00 -0.00000000000E+00 -0.13358682873E+03  0.13358682873E+03  0.00000000000E+00 0. -1.
      99926    2    1    2    0    0 -0.25259383851E+02 -0.26254886001E+02  0.35881541713E+03  0.58151800718E+03  0.45616590578E+03 0.  0.
         25    1    1    2    0    0  0.25259383851E+02  0.26254886001E+02  0.16861735788E+03  0.21308842528E+03  0.12509000000E+03 0.  0.
         25    1    3    3    0    0 -0.16562132268E+03 -0.10246438076E+03  0.28142671445E+03  0.36438698599E+03  0.12509000000E+03 0.  0.
         25    1    3    3    0    0  0.14036193883E+03  0.76209494764E+02  0.77388702676E+02  0.21713102120E+03  0.12509000000E+03 0.  0.
<mgrwt>
<rscale>  2 0.59431814E+03</rscale>
<asrwt>0</asrwt>
<pdfrwt beam="1">  1       21 0.97208764E-01 0.59431814E+03</pdfrwt>
<pdfrwt beam="2">  1       21 0.19645122E-01 0.59431814E+03</pdfrwt>
<totfact> 0.18244473E+04</totfact>
</mgrwt>
</event>
<event>
 6    0  0.1357312E-003  0.6894402E+03  0.7546771E-02  0.9735463E-01
         21   -1    0    0  502  501  0.00000000000E+00  0.00000000000E+00  0.29993219886E+03  0.29993219886E+03  0.00000000000E+00 0.  1.
         21   -1    0    0  501  502 -0.00000000000E+00 -0.00000000000E+00 -0.39619602921E+03  0.39619602921E+03  0.00000000000E+00 0.  1.
      99926    2    1    2    0    0  0.97883697768E+01 -0.69724714021E+02 -0.21477764019E+03  0.50998210495E+03  0.45715967091E+03 0.  0.
         25    1    3    3    0    0  0.40269021479E+02 -0.14733569477E+03  0.51647652877E+02  0.20406956949E+03  0.12509000000E+03 0.  0.
         25    1    3    3    0    0 -0.30480651702E+02  0.77610980750E+02 -0.26642529307E+03  0.30591253545E+03  0.12509000000E+03 0.  0.
         25    1    1    2    0    0 -0.97883697768E+01  0.69724714021E+02  0.11851380985E+03  0.18614612312E+03  0.12509000000E+03 0.  0.
<mgrwt>
<rscale>  2 0.68944020E+03</rscale>
<asrwt>0</asrwt>
<pdfrwt beam="1">  1       21 0.44107677E-01 0.68944020E+03</pdfrwt>
<pdfrwt beam="2">  1       21 0.58264122E-01 0.68944020E+03</pdfrwt>
<totfact> 0.11565362E+04</totfact>
</mgrwt>
</event>
<event>
 6    0  0.1357312E-003  0.5931735E+03  0.7546771E-02  0.9919671E-01
         21   -1    0    0  502  501  0.00000000000E+00  0.00000000000E+00  0.13733141987E+03  0.13733141987E+03  0.00000000000E+00 0.  1.
         21   -1    0    0  501  502 -0.00000000000E+00 -0.00000000000E+00 -0.64052140507E+03  0.64052140507E+03  0.00000000000E+00 0.  1.
      99926    2    1    2    0    0 -0.56373540081E+02  0.11770699953E+03 -0.44906788307E+03  0.58914770101E+03  0.35832964744E+03 0.  0.
         25    1    3    3    0    0 -0.71677504110E+02  0.10917585712E+03 -0.42319251184E+03  0.46021347498E+03  0.12509000000E+03 0.  0.
         25    1    3    3    0    0  0.15303964029E+02  0.85311424125E+01 -0.25875371235E+02  0.12893422603E+03  0.12509000000E+03 0.  0.
         25    1    1    2    0    0  0.56373540081E+02 -0.11770699953E+03 -0.54122102135E+02  0.18870512393E+03  0.12509000000E+03 0.  0.
<mgrwt>
<rscale>  2 0.59317355E+03</rscale>
<asrwt>0</asrwt>
<pdfrwt beam="1">  1       21 0.20195798E-01 0.59317355E+03</pdfrwt>
<pdfrwt beam="2">  1       21 0.94194322E-01 0.59317355E+03</pdfrwt>
<totfact> 0.18678310E+04</totfact>
</mgrwt>
</event>
<event>
 6    0  0.1357312E-003  0.5927986E+03  0.7546771E-02  0.9920460E-01
         21   -1    0    0  502  501  0.00000000000E+00  0.00000000000E+00  0.14848643677E+03  0.14848643677E+03  0.00000000000E+00 0.  1.
         21   -1    0    0  501  502 -0.00000000000E+00 -0.00000000000E+00 -0.59165370911E+03  0.59165370911E+03  0.00000000000E+00 0.  1.
      99926    2    1    2    0    0 -0.35232421078E+02  0.11303586621E+02 -0.39805878744E+03  0.60211341631E+03  0.45024512577E+03 0.  0.
         25    1    3    3    0    0 -0.11167427136E+03 -0.31391279134E+02 -0.41479804844E+03  0.44851029462E+03  0.12509000000E+03 0.  0.
         25    1    3    3    0    0  0.76441850280E+02  0.42694865755E+02  0.16739260999E+02  0.15360312170E+03  0.12509000000E+03 0.  0.
         25    1    1    2    0    0  0.35232421078E+02 -0.11303586621E+02 -0.45108484893E+02  0.13802672957E+03  0.12509000000E+03 0.  0.
<mgrwt>
<rscale>  2 0.59279862E+03</rscale>
<asrwt>0</asrwt>
<pdfrwt beam="1">  1       21 0.21836240E-01 0.59279862E+03</pdfrwt>
<pdfrwt beam="2">  1       21 0.87007900E-01 0.59279862E+03</pdfrwt>
<totfact> 0.19429099E+04</totfact>
</mgrwt>
</event>
<event>
 6    0  0.1357312E-003  0.7524747E+03  0.7546771E-02  0.9631476E-01
         21   -1    0    0  502  501  0.00000000000E+00  0.00000000000E+00  0.35447864869E+03  0.35447864869E+03  0.00000000000E+00 0. -1.
         21   -1    0    0  501  502 -0.00000000000E+00 -0.00000000000E+00 -0.39933165566E+03  0.39933165566E+03  0.00000000000E+00 0. -1.
      99926    2    1    2    0    0 -0.15616978847E+03  0.12393747017E+03  0.44425420818E+02  0.50208099515E+03  0.45865260093E+03 0.  0.
         25    1    3    3    0    0 -0.15069553172E+02 -0.82792871135E+02 -0.10609729889E+03  0.18435264000E+03  0.12509000000E+03 0.  0.
         25    1    1    2    0    0  0.15616978847E+03 -0.12393747017E+03 -0.89278427789E+02  0.25172930920E+03  0.12509000000E+03 0.  0.
         25    1    3    3    0    0 -0.14110023530E+03  0.20673034130E+03  0.15052271971E+03  0.31772835515E+03  0.12509000000E+03 0.  0.
<mgrwt>
<rscale>  2 0.75247471E+03</rscale>
<asrwt>0</asrwt>
<pdfrwt beam="1">  1       21 0.52129213E-01 0.75247471E+03</pdfrwt>
<pdfrwt beam="2">  1       21 0.58725243E-01 0.75247471E+03</pdfrwt>
<totfact> 0.78660673E+03</totfact>
</mgrwt>
</event>
<event>
 6    0  0.1357312E-003  0.9256796E+03  0.7546771E-02  0.9394038E-01
         21   -1    0    0  502  501  0.00000000000E+00  0.00000000000E+00  0.63298863473E+03  0.63298863473E+03  0.00000000000E+00 0. -1.
         21   -1    0    0  501  502 -0.00000000000E+00 -0.00000000000E+00 -0.33842735222E+03  0.33842735222E+03  0.00000000000E+00 0. -1.
      99926    2    1    2    0    0  0.91771949782E+02 -0.32382313073E+03  0.18353154181E+03  0.59557210688E+03  0.45578371724E+03 0.  0.
         25    1    3    3    0    0  0.14966417308E+03 -0.22830325551E+03 -0.53706358174E+02  0.30504691801E+03  0.12509000000E+03 0.  0.
         25    1    3    3    0    0 -0.57892223300E+02 -0.95519875217E+02  0.23723789998E+03  0.29052518887E+03  0.12509000000E+03 0.  0.
         25    1    1    2    0    0 -0.91771949782E+02  0.32382313073E+03  0.11102974070E+03  0.37584388007E+03  0.12509000000E+03 0.  0.
<mgrwt>
<rscale>  2 0.92567957E+03</rscale>
<asrwt>0</asrwt>
<pdfrwt beam="1">  1       21 0.93086564E-01 0.92567957E+03</pdfrwt>
<pdfrwt beam="2">  1       21 0.49768728E-01 0.92567957E+03</pdfrwt>
<totfact> 0.29119947E+03</totfact>
</mgrwt>
</event>
<event>
 6    0  0.1357312E-003  0.7018756E+03  0.7546771E-02  0.9714030E-01
         21   -1    0    0  502  501  0.00000000000E+00  0.00000000000E+00  0.38680617147E+03  0.38680617147E+03  0.00000000000E+00 0. -1.
         21   -1    0    0  501  502 -0.00000000000E+00 -0.00000000000E+00 -0.31839550746E+03  0.31839550746E+03  0.00000000000E+00 0. -1.
      99926    2    1    2    0    0  0.58103236065E+02 -0.42905659459E+02 -0.11453440557E+03  0.47210665917E+03  0.45227169480E+03 0.  0.
         25    1    3    3    0    0 -0.11970874333E+03  0.85401980315E+02 -0.10435965542E+03  0.21945871423E+03  0.12509000000E+03 0.  0.
         25    1    1    2    0    0 -0.58103236065E+02  0.42905659459E+02  0.18294506957E+03  0.23309501976E+03  0.12509000000E+03 0.  0.
         25    1    3    3    0    0  0.17781197940E+03 -0.12830763977E+03 -0.10174750149E+02  0.25264794494E+03  0.12509000000E+03 0.  0.
<mgrwt>
<rscale>  2 0.70187562E+03</rscale>
<asrwt>0</asrwt>
<pdfrwt beam="1">  1       21 0.56883261E-01 0.70187562E+03</pdfrwt>
<pdfrwt beam="2">  1       21 0.46822868E-01 0.70187562E+03</pdfrwt>
<totfact> 0.10718505E+04</totfact>
</mgrwt>
</event>
<event>
 6    0  0.1357312E-003  0.5225093E+03  0.7546771E-02  0.1008065E+00
         21   -1    0    0  502  501  0.00000000000E+00  0.00000000000E+00  0.16026831412E+03  0.16026831412E+03  0.00000000000E+00 0.  1.
         21   -1    0    0  501  502 -0.00000000000E+00 -0.00000000000E+00 -0.42587333882E+03  0.42587333882E+03  0.00000000000E+00 0.  1.
      99926    2    1    2    0    0 -0.20711088017E+02 -0.54381025206E+02 -0.21545743592E+03  0.43934746427E+03  0.37844159734E+03 0.  0.
         25    1    1    2    0    0  0.20711088017E+02  0.54381025206E+02 -0.50147588783E+02  0.14679418868E+03  0.12509000000E+03 0.  0.
         25    1    3    3    0    0 -0.13693944546E+03 -0.66255465965E+02 -0.17499800003E+03  0.26346538028E+03  0.12509000000E+03 0.  0.
         25    1    3    3    0    0  0.11622835744E+03  0.11874440759E+02 -0.40459435889E+02  0.17588208399E+03  0.12509000000E+03 0.  0.
<mgrwt>
<rscale>  2 0.52250934E+03</rscale>
<asrwt>0</asrwt>
<pdfrwt beam="1">  1       21 0.23568870E-01 0.52250934E+03</pdfrwt>
<pdfrwt beam="2">  1       21 0.62628432E-01 0.52250934E+03</pdfrwt>
<totfact> 0.36059182E+04</totfact>
</mgrwt>
</event>
<event>
 6    0  0.1357312E-003  0.8806232E+03  0.7546771E-02  0.9450133E-01
         21   -1    0    0  502  501  0.00000000000E+00  0.00000000000E+00  0.20229784594E+03  0.20229784594E+03  0.00000000000E+00 0.  1.
         21   -1    0    0  501  502 -0.00000000000E+00 -0.00000000000E+00 -0.95836063610E+03  0.95836063610E+03  0.00000000000E+00 0.  1.
      99926    2    1    2    0    0  0.23132546403E+03 -0.20711147614E+03 -0.38145704394E+03  0.65828052964E+03  0.43751245179E+03 0.  0.
         25    1    3    3    0    0  0.73220614770E+02 -0.25615569535E+02  0.44067669982E+02  0.15364531710E+03  0.12509000000E+03 0.  0.
         25    1    3    3    0    0  0.15810484926E+03 -0.18149590660E+03 -0.42552471392E+03  0.50463521253E+03  0.12509000000E+03 0.  0.
         25    1    1    2    0    0 -0.23132546403E+03  0.20711147614E+03 -0.37460574623E+03  0.50237795241E+03  0.12509000000E+03 0.  0.
<mgrwt>
<rscale>  2 0.88062317E+03</rscale>
<asrwt>0</asrwt>
<pdfrwt beam="1">  1       21 0.29749683E-01 0.88062317E+03</pdfrwt>
<pdfrwt beam="2">  1       21 0.14093539E+00 0.88062317E+03</pdfrwt>
<totfact> 0.29575437E+03</totfact>
</mgrwt>
</event>
<event>
 6    0  0.1357312E-003  0.6998629E+03  0.7546771E-02  0.9717467E-01
         21   -1    0    0  502  501  0.00000000000E+00  0.00000000000E+00  0.75225982979E+02  0.75225982979E+02  0.00000000000E+00 0. -1.
         21   -1    0    0  501  502 -0.00000000000E+00 -0.00000000000E+00 -0.16277889809E+04  0.16277889809E+04  0.00000000000E+00 0. -1.
      99926    2    1    2    0    0 -0.57327862052E+02  0.33914684052E+01 -0.95976929627E+03  0.10944511902E+04  0.52284636350E+03 0.  0.
         25    1    1    2    0    0  0.57327862052E+02 -0.33914684052E+01 -0.59279370162E+03  0.60856377366E+03  0.12509000000E+03 0.  0.
         25    1    3    3    0    0  0.42779117143E+02  0.20230313554E+03 -0.28917403966E+03  0.37686303192E+03  0.12509000000E+03 0.  0.
         25    1    3    3    0    0 -0.10010697920E+03 -0.19891166714E+03 -0.67059525661E+03  0.71758815827E+03  0.12509000000E+03 0.  0.
<mgrwt>
<rscale>  2 0.69986292E+03</rscale>
<asrwt>0</asrwt>
<pdfrwt beam="1">  1       21 0.11062645E-01 0.69986292E+03</pdfrwt>
<pdfrwt beam="2">  1       21 0.23938073E+00 0.69986292E+03</pdfrwt>
<totfact> 0.40660797E+03</totfact>
</mgrwt>
</event>
<event>
 6    0  0.1357312E-003  0.6991688E+03  0.7546771E-02  0.9718655E-01
         21   -1    0    0  502  501  0.00000000000E+00  0.00000000000E+00  0.11634122829E+04  0.11634122829E+04  0.00000000000E+00 0.  1.
         21   -1    0    0  501  502 -0.00000000000E+00 -0.00000000000E+00 -0.10504380123E+03  0.10504380123E+03  0.00000000000E+00 0.  1.
      99926    2    1    2    0    0  0.66665622915E+02  0.91495676519E+02  0.50605088879E+03  0.69094591486E+03  0.45662127755E+03 0.  0.
         25    1    3    3    0    0  0.91623732662E+02  0.44627503558E+02  0.52906104963E+03  0.55311809299E+03  0.12509000000E+03 0.  0.
         25    1    3    3    0    0 -0.24958109746E+02  0.46868172961E+02 -0.23010160838E+02  0.13782782187E+03  0.12509000000E+03 0.  0.
         25    1    1    2    0    0 -0.66665622915E+02 -0.91495676519E+02  0.55231759290E+03  0.57751016928E+03  0.12509000000E+03 0.  0.
<mgrwt>
<rscale>  2 0.69916879E+03</rscale>
<asrwt>0</asrwt>
<pdfrwt beam="1">  1       21 0.17109003E+00 0.69916879E+03</pdfrwt>
<pdfrwt beam="2">  1       21 0.15447619E-01 0.69916879E+03</pdfrwt>
<totfact> 0.63424346E+03</totfact>
</mgrwt>
</event>
<event>
 6    0  0.1357312E-003  0.1103620E+04  0.7546771E-02  0.9201671E-01
         21   -1    0    0  502  501  0.00000000000E+00  0.00000000000E+00  0.42085666857E+03  0.42085666857E+03  0.00000000000E+00 0. -1.
         21   -1    0    0  501  502 -0.00000000000E+00 -0.00000000000E+00 -0.72351049702E+03  0.72351049702E+03  0.00000000000E+00 0. -1.
      99926    2    1    2    0    0  0.22042070124E+03 -0.29933564849E+03  0.10149293733E+03  0.58118936740E+03  0.43507832451E+03 0.  0.
         25    1    3    3    0    0  0.25418014810E+03 -0.21412836431E+03 -0.56762030656E+02  0.35962194082E+03  0.12509000000E+03 0.  0.
         25    1    1    2    0    0 -0.22042070124E+03  0.29933564849E+03 -0.40414676577E+03  0.56317779819E+03  0.12509000000E+03 0.  0.
         25    1    3    3    0    0 -0.33759446862E+02 -0.85207284182E+02  0.15825496799E+03  0.22156742658E+03  0.12509000000E+03 0.  0.
<mgrwt>
<rscale>  2 0.11036199E+04</rscale>
<asrwt>0</asrwt>
<pdfrwt beam="1">  1       21 0.61890688E-01 0.11036199E+04</pdfrwt>
<pdfrwt beam="2">  1       21 0.10639860E+00 0.11036199E+04</pdfrwt>
<totfact> 0.12588044E+03</totfact>
</mgrwt>
</event>
