<event>
 7    0  0.4685107E-002  0.4511147E+03  0.7546771E-02  0.1027390E+00
         21   -1    0    0  502  501  0.00000000000E+00  0.00000000000E+00  0.11341544059E+04  0.11341544059E+04  0.00000000000E+00 0.  1.
         21   -1    0    0  501  502 -0.00000000000E+00 -0.00000000000E+00 -0.44858203670E+02  0.44858203670E+02  0.00000000000E+00 0.  1.
      99926    2    1    2    0    0 -0.71054273576E-14  0.00000000000E+00  0.10892962022E+04  0.11790126096E+04  0.45111474963E+03 0.  0.
      99925    2    3    3    0    0 -0.57399894185E+02  0.72995994409E+02  0.83958725761E+03  0.88469096889E+03  0.26296042332E+03 0.  0.
         25    1    4    4    0    0 -0.43244440168E+02  0.31955947459E+02  0.30607893524E+03  0.33499714459E+03  0.12509000000E+03 0.  0.
         25    1    3    3    0    0  0.57399894185E+02 -0.72995994409E+02  0.24970894461E+03  0.29432164067E+03  0.12509000000E+03 0.  0.
         25    1    4    4    0    0 -0.14155454017E+02  0.41040046950E+02  0.53350832237E+03  0.54969382430E+03  0.12509000000E+03 0.  0.
<mgrwt>
<rscale>  2 0.45111475E+03</rscale>
<asrwt>0</asrwt>
<pdfrwt beam="1">  1       21 0.16678739E+00 0.45111475E+03</pdfrwt>
<pdfrwt beam="2">  1       21 0.65967954E-02 0.45111475E+03</pdfrwt>
<totfact> 0.33841211E+04</totfact>
</mgrwt>
</event>
<event>
 7    0  0.4685107E-002  0.4433019E+03  0.7546771E-02  0.1029739E+00
         21   -1    0    0  502  501  0.00000000000E+00  0.00000000000E+00  0.14786271320E+03  0.14786271320E+03  0.00000000000E+00 0. -1.
         21   -1    0    0  501  502 -0.00000000000E+00 -0.00000000000E+00 -0.33226183181E+03  0.33226183181E+03  0.00000000000E+00 0. -1.
      99926    2    1    2    0    0  0.14210854715E-13  0.00000000000E+00 -0.18439911861E+03  0.48012454502E+03  0.44330186531E+03 0.  0.
      99925    2    3    3    0    0  0.72554076616E+02 -0.65844287122E+02 -0.14776343453E+03  0.31706245369E+03  0.26285928322E+03 0.  0.
         25    1    3    3    0    0 -0.72554076616E+02  0.65844287122E+02 -0.36635684083E+02  0.16306209133E+03  0.12509000000E+03 0.  0.
         25    1    4    4    0    0  0.19290160460E+02 -0.54397101357E+02 -0.40752579082E+02  0.14366431613E+03  0.12509000000E+03 0.  0.
         25    1    4    4    0    0  0.53263916155E+02 -0.11447185765E+02 -0.10701085545E+03  0.17339813756E+03  0.12509000000E+03 0.  0.
<mgrwt>
<rscale>  2 0.44330187E+03</rscale>
<asrwt>0</asrwt>
<pdfrwt beam="1">  1       21 0.21744517E-01 0.44330187E+03</pdfrwt>
<pdfrwt beam="2">  1       21 0.48862033E-01 0.44330187E+03</pdfrwt>
<totfact> 0.73261755E+04</totfact>
</mgrwt>
</event>
<event>
 7    0  0.4685107E-002  0.4591369E+03  0.7546771E-02  0.1025032E+00
         21   -1    0    0  502  501  0.00000000000E+00  0.00000000000E+00  0.77183447438E+02  0.77183447438E+02  0.00000000000E+00 0.  1.
         21   -1    0    0  501  502 -0.00000000000E+00 -0.00000000000E+00 -0.68281053227E+03  0.68281053227E+03  0.00000000000E+00 0.  1.
      99926    2    1    2    0    0  0.71054273576E-14  0.00000000000E+00 -0.60562708483E+03  0.75999397971E+03  0.45913688951E+03 0.  0.
      99925    2    3    3    0    0 -0.50966385051E+02  0.58511713735E+02 -0.23405363444E+03  0.36032470370E+03  0.26273864438E+03 0.  0.
         25    1    4    4    0    0  0.14332178038E+02  0.18554192090E+02 -0.10593973591E+03  0.16559107801E+03  0.12509000000E+03 0.  0.
         25    1    3    3    0    0  0.50966385051E+02 -0.58511713735E+02 -0.37157345040E+03  0.39966927601E+03  0.12509000000E+03 0.  0.
         25    1    4    4    0    0 -0.65298563089E+02  0.39957521646E+02 -0.12811389852E+03  0.19473362568E+03  0.12509000000E+03 0.  0.
<mgrwt>
<rscale>  2 0.45913689E+03</rscale>
<asrwt>0</asrwt>
<pdfrwt beam="1">  1       21 0.11350508E-01 0.45913689E+03</pdfrwt>
<pdfrwt beam="2">  1       21 0.10041331E+00 0.45913689E+03</pdfrwt>
<totfact> 0.48176343E+04</totfact>
</mgrwt>
</event>
<event>
 7    0  0.4685107E-002  0.4151398E+03  0.7546771E-02  0.1038660E+00
         21   -1    0    0  502  501  0.00000000000E+00  0.00000000000E+00  0.46136464733E+02  0.46136464733E+02  0.00000000000E+00 0.  1.
         21   -1    0    0  501  502 -0.00000000000E+00 -0.00000000000E+00 -0.93386584174E+03  0.93386584174E+03  0.00000000000E+00 0.  1.
      99926    2    1    2    0    0  0.00000000000E+00  0.00000000000E+00 -0.88772937701E+03  0.98000230647E+03  0.41513982451E+03 0.  0.
      99925    2    3    3    0    0 -0.28757403458E+02 -0.49930446335E+02 -0.67362385687E+03  0.72542673895E+03  0.26297303154E+03 0.  0.
         25    1    4    4    0    0 -0.41342355255E+02 -0.37143872711E+02 -0.42551648131E+03  0.44699065045E+03  0.12509000000E+03 0.  0.
         25    1    3    3    0    0  0.28757403458E+02  0.49930446335E+02 -0.21410552014E+03  0.25457556752E+03  0.12509000000E+03 0.  0.
         25    1    4    4    0    0  0.12584951797E+02 -0.12786573624E+02 -0.24810737555E+03  0.27843608850E+03  0.12509000000E+03 0.  0.
<mgrwt>
<rscale>  2 0.41513982E+03</rscale>
<asrwt>0</asrwt>
<pdfrwt beam="1">  1       21 0.67847740E-02 0.41513982E+03</pdfrwt>
<pdfrwt beam="2">  1       21 0.13733322E+00 0.41513982E+03</pdfrwt>
<totfact> 0.55256735E+04</totfact>
</mgrwt>
</event>
<event>
 7    0  0.4685107E-002  0.4564238E+03  0.7546771E-02  0.1025824E+00
         21   -1    0    0  502  501  0.00000000000E+00  0.00000000000E+00  0.95890480298E+02  0.95890480298E+02  0.00000000000E+00 0.  1.
         21   -1    0    0  501  502 -0.00000000000E+00 -0.00000000000E+00 -0.54312665670E+03  0.54312665670E+03  0.00000000000E+00 0.  1.
      99926    2    1    2    0    0  0.00000000000E+00  0.00000000000E+00 -0.44723617640E+03  0.63901713700E+03  0.45642382047E+03 0.  0.
      99925    2    3    3    0    0 -0.32414169682E+02  0.89022097420E+02 -0.19105771444E+03  0.33859988600E+03  0.26300422112E+03 0.  0.
         25    1    3    3    0    0  0.32414169682E+02 -0.89022097420E+02 -0.25617846196E+03  0.30041725100E+03  0.12509000000E+03 0.  0.
         25    1    4    4    0    0 -0.58407562956E+01  0.60748562730E+02 -0.14174389544E+03  0.19865382529E+03  0.12509000000E+03 0.  0.
         25    1    4    4    0    0 -0.26573413386E+02  0.28273534690E+02 -0.49313818997E+02  0.13994606071E+03  0.12509000000E+03 0.  0.
<mgrwt>
<rscale>  2 0.45642382E+03</rscale>
<asrwt>0</asrwt>
<pdfrwt beam="1">  1       21 0.14101541E-01 0.45642382E+03</pdfrwt>
<pdfrwt beam="2">  1       21 0.79871567E-01 0.45642382E+03</pdfrwt>
<totfact> 0.55710050E+04</totfact>
</mgrwt>
</event>
<event>
 7    0  0.4685107E-002  0.4482487E+03  0.7546771E-02  0.1028246E+00
         21   -1    0    0  502  501  0.00000000000E+00  0.00000000000E+00  0.20119746698E+03  0.20119746698E+03  0.00000000000E+00 0. -1.
         21   -1    0    0  501  502 -0.00000000000E+00 -0.00000000000E+00 -0.24966380802E+03  0.24966380802E+03  0.00000000000E+00 0. -1.
      99926    2    1    2    0    0  0.00000000000E+00  0.00000000000E+00 -0.48466341034E+02  0.45086127500E+03  0.44824870672E+03 0.  0.
      99925    2    3    3    0    0 -0.94567437293E+02  0.41891031171E+01 -0.80313459451E+02  0.29079161568E+03  0.26296190447E+03 0.  0.
         25    1    4    4    0    0 -0.25646661448E+02  0.13083447027E+02 -0.35598044238E+01  0.12840992227E+03  0.12509000000E+03 0.  0.
         25    1    4    4    0    0 -0.68920775845E+02 -0.88943439098E+01 -0.76753655027E+02  0.16238169342E+03  0.12509000000E+03 0.  0.
         25    1    3    3    0    0  0.94567437293E+02 -0.41891031171E+01  0.31847118417E+02  0.16006965931E+03  0.12509000000E+03 0.  0.
<mgrwt>
<rscale>  2 0.44824871E+03</rscale>
<asrwt>0</asrwt>
<pdfrwt beam="1">  1       21 0.29587863E-01 0.44824871E+03</pdfrwt>
<pdfrwt beam="2">  1       21 0.36715266E-01 0.44824871E+03</pdfrwt>
<totfact> 0.72687117E+04</totfact>
</mgrwt>
</event>
<event>
 7    0  0.4685107E-002  0.4389323E+03  0.7546771E-02  0.1031075E+00
         21   -1    0    0  502  501  0.00000000000E+00  0.00000000000E+00  0.77922458279E+02  0.77922458279E+02  0.00000000000E+00 0.  1.
         21   -1    0    0  501  502 -0.00000000000E+00 -0.00000000000E+00 -0.61811957765E+03  0.61811957765E+03  0.00000000000E+00 0.  1.
      99926    2    1    2    0    0  0.17763568394E-14  0.00000000000E+00 -0.54019711937E+03  0.69604203593E+03  0.43893232736E+03 0.  0.
      99925    2    3    3    0    0  0.14368156133E+02  0.91001458156E+01 -0.49711081491E+03  0.56265090318E+03  0.26299737638E+03 0.  0.
         25    1    4    4    0    0 -0.18981070228E+02  0.28844946998E+02 -0.20638739642E+03  0.24379412933E+03  0.12509000000E+03 0.  0.
         25    1    3    3    0    0 -0.14368156133E+02 -0.91001458156E+01 -0.43086304466E+02  0.13339113275E+03  0.12509000000E+03 0.  0.
         25    1    4    4    0    0  0.33349226361E+02 -0.19744801182E+02 -0.29072341848E+03  0.31885677385E+03  0.12509000000E+03 0.  0.
<mgrwt>
<rscale>  2 0.43893233E+03</rscale>
<asrwt>0</asrwt>
<pdfrwt beam="1">  1       21 0.11459185E-01 0.43893233E+03</pdfrwt>
<pdfrwt beam="2">  1       21 0.90899940E-01 0.43893233E+03</pdfrwt>
<totfact> 0.60402015E+04</totfact>
</mgrwt>
</event>
<event>
 7    0  0.4685107E-002  0.4533264E+03  0.7546771E-02  0.1026735E+00
         21   -1    0    0  502  501  0.00000000000E+00  0.00000000000E+00  0.11055206210E+03  0.11055206210E+03  0.00000000000E+00 0. -1.
         21   -1    0    0  501  502 -0.00000000000E+00 -0.00000000000E+00 -0.46472416556E+03  0.46472416556E+03  0.00000000000E+00 0. -1.
      99926    2    1    2    0    0  0.00000000000E+00  0.71054273576E-14 -0.35417210346E+03  0.57527622766E+03  0.45332643784E+03 0.  0.
      99925    2    3    3    0    0  0.31185351848E+02  0.53587229417E+02 -0.34082628427E+03  0.43502739053E+03  0.26313904526E+03 0.  0.
         25    1    3    3    0    0 -0.31185351848E+02 -0.53587229417E+02 -0.13345819191E+02  0.14024883713E+03  0.12509000000E+03 0.  0.
         25    1    4    4    0    0  0.30337422847E+02  0.31851049999E+01 -0.21485561900E+03  0.25048143491E+03  0.12509000000E+03 0.  0.
         25    1    4    4    0    0  0.84792900112E+00  0.50402124417E+02 -0.12597066527E+03  0.18454595563E+03  0.12509000000E+03 0.  0.
<mgrwt>
<rscale>  2 0.45332644E+03</rscale>
<asrwt>0</asrwt>
<pdfrwt beam="1">  1       21 0.16257656E-01 0.45332644E+03</pdfrwt>
<pdfrwt beam="2">  1       21 0.68341788E-01 0.45332644E+03</pdfrwt>
<totfact> 0.61030055E+04</totfact>
</mgrwt>
</event>
<event>
 7    0  0.4685107E-002  0.4668624E+03  0.7546771E-02  0.1022810E+00
         21   -1    0    0  502  501  0.00000000000E+00  0.00000000000E+00  0.30511144822E+03  0.30511144822E+03  0.00000000000E+00 0. -1.
         21   -1    0    0  501  502 -0.00000000000E+00 -0.00000000000E+00 -0.17859092265E+03  0.17859092265E+03  0.00000000000E+00 0. -1.
      99926    2    1    2    0    0  0.00000000000E+00 -0.71054273576E-14  0.12652052557E+03  0.48370237087E+03  0.46686244247E+03 0.  0.
      99925    2    3    3    0    0  0.56504619589E+02 -0.56196830640E+02  0.17716971195E+03  0.32697424962E+03  0.26300607840E+03 0.  0.
         25    1    3    3    0    0 -0.56504619589E+02  0.56196830640E+02 -0.50649186376E+02  0.15672812125E+03  0.12509000000E+03 0.  0.
         25    1    4    4    0    0  0.39837296308E+02 -0.67675474776E+02  0.10413880079E+03  0.18071905819E+03  0.12509000000E+03 0.  0.
         25    1    4    4    0    0  0.16667323281E+02  0.11478644136E+02  0.73030911158E+02  0.14625519143E+03  0.12509000000E+03 0.  0.
<mgrwt>
<rscale>  2 0.46686244E+03</rscale>
<asrwt>0</asrwt>
<pdfrwt beam="1">  1       21 0.44869331E-01 0.46686244E+03</pdfrwt>
<pdfrwt beam="2">  1       21 0.26263371E-01 0.46686244E+03</pdfrwt>
<totfact> 0.60529185E+04</totfact>
</mgrwt>
</event>
<event>
 7    0  0.4685107E-002  0.4455836E+03  0.7546771E-02  0.1029047E+00
         21   -1    0    0  502  501  0.00000000000E+00  0.00000000000E+00  0.20919346872E+03  0.20919346872E+03  0.00000000000E+00 0. -1.
         21   -1    0    0  501  502 -0.00000000000E+00 -0.00000000000E+00 -0.23727405732E+03  0.23727405732E+03  0.00000000000E+00 0. -1.
      99926    2    1    2    0    0  0.35527136788E-14 -0.71054273576E-14 -0.28080588599E+02  0.44646752605E+03  0.44558358628E+03 0.  0.
      99925    2    3    3    0    0 -0.24484842428E+02  0.63752781174E+02  0.60810985847E+02  0.27849983653E+03  0.26305941977E+03 0.  0.
         25    1    4    4    0    0  0.24291518000E+02  0.19168034313E+02  0.14667978539E+02  0.12969251744E+03  0.12509000000E+03 0.  0.
         25    1    4    4    0    0 -0.48776360429E+02  0.44584746862E+02  0.46143007308E+02  0.14880731908E+03  0.12509000000E+03 0.  0.
         25    1    3    3    0    0  0.24484842428E+02 -0.63752781174E+02 -0.88891574446E+02  0.16796768952E+03  0.12509000000E+03 0.  0.
<mgrwt>
<rscale>  2 0.44558359E+03</rscale>
<asrwt>0</asrwt>
<pdfrwt beam="1">  1       21 0.30763745E-01 0.44558359E+03</pdfrwt>
<pdfrwt beam="2">  1       21 0.34893244E-01 0.44558359E+03</pdfrwt>
<totfact> 0.74626671E+04</totfact>
</mgrwt>
</event>
<event>
 7    0  0.4685107E-002  0.4300386E+03  0.7546771E-02  0.1033848E+00
         21   -1    0    0  502  501  0.00000000000E+00  0.00000000000E+00  0.89609918676E+03  0.89609918676E+03  0.00000000000E+00 0.  1.
         21   -1    0    0  501  502 -0.00000000000E+00 -0.00000000000E+00 -0.51593963483E+02  0.51593963483E+02  0.00000000000E+00 0.  1.
      99926    2    1    2    0    0  0.00000000000E+00  0.00000000000E+00  0.84450522328E+03  0.94769315025E+03  0.43003864347E+03 0.  0.
      99925    2    3    3    0    0 -0.19729865253E+02 -0.74361453053E+02  0.45217868624E+03  0.52878204625E+03  0.26310833295E+03 0.  0.
         25    1    3    3    0    0  0.19729865253E+02  0.74361453053E+02  0.39232653705E+03  0.41891110400E+03  0.12509000000E+03 0.  0.
         25    1    4    4    0    0 -0.12041949030E+02  0.39876454870E+01  0.22525048843E+03  0.25796550252E+03  0.12509000000E+03 0.  0.
         25    1    4    4    0    0 -0.76879162231E+01 -0.78349098540E+02  0.22692819781E+03  0.27081654373E+03  0.12509000000E+03 0.  0.
<mgrwt>
<rscale>  2 0.43003864E+03</rscale>
<asrwt>0</asrwt>
<pdfrwt beam="1">  1       21 0.13177928E+00 0.43003864E+03</pdfrwt>
<pdfrwt beam="2">  1       21 0.75873481E-02 0.43003864E+03</pdfrwt>
<totfact> 0.50370950E+04</totfact>
</mgrwt>
</event>
<event>
 7    0  0.4685107E-002  0.4556054E+03  0.7546771E-02  0.1026064E+00
         21   -1    0    0  502  501  0.00000000000E+00  0.00000000000E+00  0.65038615317E+02  0.65038615317E+02  0.00000000000E+00 0.  1.
         21   -1    0    0  501  502 -0.00000000000E+00 -0.00000000000E+00 -0.79789620041E+03  0.79789620041E+03  0.00000000000E+00 0.  1.
      99926    2    1    2    0    0  0.00000000000E+00 -0.14210854715E-13 -0.73285758509E+03  0.86293481573E+03  0.45560537328E+03 0.  0.
      99925    2    3    3    0    0  0.29016006918E+02  0.95905765854E+02 -0.56285436955E+03  0.62929311145E+03  0.26299227026E+03 0.  0.
         25    1    4    4    0    0  0.51990657273E+02  0.34782723175E+02 -0.26205416139E+03  0.29703999373E+03  0.12509000000E+03 0.  0.
         25    1    3    3    0    0 -0.29016006918E+02 -0.95905765854E+02 -0.17000321555E+03  0.23364170428E+03  0.12509000000E+03 0.  0.
         25    1    4    4    0    0 -0.22974650355E+02  0.61123042679E+02 -0.30080020816E+03  0.33225311772E+03  0.12509000000E+03 0.  0.
<mgrwt>
<rscale>  2 0.45560537E+03</rscale>
<asrwt>0</asrwt>
<pdfrwt beam="1">  1       21 0.95645023E-02 0.45560537E+03</pdfrwt>
<pdfrwt beam="2">  1       21 0.11733768E+00 0.45560537E+03</pdfrwt>
<totfact> 0.44653733E+04</totfact>
</mgrwt>
</event>
<event>
 7    0  0.4685107E-002  0.4539620E+03  0.7546771E-02  0.1026547E+00
         21   -1    0    0  502  501  0.00000000000E+00  0.00000000000E+00  0.65856044117E+02  0.65856044117E+02  0.00000000000E+00 0. -1.
         21   -1    0    0  501  502 -0.00000000000E+00 -0.00000000000E+00 -0.78231805650E+03  0.78231805650E+03  0.00000000000E+00 0. -1.
      99926    2    1    2    0    0 -0.35527136788E-14  0.35527136788E-14 -0.71646201238E+03  0.84817410062E+03  0.45396199155E+03 0.  0.
      99925    2    3    3    0    0 -0.29668281275E+02  0.12582021899E+02 -0.25042303924E+03  0.36456439561E+03  0.26297715827E+03 0.  0.
         25    1    4    4    0    0  0.12514725568E+01 -0.27302864845E+02 -0.14444216923E+03  0.19302347257E+03  0.12509000000E+03 0.  0.
         25    1    4    4    0    0 -0.30919753832E+02  0.39884886745E+02 -0.10598087001E+03  0.17154092303E+03  0.12509000000E+03 0.  0.
         25    1    3    3    0    0  0.29668281275E+02 -0.12582021899E+02 -0.46603897314E+03  0.48360970501E+03  0.12509000000E+03 0.  0.
<mgrwt>
<rscale>  2 0.45396199E+03</rscale>
<asrwt>0</asrwt>
<pdfrwt beam="1">  1       21 0.96847118E-02 0.45396199E+03</pdfrwt>
<pdfrwt beam="2">  1       21 0.11504678E+00 0.45396199E+03</pdfrwt>
<totfact> 0.45893731E+04</totfact>
</mgrwt>
</event>
<event>
 7    0  0.4685107E-002  0.4596940E+03  0.7546771E-02  0.1024870E+00
         21   -1    0    0  502  501  0.00000000000E+00  0.00000000000E+00  0.50811907826E+03  0.50811907826E+03  0.00000000000E+00 0. -1.
         21   -1    0    0  501  502 -0.00000000000E+00 -0.00000000000E+00 -0.10397098109E+03  0.10397098109E+03  0.00000000000E+00 0. -1.
      99926    2    1    2    0    0  0.17763568394E-14  0.00000000000E+00  0.40414809718E+03  0.61209005935E+03  0.45969398115E+03 0.  0.
      99925    2    3    3    0    0 -0.10305539634E+02 -0.18697222737E+02  0.99382922182E+02  0.28196112957E+03  0.26300061423E+03 0.  0.
         25    1    4    4    0    0 -0.93651641855E+01 -0.18291339796E+02  0.92031417454E+02  0.15665110696E+03  0.12509000000E+03 0.  0.
         25    1    3    3    0    0  0.10305539634E+02  0.18697222737E+02  0.30476517499E+03  0.33012892978E+03  0.12509000000E+03 0.  0.
         25    1    4    4    0    0 -0.94037544825E+00 -0.40588294039E+00  0.73515047284E+01  0.12531002262E+03  0.12509000000E+03 0.  0.
<mgrwt>
<rscale>  2 0.45969398E+03</rscale>
<asrwt>0</asrwt>
<pdfrwt beam="1">  1       21 0.74723393E-01 0.45969398E+03</pdfrwt>
<pdfrwt beam="2">  1       21 0.15289850E-01 0.45969398E+03</pdfrwt>
<totfact> 0.55840860E+04</totfact>
</mgrwt>
</event>
<event>
 7    0  0.4685107E-002  0.4525393E+03  0.7546771E-02  0.1026967E+00
         21   -1    0    0  502  501  0.00000000000E+00  0.00000000000E+00  0.66874136965E+02  0.66874136965E+02  0.00000000000E+00 0.  1.
         21   -1    0    0  501  502 -0.00000000000E+00 -0.00000000000E+00 -0.76558676610E+03  0.76558676610E+03  0.00000000000E+00 0.  1.
      99926    2    1    2    0    0  0.00000000000E+00  0.00000000000E+00 -0.69871262914E+03  0.83246090307E+03  0.45253929887E+03 0.  0.
      99925    2    3    3    0    0 -0.17405274534E+02 -0.10763396844E+03 -0.40372250525E+03  0.49400160561E+03  0.26297853593E+03 0.  0.
         25    1    3    3    0    0  0.17405274534E+02  0.10763396844E+03 -0.29499012389E+03  0.33845929746E+03  0.12509000000E+03 0.  0.
         25    1    4    4    0    0  0.82111400187E+01 -0.54235843176E+02 -0.26452847415E+03  0.29771088533E+03  0.12509000000E+03 0.  0.
         25    1    4    4    0    0 -0.25616414553E+02 -0.53398125260E+02 -0.13919403110E+03  0.19629072028E+03  0.12509000000E+03 0.  0.
<mgrwt>
<rscale>  2 0.45253930E+03</rscale>
<asrwt>0</asrwt>
<pdfrwt beam="1">  1       21 0.98344313E-02 0.45253930E+03</pdfrwt>
<pdfrwt beam="2">  1       21 0.11258630E+00 0.45253930E+03</pdfrwt>
<totfact> 0.47137937E+04</totfact>
</mgrwt>
</event>
<event>
 7    0  0.4685107E-002  0.4545082E+03  0.7546771E-02  0.1026386E+00
         21   -1    0    0  502  501  0.00000000000E+00  0.00000000000E+00  0.14678698101E+03  0.14678698101E+03  0.00000000000E+00 0. -1.
         21   -1    0    0  501  502 -0.00000000000E+00 -0.00000000000E+00 -0.35183245910E+03  0.35183245910E+03  0.00000000000E+00 0. -1.
      99926    2    1    2    0    0  0.00000000000E+00 -0.14210854715E-13 -0.20504547809E+03  0.49861944011E+03  0.45450819352E+03 0.  0.
      99925    2    3    3    0    0 -0.60356794906E+02 -0.95389944835E+02 -0.13584164218E+03  0.31646877920E+03  0.26259731947E+03 0.  0.
         25    1    4    4    0    0 -0.62754681946E+02 -0.25898856437E+02 -0.75996338990E+02  0.16134389518E+03  0.12509000000E+03 0.  0.
         25    1    4    4    0    0  0.23978870404E+01 -0.69491088398E+02 -0.59845303187E+02  0.15512488402E+03  0.12509000000E+03 0.  0.
         25    1    3    3    0    0  0.60356794906E+02  0.95389944835E+02 -0.69203835909E+02  0.18215066091E+03  0.12509000000E+03 0.  0.
<mgrwt>
<rscale>  2 0.45450819E+03</rscale>
<asrwt>0</asrwt>
<pdfrwt beam="1">  1       21 0.21586321E-01 0.45450819E+03</pdfrwt>
<pdfrwt beam="2">  1       21 0.51740068E-01 0.45450819E+03</pdfrwt>
<totfact> 0.65623581E+04</totfact>
</mgrwt>
</event>
<event>
 7    0  0.4685107E-002  0.4470815E+03  0.7546771E-02  0.1028596E+00
         21   -1    0    0  502  501  0.00000000000E+00  0.00000000000E+00  0.76738523817E+02  0.76738523817E+02  0.00000000000E+00 0.  1.
         21   -1    0    0  501  502 -0.00000000000E+00 -0.00000000000E+00 -0.65117849138E+03  0.65117849138E+03  0.00000000000E+00 0.  1.
      99926    2    1    2    0    0  0.00000000000E+00  0.00000000000E+00 -0.57443996756E+03  0.72791701520E+03  0.44708154142E+03 0.  0.
      99925    2    3    3    0    0 -0.39616200332E+02  0.36158805820E+01 -0.20486299098E+03  0.33572169697E+03  0.26297850638E+03 0.  0.
         25    1    4    4    0    0 -0.37610556823E+02  0.10345950968E+02 -0.59762255351E+02  0.14401606838E+03  0.12509000000E+03 0.  0.
         25    1    4    4    0    0 -0.20056435087E+01 -0.67300703855E+01 -0.14510073563E+03  0.19170562859E+03  0.12509000000E+03 0.  0.
         25    1    3    3    0    0  0.39616200332E+02 -0.36158805820E+01 -0.36957697659E+03  0.39219531823E+03  0.12509000000E+03 0.  0.
<mgrwt>
<rscale>  2 0.44708154E+03</rscale>
<asrwt>0</asrwt>
<pdfrwt beam="1">  1       21 0.11285077E-01 0.44708154E+03</pdfrwt>
<pdfrwt beam="2">  1       21 0.95761543E-01 0.44708154E+03</pdfrwt>
<totfact> 0.54743398E+04</totfact>
</mgrwt>
</event>
<event>
 7    0  0.4685107E-002  0.4463652E+03  0.7546771E-02  0.1028812E+00
         21   -1    0    0  502  501  0.00000000000E+00  0.00000000000E+00  0.83144743225E+02  0.83144743225E+02  0.00000000000E+00 0. -1.
         21   -1    0    0  501  502 -0.00000000000E+00 -0.00000000000E+00 -0.59908152500E+03  0.59908152500E+03  0.00000000000E+00 0. -1.
      99926    2    1    2    0    0 -0.71054273576E-14  0.00000000000E+00 -0.51593678177E+03  0.68222626822E+03  0.44636522968E+03 0.  0.
      99925    2    3    3    0    0 -0.43029563244E+02  0.85336524713E+01 -0.47293743682E+03  0.54286767213E+03  0.26288994611E+03 0.  0.
         25    1    4    4    0    0 -0.47237112182E+02 -0.26345093425E+02 -0.22895957030E+03  0.26644962310E+03  0.12509000000E+03 0.  0.
         25    1    3    3    0    0  0.43029563244E+02 -0.85336524713E+01 -0.42999344952E+02  0.13935859609E+03  0.12509000000E+03 0.  0.
         25    1    4    4    0    0  0.42075489375E+01  0.34878745896E+02 -0.24397786652E+03  0.27641804904E+03  0.12509000000E+03 0.  0.
<mgrwt>
<rscale>  2 0.44636523E+03</rscale>
<asrwt>0</asrwt>
<pdfrwt beam="1">  1       21 0.12227168E-01 0.44636523E+03</pdfrwt>
<pdfrwt beam="2">  1       21 0.88100223E-01 0.44636523E+03</pdfrwt>
<totfact> 0.57702994E+04</totfact>
</mgrwt>
</event>
<event>
 7    0  0.4685107E-002  0.4574996E+03  0.7546771E-02  0.1025509E+00
         21   -1    0    0  502  501  0.00000000000E+00  0.00000000000E+00  0.34896579300E+02  0.34896579300E+02  0.00000000000E+00 0. -1.
         21   -1    0    0  501  502 -0.00000000000E+00 -0.00000000000E+00 -0.14994730786E+04  0.14994730786E+04  0.00000000000E+00 0. -1.
      99926    2    1    2    0    0  0.35527136788E-14  0.00000000000E+00 -0.14645764993E+04  0.15343696579E+04  0.45749964457E+03 0.  0.
      99925    2    3    3    0    0 -0.16912862027E+02  0.66346433958E+02 -0.60646229435E+03  0.66448725721E+03  0.26279061308E+03 0.  0.
         25    1    4    4    0    0  0.31115477071E+02  0.39944587491E+02 -0.30745900859E+03  0.33577119150E+03  0.12509000000E+03 0.  0.
         25    1    4    4    0    0 -0.48028339098E+02  0.26401846467E+02 -0.29900328577E+03  0.32871606571E+03  0.12509000000E+03 0.  0.
         25    1    3    3    0    0  0.16912862027E+02 -0.66346433958E+02 -0.85811420496E+03  0.86988240071E+03  0.12509000000E+03 0.  0.
<mgrwt>
<rscale>  2 0.45749964E+03</rscale>
<asrwt>0</asrwt>
<pdfrwt beam="1">  1       21 0.51318512E-02 0.45749964E+03</pdfrwt>
<pdfrwt beam="2">  1       21 0.22051069E+00 0.45749964E+03</pdfrwt>
<totfact> 0.22509060E+04</totfact>
</mgrwt>
</event>
<event>
 7    0  0.4685107E-002  0.4736028E+03  0.7546771E-02  0.1020908E+00
         21   -1    0    0  502  501  0.00000000000E+00  0.00000000000E+00  0.13420969960E+03  0.13420969960E+03  0.00000000000E+00 0. -1.
         21   -1    0    0  501  502 -0.00000000000E+00 -0.00000000000E+00 -0.41781551192E+03  0.41781551192E+03  0.00000000000E+00 0. -1.
      99926    2    1    2    0    0  0.00000000000E+00 -0.88817841970E-15 -0.28360581232E+03  0.55202521152E+03  0.47360276326E+03 0.  0.
      99925    2    3    3    0    0 -0.42641915247E+02 -0.10231405829E+01 -0.33263179812E+02  0.26893808447E+03  0.26344235497E+03 0.  0.
         25    1    4    4    0    0 -0.45347339929E+02 -0.28126646649E+02 -0.36733121816E+02  0.14086986842E+03  0.12509000000E+03 0.  0.
         25    1    4    4    0    0  0.27054246825E+01  0.27103506066E+02  0.34699420041E+01  0.12806821605E+03  0.12509000000E+03 0.  0.
         25    1    3    3    0    0  0.42641915247E+02  0.10231405829E+01 -0.25034263250E+03  0.28308712705E+03  0.12509000000E+03 0.  0.
<mgrwt>
<rscale>  2 0.47360276E+03</rscale>
<asrwt>0</asrwt>
<pdfrwt beam="1">  1       21 0.19736721E-01 0.47360276E+03</pdfrwt>
<pdfrwt beam="2">  1       21 0.61443457E-01 0.47360276E+03</pdfrwt>
<totfact> 0.53420167E+04</totfact>
</mgrwt>
</event>
<event>
 7    0  0.4685107E-002  0.4550356E+03  0.7546771E-02  0.1026231E+00
         21   -1    0    0  502  501  0.00000000000E+00  0.00000000000E+00  0.37062425685E+03  0.37062425685E+03  0.00000000000E+00 0.  1.
         21   -1    0    0  501  502 -0.00000000000E+00 -0.00000000000E+00 -0.13966800429E+03  0.13966800429E+03  0.00000000000E+00 0.  1.
      99926    2    1    2    0    0  0.00000000000E+00  0.00000000000E+00  0.23095625256E+03  0.51029226114E+03  0.45503560431E+03 0.  0.
      99925    2    3    3    0    0  0.11215066148E+03 -0.14284674024E+02  0.13905651348E+03  0.31826389624E+03  0.26300830962E+03 0.  0.
         25    1    4    4    0    0  0.88298476726E+02 -0.31114148209E+02  0.59608133901E+02  0.16722843340E+03  0.12509000000E+03 0.  0.
         25    1    3    3    0    0 -0.11215066148E+03  0.14284674024E+02  0.91899739085E+02  0.19202836490E+03  0.12509000000E+03 0.  0.
         25    1    4    4    0    0  0.23852184753E+02  0.16829474185E+02  0.79448379575E+02  0.15103546284E+03  0.12509000000E+03 0.  0.
<mgrwt>
<rscale>  2 0.45503560E+03</rscale>
<asrwt>0</asrwt>
<pdfrwt beam="1">  1       21 0.54503567E-01 0.45503560E+03</pdfrwt>
<pdfrwt beam="2">  1       21 0.20539412E-01 0.45503560E+03</pdfrwt>
<totfact> 0.64535242E+04</totfact>
</mgrwt>
</event>
<event>
 7    0  0.4685107E-002  0.4576332E+03  0.7546771E-02  0.1025470E+00
         21   -1    0    0  502  501  0.00000000000E+00  0.00000000000E+00  0.24228739471E+03  0.24228739471E+03  0.00000000000E+00 0. -1.
         21   -1    0    0  501  502 -0.00000000000E+00 -0.00000000000E+00 -0.21609474079E+03  0.21609474079E+03  0.00000000000E+00 0. -1.
      99926    2    1    2    0    0  0.00000000000E+00  0.00000000000E+00  0.26192653922E+02  0.45838213550E+03  0.45763317955E+03 0.  0.
      99925    2    3    3    0    0  0.81800211447E+02 -0.72460648582E+02  0.53289465777E+02  0.29008607049E+03  0.26337870252E+03 0.  0.
         25    1    4    4    0    0  0.71384962943E+02 -0.56554589696E+02  0.54805002264E+01  0.15482822266E+03  0.12509000000E+03 0.  0.
         25    1    3    3    0    0 -0.81800211447E+02  0.72460648582E+02 -0.27096811855E+02  0.16829606501E+03  0.12509000000E+03 0.  0.
         25    1    4    4    0    0  0.10415248504E+02 -0.15906058885E+02  0.47808965551E+02  0.13525784782E+03  0.12509000000E+03 0.  0.
<mgrwt>
<rscale>  2 0.45763318E+03</rscale>
<asrwt>0</asrwt>
<pdfrwt beam="1">  1       21 0.35630499E-01 0.45763318E+03</pdfrwt>
<pdfrwt beam="2">  1       21 0.31778638E-01 0.45763318E+03</pdfrwt>
<totfact> 0.66882495E+04</totfact>
</mgrwt>
</event>
<event>
 7    0  0.4685107E-002  0.4575631E+03  0.7546771E-02  0.1025490E+00
         21   -1    0    0  502  501  0.00000000000E+00  0.00000000000E+00  0.45341614724E+03  0.45341614724E+03  0.00000000000E+00 0. -1.
         21   -1    0    0  501  502 -0.00000000000E+00 -0.00000000000E+00 -0.11543698841E+03  0.11543698841E+03  0.00000000000E+00 0. -1.
      99926    2    1    2    0    0  0.00000000000E+00  0.00000000000E+00  0.33797915883E+03  0.56885313566E+03  0.45756308652E+03 0.  0.
      99925    2    3    3    0    0 -0.15372224662E+02  0.11038000942E+03  0.17916385190E+03  0.33800716626E+03  0.26406269491E+03 0.  0.
         25    1    4    4    0    0  0.39226854130E+00  0.27594448933E+02  0.43906170916E+02  0.13541368997E+03  0.12509000000E+03 0.  0.
         25    1    3    3    0    0  0.15372224662E+02 -0.11038000942E+03  0.15881530693E+03  0.23084596940E+03  0.12509000000E+03 0.  0.
         25    1    4    4    0    0 -0.15764493203E+02  0.82785560485E+02  0.13525768098E+03  0.20259347629E+03  0.12509000000E+03 0.  0.
<mgrwt>
<rscale>  2 0.45756309E+03</rscale>
<asrwt>0</asrwt>
<pdfrwt beam="1">  1       21 0.66678845E-01 0.45756309E+03</pdfrwt>
<pdfrwt beam="2">  1       21 0.16976028E-01 0.45756309E+03</pdfrwt>
<totfact> 0.59423939E+04</totfact>
</mgrwt>
</event>
<event>
 7    0  0.4685107E-002  0.4553861E+03  0.7546771E-02  0.1026128E+00
         21   -1    0    0  502  501  0.00000000000E+00  0.00000000000E+00  0.53229215583E+03  0.53229215583E+03  0.00000000000E+00 0.  1.
         21   -1    0    0  501  502 -0.00000000000E+00 -0.00000000000E+00 -0.97397879552E+02  0.97397879552E+02  0.00000000000E+00 0.  1.
      99926    2    1    2    0    0  0.00000000000E+00  0.00000000000E+00  0.43489427627E+03  0.62969003538E+03  0.45538610993E+03 0.  0.
      99925    2    3    3    0    0  0.17228851239E+02  0.68252742764E+02  0.15043633757E+03  0.31106941897E+03  0.26301677047E+03 0.  0.
         25    1    4    4    0    0 -0.23797673418E+02  0.49735409191E+02  0.97810172255E+02  0.16809008919E+03  0.12509000000E+03 0.  0.
         25    1    3    3    0    0 -0.17228851239E+02 -0.68252742764E+02  0.28445793870E+03  0.31862061641E+03  0.12509000000E+03 0.  0.
         25    1    4    4    0    0  0.41026524657E+02  0.18517333573E+02  0.52626165316E+02  0.14297932978E+03  0.12509000000E+03 0.  0.
<mgrwt>
<rscale>  2 0.45538611E+03</rscale>
<asrwt>0</asrwt>
<pdfrwt beam="1">  1       21 0.78278257E-01 0.45538611E+03</pdfrwt>
<pdfrwt beam="2">  1       21 0.14323218E-01 0.45538611E+03</pdfrwt>
<totfact> 0.56713929E+04</totfact>
</mgrwt>
</event>
<event>
 7    0  0.4685107E-002  0.4470936E+03  0.7546771E-02  0.1028592E+00
         21   -1    0    0  502  501  0.00000000000E+00  0.00000000000E+00  0.52508836768E+03  0.52508836768E+03  0.00000000000E+00 0. -1.
         21   -1    0    0  501  502 -0.00000000000E+00 -0.00000000000E+00 -0.95170972325E+02  0.95170972325E+02  0.00000000000E+00 0. -1.
      99926    2    1    2    0    0  0.71054273576E-14  0.00000000000E+00  0.42991739535E+03  0.62025934000E+03  0.44709359427E+03 0.  0.
      99925    2    3    3    0    0  0.44913669399E+02  0.94609274209E+02  0.25418781962E+03  0.38047496947E+03  0.26302395762E+03 0.  0.
         25    1    3    3    0    0 -0.44913669399E+02 -0.94609274209E+02  0.17572957573E+03  0.23978437054E+03  0.12509000000E+03 0.  0.
         25    1    4    4    0    0  0.47650772067E+02  0.55127989366E+02  0.17543625588E+03  0.22745346615E+03  0.12509000000E+03 0.  0.
         25    1    4    4    0    0 -0.27371026675E+01  0.39481284843E+02  0.78751563740E+02  0.15302150331E+03  0.12509000000E+03 0.  0.
<mgrwt>
<rscale>  2 0.44709359E+03</rscale>
<asrwt>0</asrwt>
<pdfrwt beam="1">  1       21 0.77218876E-01 0.44709359E+03</pdfrwt>
<pdfrwt beam="2">  1       21 0.13995731E-01 0.44709359E+03</pdfrwt>
<totfact> 0.61179118E+04</totfact>
</mgrwt>
</event>
<event>
 7    0  0.4685107E-002  0.4545052E+03  0.7546771E-02  0.1026387E+00
         21   -1    0    0  502  501  0.00000000000E+00  0.00000000000E+00  0.81056269727E+03  0.81056269727E+03  0.00000000000E+00 0. -1.
         21   -1    0    0  501  502 -0.00000000000E+00 -0.00000000000E+00 -0.63713443958E+02  0.63713443958E+02  0.00000000000E+00 0. -1.
      99926    2    1    2    0    0  0.00000000000E+00  0.00000000000E+00  0.74684925332E+03  0.87427614123E+03  0.45450518583E+03 0.  0.
      99925    2    3    3    0    0 -0.76208213019E+02 -0.82274561973E+02  0.44733575270E+03  0.53086292013E+03  0.26292464518E+03 0.  0.
         25    1    4    4    0    0 -0.16458392646E+02 -0.18773424538E+02  0.25758821668E+03  0.28744132902E+03  0.12509000000E+03 0.  0.
         25    1    3    3    0    0  0.76208213019E+02  0.82274561973E+02  0.29951350061E+03  0.34341322110E+03  0.12509000000E+03 0.  0.
         25    1    4    4    0    0 -0.59749820373E+02 -0.63501137435E+02  0.18974753602E+03  0.24342159110E+03  0.12509000000E+03 0.  0.
<mgrwt>
<rscale>  2 0.45450519E+03</rscale>
<asrwt>0</asrwt>
<pdfrwt beam="1">  1       21 0.11920039E+00 0.45450519E+03</pdfrwt>
<pdfrwt beam="2">  1       21 0.93696246E-02 0.45450519E+03</pdfrwt>
<totfact> 0.44536981E+04</totfact>
</mgrwt>
</event>
<event>
 7    0  0.4685107E-002  0.4774761E+03  0.7546771E-02  0.1019831E+00
         21   -1    0    0  502  501  0.00000000000E+00  0.00000000000E+00  0.37132836993E+02  0.37132836993E+02  0.00000000000E+00 0.  1.
         21   -1    0    0  501  502 -0.00000000000E+00 -0.00000000000E+00 -0.15349177013E+04  0.15349177013E+04  0.00000000000E+00 0.  1.
      99926    2    1    2    0    0  0.71054273576E-14 -0.71054273576E-14 -0.14977848643E+04  0.15720505383E+04  0.47747606767E+03 0.  0.
      99925    2    3    3    0    0 -0.61654370366E+02  0.32719059786E+02 -0.55233585536E+03  0.61581148090E+03  0.26320540389E+03 0.  0.
         25    1    4    4    0    0 -0.31686162193E+02  0.18631445411E+01 -0.35953771301E+03  0.38199785255E+03  0.12509000000E+03 0.  0.
         25    1    3    3    0    0  0.61654370366E+02 -0.32719059786E+02 -0.94544900895E+03  0.95623905739E+03  0.12509000000E+03 0.  0.
         25    1    4    4    0    0 -0.29968208173E+02  0.30855915245E+02 -0.19279814235E+03  0.23381362835E+03  0.12509000000E+03 0.  0.
<mgrwt>
<rscale>  2 0.47747607E+03</rscale>
<asrwt>0</asrwt>
<pdfrwt beam="1">  1       21 0.54607119E-02 0.47747607E+03</pdfrwt>
<pdfrwt beam="2">  1       21 0.22572317E+00 0.47747607E+03</pdfrwt>
<totfact> 0.18602268E+04</totfact>
</mgrwt>
</event>
<event>
 7    0  0.4685107E-002  0.4498741E+03  0.7546771E-02  0.1027760E+00
         21   -1    0    0  502  501  0.00000000000E+00  0.00000000000E+00  0.92525938528E+02  0.92525938528E+02  0.00000000000E+00 0. -1.
         21   -1    0    0  501  502 -0.00000000000E+00 -0.00000000000E+00 -0.54683777284E+03  0.54683777284E+03  0.00000000000E+00 0. -1.
      99926    2    1    2    0    0 -0.71054273576E-14 -0.35527136788E-14 -0.45431183431E+03  0.63936371137E+03  0.44987410752E+03 0.  0.
      99925    2    3    3    0    0  0.54056364428E+02  0.20146281478E+02 -0.41748216380E+03  0.49677375407E+03  0.26299209579E+03 0.  0.
         25    1    4    4    0    0  0.25239802165E+02  0.18788237595E+02 -0.28217786095E+03  0.31026101720E+03  0.12509000000E+03 0.  0.
         25    1    3    3    0    0 -0.54056364428E+02 -0.20146281478E+02 -0.36829670512E+02  0.14258995730E+03  0.12509000000E+03 0.  0.
         25    1    4    4    0    0  0.28816562262E+02  0.13580438830E+01 -0.13530430285E+03  0.18651273687E+03  0.12509000000E+03 0.  0.
<mgrwt>
<rscale>  2 0.44987411E+03</rscale>
<asrwt>0</asrwt>
<pdfrwt beam="1">  1       21 0.13606756E-01 0.44987411E+03</pdfrwt>
<pdfrwt beam="2">  1       21 0.80417320E-01 0.44987411E+03</pdfrwt>
<totfact> 0.58655305E+04</totfact>
</mgrwt>
</event>
<event>
 7    0  0.4685107E-002  0.4782230E+03  0.7546771E-02  0.1019625E+00
         21   -1    0    0  502  501  0.00000000000E+00  0.00000000000E+00  0.50940163488E+03  0.50940163488E+03  0.00000000000E+00 0. -1.
         21   -1    0    0  501  502 -0.00000000000E+00 -0.00000000000E+00 -0.11223816842E+03  0.11223816842E+03  0.00000000000E+00 0. -1.
      99926    2    1    2    0    0  0.00000000000E+00 -0.14210854715E-13  0.39716346647E+03  0.62163980330E+03  0.47822298769E+03 0.  0.
      99925    2    3    3    0    0  0.89256073081E+02 -0.90915981648E+02  0.19237585761E+03  0.34994542511E+03  0.26309877929E+03 0.  0.
         25    1    4    4    0    0  0.19100744312E+02 -0.77178715740E+02  0.95104454315E+02  0.17610723417E+03  0.12509000000E+03 0.  0.
         25    1    3    3    0    0 -0.89256073081E+02  0.90915981648E+02  0.20478760885E+03  0.27169437819E+03  0.12509000000E+03 0.  0.
         25    1    4    4    0    0  0.70155328768E+02 -0.13737265907E+02  0.97271403298E+02  0.17383819094E+03  0.12509000000E+03 0.  0.
<mgrwt>
<rscale>  2 0.47822299E+03</rscale>
<asrwt>0</asrwt>
<pdfrwt beam="1">  1       21 0.74912005E-01 0.47822299E+03</pdfrwt>
<pdfrwt beam="2">  1       21 0.16505613E-01 0.47822299E+03</pdfrwt>
<totfact> 0.47948096E+04</totfact>
</mgrwt>
</event>
<event>
 7    0  0.4685107E-002  0.4570799E+03  0.7546771E-02  0.1025632E+00
         21   -1    0    0  502  501  0.00000000000E+00  0.00000000000E+00  0.15892112134E+02  0.15892112134E+02  0.00000000000E+00 0. -1.
         21   -1    0    0  501  502 -0.00000000000E+00 -0.00000000000E+00 -0.32865684552E+04  0.32865684552E+04  0.00000000000E+00 0. -1.
      99926    2    1    2    0    0  0.35527136788E-14  0.14210854715E-13 -0.32706763431E+04  0.33024605673E+04  0.45707992486E+03 0.  0.
      99925    2    3    3    0    0  0.24631152404E+02  0.11133630296E+03 -0.19407844509E+04  0.19618404053E+04  0.26300384942E+03 0.  0.
         25    1    3    3    0    0 -0.24631152404E+02 -0.11133630296E+03 -0.13298918921E+04  0.13406201620E+04  0.12509000000E+03 0.  0.
         25    1    4    4    0    0 -0.20869092010E+01  0.74187025805E+02 -0.78061862430E+03  0.79405353390E+03  0.12509000000E+03 0.  0.
         25    1    4    4    0    0  0.26718061605E+02  0.37149277153E+02 -0.11601658266E+04  0.11677868714E+04  0.12509000000E+03 0.  0.
<mgrwt>
<rscale>  2 0.45707992E+03</rscale>
<asrwt>0</asrwt>
<pdfrwt beam="1">  1       21 0.23370733E-02 0.45707992E+03</pdfrwt>
<pdfrwt beam="2">  1       21 0.48331930E+00 0.45707992E+03</pdfrwt>
<totfact> 0.18556464E+03</totfact>
</mgrwt>
</event>
<event>
 7    0  0.4685107E-002  0.4524749E+03  0.7546771E-02  0.1026987E+00
         21   -1    0    0  502  501  0.00000000000E+00  0.00000000000E+00  0.15452855319E+03  0.15452855319E+03  0.00000000000E+00 0.  1.
         21   -1    0    0  501  502 -0.00000000000E+00 -0.00000000000E+00 -0.33122276688E+03  0.33122276688E+03  0.00000000000E+00 0.  1.
      99926    2    1    2    0    0  0.00000000000E+00  0.00000000000E+00 -0.17669421369E+03  0.48575132007E+03  0.45247486096E+03 0.  0.
      99925    2    3    3    0    0  0.66868015572E+02  0.30788273408E+02 -0.20201753052E+03  0.33841487597E+03  0.26133177448E+03 0.  0.
         25    1    3    3    0    0 -0.66868015572E+02 -0.30788273408E+02  0.25323316830E+02  0.14733644410E+03  0.12509000000E+03 0.  0.
         25    1    4    4    0    0  0.49700813389E+02  0.65577741761E+01 -0.62047050000E+02  0.14835942763E+03  0.12509000000E+03 0.  0.
         25    1    4    4    0    0  0.17167202184E+02  0.24230499232E+02 -0.13997048052E+03  0.19005544833E+03  0.12509000000E+03 0.  0.
<mgrwt>
<rscale>  2 0.45247486E+03</rscale>
<asrwt>0</asrwt>
<pdfrwt beam="1">  1       21 0.22724787E-01 0.45247486E+03</pdfrwt>
<pdfrwt beam="2">  1       21 0.48709230E-01 0.45247486E+03</pdfrwt>
<totfact> 0.67629335E+04</totfact>
</mgrwt>
</event>
<event>
 7    0  0.4685107E-002  0.4541783E+03  0.7546771E-02  0.1026483E+00
         21   -1    0    0  502  501  0.00000000000E+00  0.00000000000E+00  0.36241739822E+03  0.36241739822E+03  0.00000000000E+00 0.  1.
         21   -1    0    0  501  502 -0.00000000000E+00 -0.00000000000E+00 -0.14229304541E+03  0.14229304541E+03  0.00000000000E+00 0.  1.
      99926    2    1    2    0    0  0.00000000000E+00 -0.35527136788E-14  0.22012435281E+03  0.50471044363E+03  0.45417827030E+03 0.  0.
      99925    2    3    3    0    0 -0.36265033441E+02  0.11992090192E+02  0.21144700945E+02  0.26659414256E+03  0.26299501058E+03 0.  0.
         25    1    4    4    0    0 -0.33298975104E+02  0.42775202673E+02  0.21660887409E+01  0.13634786301E+03  0.12509000000E+03 0.  0.
         25    1    3    3    0    0  0.36265033441E+02 -0.11992090192E+02  0.19897965187E+03  0.23811630107E+03  0.12509000000E+03 0.  0.
         25    1    4    4    0    0 -0.29660583371E+01 -0.30783112482E+02  0.18978612204E+02  0.13024627955E+03  0.12509000000E+03 0.  0.
<mgrwt>
<rscale>  2 0.45417827E+03</rscale>
<asrwt>0</asrwt>
<pdfrwt beam="1">  1       21 0.53296676E-01 0.45417827E+03</pdfrwt>
<pdfrwt beam="2">  1       21 0.20925448E-01 0.45417827E+03</pdfrwt>
<totfact> 0.65366289E+04</totfact>
</mgrwt>
</event>
<event>
 7    0  0.4685107E-002  0.4558183E+03  0.7546771E-02  0.1026001E+00
         21   -1    0    0  502  501  0.00000000000E+00  0.00000000000E+00  0.99095587205E+02  0.99095587205E+02  0.00000000000E+00 0.  1.
         21   -1    0    0  501  502 -0.00000000000E+00 -0.00000000000E+00 -0.52416633300E+03  0.52416633300E+03  0.00000000000E+00 0.  1.
      99926    2    1    2    0    0  0.00000000000E+00 -0.35527136788E-14 -0.42507074579E+03  0.62326192020E+03  0.45581825572E+03 0.  0.
      99925    2    3    3    0    0  0.11283365786E+03 -0.16060573117E+02 -0.26279006322E+03  0.38880103990E+03  0.26290350882E+03 0.  0.
         25    1    3    3    0    0 -0.11283365786E+03  0.16060573117E+02 -0.16228068257E+03  0.23446088030E+03  0.12509000000E+03 0.  0.
         25    1    4    4    0    0  0.93693815995E+02 -0.28783412567E+02 -0.13517482226E+03  0.20863067049E+03  0.12509000000E+03 0.  0.
         25    1    4    4    0    0  0.19139841864E+02  0.12722839450E+02 -0.12761524095E+03  0.18017036941E+03  0.12509000000E+03 0.  0.
<mgrwt>
<rscale>  2 0.45581826E+03</rscale>
<asrwt>0</asrwt>
<pdfrwt beam="1">  1       21 0.14572881E-01 0.45581826E+03</pdfrwt>
<pdfrwt beam="2">  1       21 0.77083283E-01 0.45581826E+03</pdfrwt>
<totfact> 0.56900293E+04</totfact>
</mgrwt>
</event>
<event>
 7    0  0.4685107E-002  0.4488402E+03  0.7546771E-02  0.1028068E+00
         21   -1    0    0  502  501  0.00000000000E+00  0.00000000000E+00  0.10112930294E+04  0.10112930294E+04  0.00000000000E+00 0. -1.
         21   -1    0    0  501  502 -0.00000000000E+00 -0.00000000000E+00 -0.49801971727E+02  0.49801971727E+02  0.00000000000E+00 0. -1.
      99926    2    1    2    0    0  0.00000000000E+00  0.00000000000E+00  0.96149105772E+03  0.10610950012E+04  0.44884022484E+03 0.  0.
      99925    2    3    3    0    0  0.94566914762E+02 -0.50506188964E+02  0.60174466200E+03  0.66541994027E+03  0.26304615976E+03 0.  0.
         25    1    4    4    0    0  0.75305417848E+02 -0.24742879699E+02  0.39267129489E+03  0.41966816651E+03  0.12509000000E+03 0.  0.
         25    1    4    4    0    0  0.19261496914E+02 -0.25763309265E+02  0.20907336711E+03  0.24575177375E+03  0.12509000000E+03 0.  0.
         25    1    3    3    0    0 -0.94566914762E+02  0.50506188964E+02  0.35974639571E+03  0.39567506090E+03  0.12509000000E+03 0.  0.
<mgrwt>
<rscale>  2 0.44884022E+03</rscale>
<asrwt>0</asrwt>
<pdfrwt beam="1">  1       21 0.14871955E+00 0.44884022E+03</pdfrwt>
<pdfrwt beam="2">  1       21 0.73238200E-02 0.44884022E+03</pdfrwt>
<totfact> 0.38700111E+04</totfact>
</mgrwt>
</event>
<event>
 7    0  0.4685107E-002  0.4578901E+03  0.7546771E-02  0.1025395E+00
         21   -1    0    0  502  501  0.00000000000E+00  0.00000000000E+00  0.91443182237E+02  0.91443182237E+02  0.00000000000E+00 0. -1.
         21   -1    0    0  501  502 -0.00000000000E+00 -0.00000000000E+00 -0.57320668255E+03  0.57320668255E+03  0.00000000000E+00 0. -1.
      99926    2    1    2    0    0  0.00000000000E+00  0.35527136788E-14 -0.48176350031E+03  0.66464986479E+03  0.45789013150E+03 0.  0.
      99925    2    3    3    0    0 -0.86809054345E+02 -0.27436734102E+02 -0.19783010298E+03  0.34130133995E+03  0.26279510785E+03 0.  0.
         25    1    4    4    0    0 -0.30977928938E+02 -0.46520077158E+01 -0.14150182185E+03  0.19144593739E+03  0.12509000000E+03 0.  0.
         25    1    3    3    0    0  0.86809054345E+02  0.27436734102E+02 -0.28393339733E+03  0.32334852484E+03  0.12509000000E+03 0.  0.
         25    1    4    4    0    0 -0.55831125407E+02 -0.22784726386E+02 -0.56328281134E+02  0.14985540256E+03  0.12509000000E+03 0.  0.
<mgrwt>
<rscale>  2 0.45789013E+03</rscale>
<asrwt>0</asrwt>
<pdfrwt beam="1">  1       21 0.13447527E-01 0.45789013E+03</pdfrwt>
<pdfrwt beam="2">  1       21 0.84295100E-01 0.45789013E+03</pdfrwt>
<totfact> 0.53631768E+04</totfact>
</mgrwt>
</event>
<event>
 7    0  0.4685107E-002  0.4492973E+03  0.7546771E-02  0.1027932E+00
         21   -1    0    0  502  501  0.00000000000E+00  0.00000000000E+00  0.49261967592E+02  0.49261967592E+02  0.00000000000E+00 0.  1.
         21   -1    0    0  501  502 -0.00000000000E+00 -0.00000000000E+00 -0.10244621952E+04  0.10244621952E+04  0.00000000000E+00 0.  1.
      99926    2    1    2    0    0  0.00000000000E+00  0.14210854715E-13 -0.97520022758E+03  0.10737241628E+04  0.44929733343E+03 0.  0.
      99925    2    3    3    0    0 -0.20462879767E+02  0.10048130476E+03 -0.69581217081E+03  0.75089229256E+03  0.26300082874E+03 0.  0.
         25    1    3    3    0    0  0.20462879767E+02 -0.10048130476E+03 -0.27938805677E+03  0.32283187021E+03  0.12509000000E+03 0.  0.
         25    1    4    4    0    0 -0.30197201613E+01  0.92227543668E+02 -0.39984600595E+03  0.42899810617E+03  0.12509000000E+03 0.  0.
         25    1    4    4    0    0 -0.17443159605E+02  0.82537610967E+01 -0.29596616486E+03  0.32189418639E+03  0.12509000000E+03 0.  0.
<mgrwt>
<rscale>  2 0.44929733E+03</rscale>
<asrwt>0</asrwt>
<pdfrwt beam="1">  1       21 0.72444078E-02 0.44929733E+03</pdfrwt>
<pdfrwt beam="2">  1       21 0.15065619E+00 0.44929733E+03</pdfrwt>
<totfact> 0.38085510E+04</totfact>
</mgrwt>
</event>
<event>
 7    0  0.4685107E-002  0.4617283E+03  0.7546771E-02  0.1024281E+00
         21   -1    0    0  502  501  0.00000000000E+00  0.00000000000E+00  0.18587558129E+03  0.18587558129E+03  0.00000000000E+00 0. -1.
         21   -1    0    0  501  502 -0.00000000000E+00 -0.00000000000E+00 -0.28674154090E+03  0.28674154090E+03  0.00000000000E+00 0. -1.
      99926    2    1    2    0    0  0.00000000000E+00  0.00000000000E+00 -0.10086595961E+03  0.47261712219E+03  0.46172827765E+03 0.  0.
      99925    2    3    3    0    0  0.55220491335E+02  0.94844545617E+02 -0.11138398081E+03  0.30587502383E+03  0.26288466773E+03 0.  0.
         25    1    4    4    0    0 -0.10558629176E+02  0.43111295562E+02 -0.68598405684E+02  0.14940989866E+03  0.12509000000E+03 0.  0.
         25    1    4    4    0    0  0.65779120511E+02  0.51733250054E+02 -0.42785575124E+02  0.15646512517E+03  0.12509000000E+03 0.  0.
         25    1    3    3    0    0 -0.55220491335E+02 -0.94844545617E+02  0.10518021202E+02  0.16674209836E+03  0.12509000000E+03 0.  0.
<mgrwt>
<rscale>  2 0.46172828E+03</rscale>
<asrwt>0</asrwt>
<pdfrwt beam="1">  1       21 0.27334644E-01 0.46172828E+03</pdfrwt>
<pdfrwt beam="2">  1       21 0.42167873E-01 0.46172828E+03</pdfrwt>
<totfact> 0.63769224E+04</totfact>
</mgrwt>
</event>
<event>
 7    0  0.4685107E-002  0.4208833E+03  0.7546771E-02  0.1036779E+00
         21   -1    0    0  502  501  0.00000000000E+00  0.00000000000E+00  0.44534512718E+03  0.44534512718E+03  0.00000000000E+00 0. -1.
         21   -1    0    0  501  502 -0.00000000000E+00 -0.00000000000E+00 -0.99441265065E+02  0.99441265065E+02  0.00000000000E+00 0. -1.
      99926    2    1    2    0    0  0.00000000000E+00  0.00000000000E+00  0.34590386212E+03  0.54478639225E+03  0.42088327521E+03 0.  0.
      99925    2    3    3    0    0 -0.43949023388E+02 -0.43400325785E+02  0.28503286581E+03  0.39257636884E+03  0.26278768206E+03 0.  0.
         25    1    4    4    0    0  0.20361173996E+01  0.11489418180E+02  0.13991551149E+03  0.18804257752E+03  0.12509000000E+03 0.  0.
         25    1    3    3    0    0  0.43949023388E+02  0.43400325785E+02  0.60870996302E+02  0.15221002341E+03  0.12509000000E+03 0.  0.
         25    1    4    4    0    0 -0.45985140787E+02 -0.54889743965E+02  0.14511735432E+03  0.20453379132E+03  0.12509000000E+03 0.  0.
<mgrwt>
<rscale>  2 0.42088328E+03</rscale>
<asrwt>0</asrwt>
<pdfrwt beam="1">  1       21 0.65491929E-01 0.42088328E+03</pdfrwt>
<pdfrwt beam="2">  1       21 0.14623716E-01 0.42088328E+03</pdfrwt>
<totfact> 0.82273380E+04</totfact>
</mgrwt>
</event>
<event>
 7    0  0.4685107E-002  0.4597455E+03  0.7546771E-02  0.1024855E+00
         21   -1    0    0  502  501  0.00000000000E+00  0.00000000000E+00  0.40107674848E+03  0.40107674848E+03  0.00000000000E+00 0. -1.
         21   -1    0    0  501  502 -0.00000000000E+00 -0.00000000000E+00 -0.13174902705E+03  0.13174902705E+03  0.00000000000E+00 0. -1.
      99926    2    1    2    0    0  0.00000000000E+00  0.00000000000E+00  0.26932772143E+03  0.53282577553E+03  0.45974545733E+03 0.  0.
      99925    2    3    3    0    0  0.72760064538E+02  0.22203812363E+02  0.64837902960E+02  0.28132899576E+03  0.26297340915E+03 0.  0.
         25    1    4    4    0    0  0.16753558896E+02 -0.22304217223E+02  0.45180032211E+02  0.13589298456E+03  0.12509000000E+03 0.  0.
         25    1    4    4    0    0  0.56006505642E+02  0.44508029586E+02  0.19657870749E+02  0.14543601120E+03  0.12509000000E+03 0.  0.
         25    1    3    3    0    0 -0.72760064538E+02 -0.22203812363E+02  0.20448981847E+03  0.25149677977E+03  0.12509000000E+03 0.  0.
<mgrwt>
<rscale>  2 0.45974546E+03</rscale>
<asrwt>0</asrwt>
<pdfrwt beam="1">  1       21 0.58981875E-01 0.45974546E+03</pdfrwt>
<pdfrwt beam="2">  1       21 0.19374857E-01 0.45974546E+03</pdfrwt>
<totfact> 0.60700221E+04</totfact>
</mgrwt>
</event>
<event>
 7    0  0.4685107E-002  0.4531129E+03  0.7546771E-02  0.1026798E+00
         21   -1    0    0  502  501  0.00000000000E+00  0.00000000000E+00  0.19337463275E+04  0.19337463275E+04  0.00000000000E+00 0.  1.
         21   -1    0    0  501  502 -0.00000000000E+00 -0.00000000000E+00 -0.26543203659E+02  0.26543203659E+02  0.00000000000E+00 0.  1.
      99926    2    1    2    0    0  0.00000000000E+00  0.00000000000E+00  0.19072031239E+04  0.19602895312E+04  0.45311288923E+03 0.  0.
      99925    2    3    3    0    0 -0.98249731288E+02  0.41649096269E+02  0.10633711167E+04  0.11005874774E+04  0.26295818410E+03 0.  0.
         25    1    4    4    0    0 -0.56822146583E+02 -0.18730784759E+02  0.50043718089E+03  0.51929228644E+03  0.12509000000E+03 0.  0.
         25    1    4    4    0    0 -0.41427584704E+02  0.60379881028E+02  0.56293393581E+03  0.58129519093E+03  0.12509000000E+03 0.  0.
         25    1    3    3    0    0  0.98249731288E+02 -0.41649096269E+02  0.84383200718E+03  0.85970205383E+03  0.12509000000E+03 0.  0.
<mgrwt>
<rscale>  2 0.45311289E+03</rscale>
<asrwt>0</asrwt>
<pdfrwt beam="1">  1       21 0.28437436E+00 0.45311289E+03</pdfrwt>
<pdfrwt beam="2">  1       21 0.39034136E-02 0.45311289E+03</pdfrwt>
<totfact> 0.14581639E+04</totfact>
</mgrwt>
</event>
<event>
 7    0  0.4685107E-002  0.4503485E+03  0.7546771E-02  0.1027618E+00
         21   -1    0    0  502  501  0.00000000000E+00  0.00000000000E+00  0.95212967382E+02  0.95212967382E+02  0.00000000000E+00 0. -1.
         21   -1    0    0  501  502 -0.00000000000E+00 -0.00000000000E+00 -0.53252670781E+03  0.53252670781E+03  0.00000000000E+00 0. -1.
      99926    2    1    2    0    0  0.00000000000E+00  0.00000000000E+00 -0.43731374043E+03  0.62773967519E+03  0.45034852308E+03 0.  0.
      99925    2    3    3    0    0  0.46461908832E+02 -0.40451155533E+02 -0.40128020932E+03  0.48372256364E+03  0.26299564108E+03 0.  0.
         25    1    4    4    0    0  0.29381521822E+02  0.13603563867E+02 -0.23383814699E+03  0.26716309225E+03  0.12509000000E+03 0.  0.
         25    1    4    4    0    0  0.17080387010E+02 -0.54054719400E+02 -0.16744206233E+03  0.21655947139E+03  0.12509000000E+03 0.  0.
         25    1    3    3    0    0 -0.46461908832E+02  0.40451155533E+02 -0.36033531109E+02  0.14401711155E+03  0.12509000000E+03 0.  0.
<mgrwt>
<rscale>  2 0.45034852E+03</rscale>
<asrwt>0</asrwt>
<pdfrwt beam="1">  1       21 0.14001907E-01 0.45034852E+03</pdfrwt>
<pdfrwt beam="2">  1       21 0.78312750E-01 0.45034852E+03</pdfrwt>
<totfact> 0.59144574E+04</totfact>
</mgrwt>
</event>
<event>
 7    0  0.4685107E-002  0.4523543E+03  0.7546771E-02  0.1027022E+00
         21   -1    0    0  502  501  0.00000000000E+00  0.00000000000E+00  0.33006349573E+03  0.33006349573E+03  0.00000000000E+00 0.  1.
         21   -1    0    0  501  502 -0.00000000000E+00 -0.00000000000E+00 -0.15498870463E+03  0.15498870463E+03  0.00000000000E+00 0.  1.
      99926    2    1    2    0    0  0.00000000000E+00  0.00000000000E+00  0.17507479109E+03  0.48505220036E+03  0.45235434627E+03 0.  0.
      99925    2    3    3    0    0 -0.22962752954E+02 -0.80204999843E+02  0.18839131213E+03  0.33410529626E+03  0.26301127824E+03 0.  0.
         25    1    4    4    0    0 -0.29081309782E+02 -0.37684719032E+02  0.50537135319E+02  0.14306421905E+03  0.12509000000E+03 0.  0.
         25    1    3    3    0    0  0.22962752954E+02  0.80204999843E+02 -0.13316521032E+02  0.15094690409E+03  0.12509000000E+03 0.  0.
         25    1    4    4    0    0  0.61185568278E+01 -0.42520280811E+02  0.13785417681E+03  0.19104107721E+03  0.12509000000E+03 0.  0.
<mgrwt>
<rscale>  2 0.45235435E+03</rscale>
<asrwt>0</asrwt>
<pdfrwt beam="1">  1       21 0.48538749E-01 0.45235435E+03</pdfrwt>
<pdfrwt beam="2">  1       21 0.22792457E-01 0.45235435E+03</pdfrwt>
<totfact> 0.67745834E+04</totfact>
</mgrwt>
</event>
<event>
 7    0  0.4685107E-002  0.4580962E+03  0.7546771E-02  0.1025335E+00
         21   -1    0    0  502  501  0.00000000000E+00  0.00000000000E+00  0.30808076952E+03  0.30808076952E+03  0.00000000000E+00 0. -1.
         21   -1    0    0  501  502 -0.00000000000E+00 -0.00000000000E+00 -0.17028983012E+03  0.17028983012E+03  0.00000000000E+00 0. -1.
      99926    2    1    2    0    0  0.00000000000E+00  0.00000000000E+00  0.13779093940E+03  0.47837059964E+03  0.45809615543E+03 0.  0.
      99925    2    3    3    0    0 -0.22871796073E+02  0.46491838781E+02  0.19481506933E+03  0.33145610197E+03  0.26310763228E+03 0.  0.
         25    1    4    4    0    0  0.28276197994E+02  0.13244287531E+02  0.90182139089E+02  0.15733810993E+03  0.12509000000E+03 0.  0.
         25    1    4    4    0    0 -0.51147994067E+02  0.33247551250E+02  0.10463293025E+03  0.17411799204E+03  0.12509000000E+03 0.  0.
         25    1    3    3    0    0  0.22871796073E+02 -0.46491838781E+02 -0.57024129937E+02  0.14691449766E+03  0.12509000000E+03 0.  0.
<mgrwt>
<rscale>  2 0.45809616E+03</rscale>
<asrwt>0</asrwt>
<pdfrwt beam="1">  1       21 0.45305995E-01 0.45809616E+03</pdfrwt>
<pdfrwt beam="2">  1       21 0.25042622E-01 0.45809616E+03</pdfrwt>
<totfact> 0.65201944E+04</totfact>
</mgrwt>
</event>
<event>
 7    0  0.4685107E-002  0.4583826E+03  0.7546771E-02  0.1025251E+00
         21   -1    0    0  502  501  0.00000000000E+00  0.00000000000E+00  0.59367230695E+03  0.59367230695E+03  0.00000000000E+00 0. -1.
         21   -1    0    0  501  502 -0.00000000000E+00 -0.00000000000E+00 -0.88480891039E+02  0.88480891039E+02  0.00000000000E+00 0. -1.
      99926    2    1    2    0    0  0.00000000000E+00  0.00000000000E+00  0.50519141591E+03  0.68215319799E+03  0.45838261182E+03 0.  0.
      99925    2    3    3    0    0  0.25353182508E+02 -0.39076366340E+02  0.47555721235E+03  0.54542192728E+03  0.26298416353E+03 0.  0.
         25    1    4    4    0    0  0.36858925851E+02 -0.75340423500E+01  0.30048124204E+03  0.32764588679E+03  0.12509000000E+03 0.  0.
         25    1    3    3    0    0 -0.25353182508E+02  0.39076366340E+02  0.29634203561E+02  0.13673127071E+03  0.12509000000E+03 0.  0.
         25    1    4    4    0    0 -0.11505743344E+02 -0.31542323990E+02  0.17507597030E+03  0.21777604049E+03  0.12509000000E+03 0.  0.
<mgrwt>
<rscale>  2 0.45838261E+03</rscale>
<asrwt>0</asrwt>
<pdfrwt beam="1">  1       21 0.87304749E-01 0.45838261E+03</pdfrwt>
<pdfrwt beam="2">  1       21 0.13011896E-01 0.45838261E+03</pdfrwt>
<totfact> 0.52470966E+04</totfact>
</mgrwt>
</event>
<event>
 7    0  0.4685107E-002  0.4511016E+03  0.7546771E-02  0.1027394E+00
         21   -1    0    0  502  501  0.00000000000E+00  0.00000000000E+00  0.79388473312E+03  0.79388473312E+03  0.00000000000E+00 0. -1.
         21   -1    0    0  501  502 -0.00000000000E+00 -0.00000000000E+00 -0.64081307358E+02  0.64081307358E+02  0.00000000000E+00 0. -1.
      99926    2    1    2    0    0 -0.35527136788E-14  0.14210854715E-13  0.72980342576E+03  0.85796604048E+03  0.45110163640E+03 0.  0.
      99925    2    3    3    0    0  0.31081192119E+02 -0.70029576004E+02  0.31154831232E+03  0.41473356193E+03  0.26281437264E+03 0.  0.
         25    1    3    3    0    0 -0.31081192119E+02  0.70029576004E+02  0.41825511345E+03  0.44323247855E+03  0.12509000000E+03 0.  0.
         25    1    4    4    0    0 -0.23334668634E+02 -0.42227853009E+02  0.14076678680E+03  0.19439777441E+03  0.12509000000E+03 0.  0.
         25    1    4    4    0    0  0.54415860753E+02 -0.27801722995E+02  0.17078152552E+03  0.22033578752E+03  0.12509000000E+03 0.  0.
<mgrwt>
<rscale>  2 0.45110164E+03</rscale>
<asrwt>0</asrwt>
<pdfrwt beam="1">  1       21 0.11674775E+00 0.45110164E+03</pdfrwt>
<pdfrwt beam="2">  1       21 0.94237222E-02 0.45110164E+03</pdfrwt>
<totfact> 0.46490426E+04</totfact>
</mgrwt>
</event>
<event>
 7    0  0.4685107E-002  0.4064499E+03  0.7546771E-02  0.1041569E+00
         21   -1    0    0  502  501  0.00000000000E+00  0.00000000000E+00  0.62417414371E+03  0.62417414371E+03  0.00000000000E+00 0.  1.
         21   -1    0    0  501  502 -0.00000000000E+00 -0.00000000000E+00 -0.66168051198E+02  0.66168051198E+02  0.00000000000E+00 0.  1.
      99926    2    1    2    0    0 -0.71054273576E-14  0.00000000000E+00  0.55800609251E+03  0.69034219490E+03  0.40644993147E+03 0.  0.
      99925    2    3    3    0    0  0.37602617886E+02 -0.24094265031E+02  0.42866081325E+03  0.50494478434E+03  0.26310578088E+03 0.  0.
         25    1    3    3    0    0 -0.37602617886E+02  0.24094265031E+02  0.12934527926E+03  0.18539741057E+03  0.12509000000E+03 0.  0.
         25    1    4    4    0    0 -0.16862838500E+02 -0.10917725935E+02  0.16770164768E+03  0.21017826433E+03  0.12509000000E+03 0.  0.
         25    1    4    4    0    0  0.54465456385E+02 -0.13176539096E+02  0.26095916557E+03  0.29476652001E+03  0.12509000000E+03 0.  0.
<mgrwt>
<rscale>  2 0.40644993E+03</rscale>
<asrwt>0</asrwt>
<pdfrwt beam="1">  1       21 0.91790312E-01 0.40644993E+03</pdfrwt>
<pdfrwt beam="2">  1       21 0.97305961E-02 0.40644993E+03</pdfrwt>
<totfact> 0.79844660E+04</totfact>
</mgrwt>
</event>
<event>
 7    0  0.4685107E-002  0.4551428E+03  0.7546771E-02  0.1026199E+00
         21   -1    0    0  502  501  0.00000000000E+00  0.00000000000E+00  0.37803684594E+02  0.37803684594E+02  0.00000000000E+00 0. -1.
         21   -1    0    0  501  502 -0.00000000000E+00 -0.00000000000E+00 -0.13699387864E+04  0.13699387864E+04  0.00000000000E+00 0. -1.
      99926    2    1    2    0    0  0.00000000000E+00  0.00000000000E+00 -0.13321351018E+04  0.14077424710E+04  0.45514276351E+03 0.  0.
      99925    2    3    3    0    0  0.70290072472E+02  0.83120472855E+02 -0.74185013154E+03  0.79460825932E+03  0.26307976134E+03 0.  0.
         25    1    4    4    0    0 -0.12543946883E+01  0.24882695642E+02 -0.37843177137E+03  0.39934801330E+03  0.12509000000E+03 0.  0.
         25    1    3    3    0    0 -0.70290072472E+02 -0.83120472855E+02 -0.59028497025E+03  0.61313421166E+03  0.12509000000E+03 0.  0.
         25    1    4    4    0    0  0.71544467160E+02  0.58237777213E+02 -0.36341836017E+03  0.39526024602E+03  0.12509000000E+03 0.  0.
<mgrwt>
<rscale>  2 0.45514276E+03</rscale>
<asrwt>0</asrwt>
<pdfrwt beam="1">  1       21 0.55593652E-02 0.45514276E+03</pdfrwt>
<pdfrwt beam="2">  1       21 0.20146159E+00 0.45514276E+03</pdfrwt>
<totfact> 0.26097443E+04</totfact>
</mgrwt>
</event>
<event>
 7    0  0.4685107E-002  0.4381919E+03  0.7546771E-02  0.1031303E+00
         21   -1    0    0  502  501  0.00000000000E+00  0.00000000000E+00  0.14685410887E+03  0.14685410887E+03  0.00000000000E+00 0. -1.
         21   -1    0    0  501  502 -0.00000000000E+00 -0.00000000000E+00 -0.32687571733E+03  0.32687571733E+03  0.00000000000E+00 0. -1.
      99926    2    1    2    0    0  0.00000000000E+00  0.00000000000E+00 -0.18002160847E+03  0.47372982620E+03  0.43819193137E+03 0.  0.
      99925    2    3    3    0    0 -0.23877350383E+02  0.85865985063E+02 -0.15519491502E+03  0.31814393976E+03  0.26303423638E+03 0.  0.
         25    1    4    4    0    0 -0.36063211970E+01  0.61020637613E+02 -0.39395191641E+02  0.14469282288E+03  0.12509000000E+03 0.  0.
         25    1    3    3    0    0  0.23877350383E+02 -0.85865985063E+02 -0.24826693445E+02  0.15558588644E+03  0.12509000000E+03 0.  0.
         25    1    4    4    0    0 -0.20271029186E+02  0.24845347450E+02 -0.11579972338E+03  0.17345111689E+03  0.12509000000E+03 0.  0.
<mgrwt>
<rscale>  2 0.43819193E+03</rscale>
<asrwt>0</asrwt>
<pdfrwt beam="1">  1       21 0.21596193E-01 0.43819193E+03</pdfrwt>
<pdfrwt beam="2">  1       21 0.48069958E-01 0.43819193E+03</pdfrwt>
<totfact> 0.76921357E+04</totfact>
</mgrwt>
</event>
<event>
 7    0  0.4685107E-002  0.4286968E+03  0.7546771E-02  0.1034272E+00
         21   -1    0    0  502  501  0.00000000000E+00  0.00000000000E+00  0.40455930969E+03  0.40455930969E+03  0.00000000000E+00 0. -1.
         21   -1    0    0  501  502 -0.00000000000E+00 -0.00000000000E+00 -0.11356860288E+03  0.11356860288E+03  0.00000000000E+00 0. -1.
      99926    2    1    2    0    0 -0.66613381478E-15  0.00000000000E+00  0.29099070681E+03  0.51812791257E+03  0.42869679534E+03 0.  0.
      99925    2    3    3    0    0 -0.95565029181E+00 -0.56634919139E+02  0.10933925016E+03  0.29041496359E+03  0.26301587807E+03 0.  0.
         25    1    4    4    0    0 -0.13632053779E+02 -0.65824832154E+00  0.81728035247E+02  0.15004414692E+03  0.12509000000E+03 0.  0.
         25    1    3    3    0    0  0.95565029181E+00  0.56634919139E+02  0.18165145664E+03  0.22771294898E+03  0.12509000000E+03 0.  0.
         25    1    4    4    0    0  0.12676403487E+02 -0.55976670817E+02  0.27611214917E+02  0.14037081666E+03  0.12509000000E+03 0.  0.
<mgrwt>
<rscale>  2 0.42869680E+03</rscale>
<asrwt>0</asrwt>
<pdfrwt beam="1">  1       21 0.59494015E-01 0.42869680E+03</pdfrwt>
<pdfrwt beam="2">  1       21 0.16701265E-01 0.42869680E+03</pdfrwt>
<totfact> 0.79291572E+04</totfact>
</mgrwt>
</event>
<event>
 7    0  0.4685107E-002  0.4448544E+03  0.7546771E-02  0.1029268E+00
         21   -1    0    0  502  501  0.00000000000E+00  0.00000000000E+00  0.14170170388E+03  0.14170170388E+03  0.00000000000E+00 0. -1.
         21   -1    0    0  501  502 -0.00000000000E+00 -0.00000000000E+00 -0.34914087760E+03  0.34914087760E+03  0.00000000000E+00 0. -1.
      99926    2    1    2    0    0  0.00000000000E+00  0.00000000000E+00 -0.20743917372E+03  0.49084258149E+03  0.44485439079E+03 0.  0.
      99925    2    3    3    0    0 -0.35995115418E+02  0.69368268014E+02 -0.20617937559E+03  0.34334105562E+03  0.26318347329E+03 0.  0.
         25    1    3    3    0    0  0.35995115418E+02 -0.69368268014E+02 -0.12597981288E+01  0.14750152587E+03  0.12509000000E+03 0.  0.
         25    1    4    4    0    0 -0.35365088989E+02  0.73589507342E+02 -0.11161827757E+03  0.18647319673E+03  0.12509000000E+03 0.  0.
         25    1    4    4    0    0 -0.63002642913E+00 -0.42212393281E+01 -0.94561098018E+02  0.15686785889E+03  0.12509000000E+03 0.  0.
<mgrwt>
<rscale>  2 0.44485439E+03</rscale>
<asrwt>0</asrwt>
<pdfrwt beam="1">  1       21 0.20838486E-01 0.44485439E+03</pdfrwt>
<pdfrwt beam="2">  1       21 0.51344246E-01 0.44485439E+03</pdfrwt>
<totfact> 0.71506821E+04</totfact>
</mgrwt>
</event>
<event>
 7    0  0.4685107E-002  0.4542935E+03  0.7546771E-02  0.1026449E+00
         21   -1    0    0  502  501  0.00000000000E+00  0.00000000000E+00  0.58036587181E+03  0.58036587181E+03  0.00000000000E+00 0. -1.
         21   -1    0    0  501  502 -0.00000000000E+00 -0.00000000000E+00 -0.88901917904E+02  0.88901917904E+02  0.00000000000E+00 0. -1.
      99926    2    1    2    0    0  0.00000000000E+00  0.17763568394E-14  0.49146395390E+03  0.66926778971E+03  0.45429346942E+03 0.  0.
      99925    2    3    3    0    0 -0.10528918784E+03  0.25710694757E+01  0.25108302187E+03  0.37853952473E+03  0.26297730784E+03 0.  0.
         25    1    3    3    0    0  0.10528918784E+03 -0.25710694757E+01  0.24038093203E+03  0.29072826498E+03  0.12509000000E+03 0.  0.
         25    1    4    4    0    0 -0.19780448227E+02  0.21533762274E+02  0.91870371531E+02  0.15793239793E+03  0.12509000000E+03 0.  0.
         25    1    4    4    0    0 -0.85508739613E+02 -0.18962692799E+02  0.15921265034E+03  0.22060712681E+03  0.12509000000E+03 0.  0.
<mgrwt>
<rscale>  2 0.45429347E+03</rscale>
<asrwt>0</asrwt>
<pdfrwt beam="1">  1       21 0.85347920E-01 0.45429347E+03</pdfrwt>
<pdfrwt beam="2">  1       21 0.13073812E-01 0.45429347E+03</pdfrwt>
<totfact> 0.54908706E+04</totfact>
</mgrwt>
</event>
<event>
 7    0  0.4685107E-002  0.4615700E+03  0.7546771E-02  0.1024327E+00
         21   -1    0    0  502  501  0.00000000000E+00  0.00000000000E+00  0.17824449707E+03  0.17824449707E+03  0.00000000000E+00 0.  1.
         21   -1    0    0  501  502 -0.00000000000E+00 -0.00000000000E+00 -0.29881272597E+03  0.29881272597E+03  0.00000000000E+00 0.  1.
      99926    2    1    2    0    0  0.17763568394E-14  0.00000000000E+00 -0.12056822890E+03  0.47705722304E+03  0.46157003394E+03 0.  0.
      99925    2    3    3    0    0 -0.14763815840E+02  0.35184193555E+02 -0.19219747097E+03  0.32794600900E+03  0.26296923629E+03 0.  0.
         25    1    4    4    0    0 -0.32343787430E+02  0.49835081714E+02 -0.96290291696E+02  0.16866826711E+03  0.12509000000E+03 0.  0.
         25    1    4    4    0    0  0.17579971590E+02 -0.14650888159E+02 -0.95907179270E+02  0.15927774189E+03  0.12509000000E+03 0.  0.
         25    1    3    3    0    0  0.14763815840E+02 -0.35184193555E+02  0.71629242065E+02  0.14911121404E+03  0.12509000000E+03 0.  0.
<mgrwt>
<rscale>  2 0.46157003E+03</rscale>
<asrwt>0</asrwt>
<pdfrwt beam="1">  1       21 0.26212426E-01 0.46157003E+03</pdfrwt>
<pdfrwt beam="2">  1       21 0.43943047E-01 0.46157003E+03</pdfrwt>
<totfact> 0.63537414E+04</totfact>
</mgrwt>
</event>
<event>
 7    0  0.4685107E-002  0.4552524E+03  0.7546771E-02  0.1026167E+00
         21   -1    0    0  502  501  0.00000000000E+00  0.00000000000E+00  0.11323058237E+04  0.11323058237E+04  0.00000000000E+00 0. -1.
         21   -1    0    0  501  502 -0.00000000000E+00 -0.00000000000E+00 -0.45759451391E+02  0.45759451391E+02  0.00000000000E+00 0. -1.
      99926    2    1    2    0    0  0.00000000000E+00 -0.71054273576E-14  0.10865463723E+04  0.11780652751E+04  0.45525242800E+03 0.  0.
      99925    2    3    3    0    0  0.76136237946E+02 -0.41486690478E+02  0.49471231080E+03  0.56697368075E+03  0.26306085225E+03 0.  0.
         25    1    4    4    0    0  0.73237747981E+02 -0.43015576830E+02  0.25128350778E+03  0.29326611970E+03  0.12509000000E+03 0.  0.
         25    1    4    4    0    0  0.28984899651E+01  0.15288863521E+01  0.24342880302E+03  0.27370756105E+03  0.12509000000E+03 0.  0.
         25    1    3    3    0    0 -0.76136237946E+02  0.41486690478E+02  0.59183406153E+03  0.61109159436E+03  0.12509000000E+03 0.  0.
<mgrwt>
<rscale>  2 0.45525243E+03</rscale>
<asrwt>0</asrwt>
<pdfrwt beam="1">  1       21 0.16651554E+00 0.45525243E+03</pdfrwt>
<pdfrwt beam="2">  1       21 0.67293318E-02 0.45525243E+03</pdfrwt>
<totfact> 0.32794471E+04</totfact>
</mgrwt>
</event>
<event>
 7    0  0.4685107E-002  0.4523295E+03  0.7546771E-02  0.1027030E+00
         21   -1    0    0  502  501  0.00000000000E+00  0.00000000000E+00  0.30733071858E+03  0.30733071858E+03  0.00000000000E+00 0.  1.
         21   -1    0    0  501  502 -0.00000000000E+00 -0.00000000000E+00 -0.16643470118E+03  0.16643470118E+03  0.00000000000E+00 0.  1.
      99926    2    1    2    0    0  0.71054273576E-14  0.14210854715E-13  0.14089601740E+03  0.47376541977E+03  0.45232950959E+03 0.  0.
      99925    2    3    3    0    0  0.41182754238E+02  0.83905481954E+02  0.15088847832E+03  0.31729335669E+03  0.26300492802E+03 0.  0.
         25    1    4    4    0    0  0.53604233689E+02  0.53613581867E+02  0.10512867922E+03  0.18013155561E+03  0.12509000000E+03 0.  0.
         25    1    3    3    0    0 -0.41182754238E+02 -0.83905481954E+02 -0.99924609232E+01  0.15647206308E+03  0.12509000000E+03 0.  0.
         25    1    4    4    0    0 -0.12421479452E+02  0.30291900087E+02  0.45759799099E+02  0.13716180108E+03  0.12509000000E+03 0.  0.
<mgrwt>
<rscale>  2 0.45232951E+03</rscale>
<asrwt>0</asrwt>
<pdfrwt beam="1">  1       21 0.45195694E-01 0.45232951E+03</pdfrwt>
<pdfrwt beam="2">  1       21 0.24475691E-01 0.45232951E+03</pdfrwt>
<totfact> 0.68599139E+04</totfact>
</mgrwt>
</event>
<event>
 7    0  0.4685107E-002  0.4545376E+03  0.7546771E-02  0.1026377E+00
         21   -1    0    0  502  501  0.00000000000E+00  0.00000000000E+00  0.56377034639E+03  0.56377034639E+03  0.00000000000E+00 0.  1.
         21   -1    0    0  501  502 -0.00000000000E+00 -0.00000000000E+00 -0.91617268617E+02  0.91617268617E+02  0.00000000000E+00 0.  1.
      99926    2    1    2    0    0  0.00000000000E+00  0.00000000000E+00  0.47215307777E+03  0.65538761501E+03  0.45453756396E+03 0.  0.
      99925    2    3    3    0    0 -0.58152149970E+02  0.92776398370E+02  0.33584124618E+03  0.44040492693E+03  0.26301715607E+03 0.  0.
         25    1    4    4    0    0 -0.47175233936E+02  0.91249484742E+01  0.15572654148E+03  0.20544349881E+03  0.12509000000E+03 0.  0.
         25    1    3    3    0    0  0.58152149970E+02 -0.92776398370E+02  0.13631183159E+03  0.21498268807E+03  0.12509000000E+03 0.  0.
         25    1    4    4    0    0 -0.10976916035E+02  0.83651449896E+02  0.18011470471E+03  0.23496142813E+03  0.12509000000E+03 0.  0.
<mgrwt>
<rscale>  2 0.45453756E+03</rscale>
<asrwt>0</asrwt>
<pdfrwt beam="1">  1       21 0.82907402E-01 0.45453756E+03</pdfrwt>
<pdfrwt beam="2">  1       21 0.13473128E-01 0.45453756E+03</pdfrwt>
<totfact> 0.55594681E+04</totfact>
</mgrwt>
</event>
<event>
 7    0  0.4685107E-002  0.4376557E+03  0.7546771E-02  0.1031469E+00
         21   -1    0    0  502  501  0.00000000000E+00  0.00000000000E+00  0.51869931854E+02  0.51869931854E+02  0.00000000000E+00 0. -1.
         21   -1    0    0  501  502 -0.00000000000E+00 -0.00000000000E+00 -0.92318651608E+03  0.92318651608E+03  0.00000000000E+00 0. -1.
      99926    2    1    2    0    0  0.71054273576E-14  0.00000000000E+00 -0.87131658423E+03  0.97505644794E+03  0.43765567140E+03 0.  0.
      99925    2    3    3    0    0 -0.38143102763E+02  0.80747397726E+02 -0.63580869945E+03  0.69383320846E+03  0.26301479111E+03 0.  0.
         25    1    3    3    0    0  0.38143102763E+02 -0.80747397726E+02 -0.23550788478E+03  0.28122323948E+03  0.12509000000E+03 0.  0.
         25    1    4    4    0    0 -0.38482824903E+02  0.72927998165E+02 -0.39288127692E+03  0.42047904417E+03  0.12509000000E+03 0.  0.
         25    1    4    4    0    0  0.33972214000E+00  0.78193995610E+01 -0.24292742253E+03  0.27335416430E+03  0.12509000000E+03 0.  0.
<mgrwt>
<rscale>  2 0.43765567E+03</rscale>
<asrwt>0</asrwt>
<pdfrwt beam="1">  1       21 0.76279315E-02 0.43765567E+03</pdfrwt>
<pdfrwt beam="2">  1       21 0.13576272E+00 0.43765567E+03</pdfrwt>
<totfact> 0.46080174E+04</totfact>
</mgrwt>
</event>
<event>
 7    0  0.4685107E-002  0.4546019E+03  0.7546771E-02  0.1026359E+00
         21   -1    0    0  502  501  0.00000000000E+00  0.00000000000E+00  0.70209360502E+02  0.70209360502E+02  0.00000000000E+00 0. -1.
         21   -1    0    0  501  502 -0.00000000000E+00 -0.00000000000E+00 -0.73588096723E+03  0.73588096723E+03  0.00000000000E+00 0. -1.
      99926    2    1    2    0    0  0.00000000000E+00  0.00000000000E+00 -0.66567160673E+03  0.80609032773E+03  0.45460194507E+03 0.  0.
      99925    2    3    3    0    0  0.10081786991E+03  0.40971484050E+02 -0.36572377050E+03  0.46336723549E+03  0.26289239855E+03 0.  0.
         25    1    3    3    0    0 -0.10081786991E+03 -0.40971484050E+02 -0.29994783623E+03  0.34272309224E+03  0.12509000000E+03 0.  0.
         25    1    4    4    0    0  0.76343795043E+02  0.52530768973E+02 -0.18264337041E+03  0.23998742797E+03  0.12509000000E+03 0.  0.
         25    1    4    4    0    0  0.24474074865E+02 -0.11559284923E+02 -0.18308040009E+03  0.22337980752E+03  0.12509000000E+03 0.  0.
<mgrwt>
<rscale>  2 0.45460195E+03</rscale>
<asrwt>0</asrwt>
<pdfrwt beam="1">  1       21 0.10324906E-01 0.45460195E+03</pdfrwt>
<pdfrwt beam="2">  1       21 0.10821779E+00 0.45460195E+03</pdfrwt>
<totfact> 0.47620212E+04</totfact>
</mgrwt>
</event>
<event>
 7    0  0.4685107E-002  0.4476027E+03  0.7546771E-02  0.1028439E+00
         21   -1    0    0  502  501  0.00000000000E+00  0.00000000000E+00  0.19799494019E+03  0.19799494019E+03  0.00000000000E+00 0. -1.
         21   -1    0    0  501  502 -0.00000000000E+00 -0.00000000000E+00 -0.25297131208E+03  0.25297131208E+03  0.00000000000E+00 0. -1.
      99926    2    1    2    0    0  0.00000000000E+00  0.00000000000E+00 -0.54976371893E+02  0.45096625227E+03  0.44760268009E+03 0.  0.
      99925    2    3    3    0    0  0.24206178051E+02  0.89031540308E+02  0.17951683477E+02  0.27927302705E+03  0.26298023970E+03 0.  0.
         25    1    3    3    0    0 -0.24206178051E+02 -0.89031540308E+02 -0.72928055370E+02  0.17169322522E+03  0.12509000000E+03 0.  0.
         25    1    4    4    0    0 -0.22613605012E+02  0.65563421848E+02  0.11985248748E+02  0.14353080402E+03  0.12509000000E+03 0.  0.
         25    1    4    4    0    0  0.46819783063E+02  0.23468118460E+02  0.59664347298E+01  0.13574222303E+03  0.12509000000E+03 0.  0.
<mgrwt>
<rscale>  2 0.44760268E+03</rscale>
<asrwt>0</asrwt>
<pdfrwt beam="1">  1       21 0.29116903E-01 0.44760268E+03</pdfrwt>
<pdfrwt beam="2">  1       21 0.37201663E-01 0.44760268E+03</pdfrwt>
<totfact> 0.73059769E+04</totfact>
</mgrwt>
</event>
<event>
 7    0  0.4685107E-002  0.4555370E+03  0.7546771E-02  0.1026084E+00
         21   -1    0    0  502  501  0.00000000000E+00  0.00000000000E+00  0.42083881343E+03  0.42083881343E+03  0.00000000000E+00 0.  1.
         21   -1    0    0  501  502 -0.00000000000E+00 -0.00000000000E+00 -0.12327399721E+03  0.12327399721E+03  0.00000000000E+00 0.  1.
      99926    2    1    2    0    0 -0.14210854715E-13  0.00000000000E+00  0.29756481622E+03  0.54411281064E+03  0.45553696980E+03 0.  0.
      99925    2    3    3    0    0  0.71443471654E+02 -0.66766187902E+02  0.25637142855E+03  0.38008142103E+03  0.26300890432E+03 0.  0.
         25    1    4    4    0    0 -0.47728465503E+01 -0.19698578951E+02  0.11809136370E+03  0.17321631666E+03  0.12509000000E+03 0.  0.
         25    1    4    4    0    0  0.76216318205E+02 -0.47067608952E+02  0.13828006485E+03  0.20686510438E+03  0.12509000000E+03 0.  0.
         25    1    3    3    0    0 -0.71443471654E+02  0.66766187902E+02  0.41193387675E+02  0.16403138961E+03  0.12509000000E+03 0.  0.
<mgrwt>
<rscale>  2 0.45553697E+03</rscale>
<asrwt>0</asrwt>
<pdfrwt beam="1">  1       21 0.61888060E-01 0.45553697E+03</pdfrwt>
<pdfrwt beam="2">  1       21 0.18128529E-01 0.45553697E+03</pdfrwt>
<totfact> 0.61993391E+04</totfact>
</mgrwt>
</event>
<event>
 7    0  0.4685107E-002  0.4540492E+03  0.7546771E-02  0.1026521E+00
         21   -1    0    0  502  501  0.00000000000E+00  0.00000000000E+00  0.19501921980E+03  0.19501921980E+03  0.00000000000E+00 0. -1.
         21   -1    0    0  501  502 -0.00000000000E+00 -0.00000000000E+00 -0.26428246298E+03  0.26428246298E+03  0.00000000000E+00 0. -1.
      99926    2    1    2    0    0  0.00000000000E+00  0.00000000000E+00 -0.69263243179E+02  0.45930168279E+03  0.45404915918E+03 0.  0.
      99925    2    3    3    0    0  0.61014914562E+02 -0.78414590678E+02  0.92615735278E+01  0.28129796718E+03  0.26300399572E+03 0.  0.
         25    1    4    4    0    0  0.61602118335E+02 -0.21744541689E+02  0.24118820946E+02  0.14316728572E+03  0.12509000000E+03 0.  0.
         25    1    3    3    0    0 -0.61014914562E+02  0.78414590678E+02 -0.78524816707E+02  0.17800371560E+03  0.12509000000E+03 0.  0.
         25    1    4    4    0    0 -0.58720377271E+00 -0.56670048989E+02 -0.14857247418E+02  0.13813068146E+03  0.12509000000E+03 0.  0.
<mgrwt>
<rscale>  2 0.45404916E+03</rscale>
<asrwt>0</asrwt>
<pdfrwt beam="1">  1       21 0.28679297E-01 0.45404916E+03</pdfrwt>
<pdfrwt beam="2">  1       21 0.38865068E-01 0.45404916E+03</pdfrwt>
<totfact> 0.68751320E+04</totfact>
</mgrwt>
</event>
<event>
 7    0  0.4685107E-002  0.4479632E+03  0.7546771E-02  0.1028331E+00
         21   -1    0    0  502  501  0.00000000000E+00  0.00000000000E+00  0.14330909840E+04  0.14330909840E+04  0.00000000000E+00 0.  1.
         21   -1    0    0  501  502 -0.00000000000E+00 -0.00000000000E+00 -0.35006676402E+02  0.35006676402E+02  0.00000000000E+00 0.  1.
      99926    2    1    2    0    0  0.00000000000E+00  0.17763568394E-14  0.13980843076E+04  0.14680976604E+04  0.44796317854E+03 0.  0.
      99925    2    3    3    0    0  0.10458874100E+03  0.11838037922E+02  0.83750062669E+03  0.88416229131E+03  0.26316670338E+03 0.  0.
         25    1    3    3    0    0 -0.10458874100E+03 -0.11838037922E+02  0.56058368092E+03  0.58393536911E+03  0.12509000000E+03 0.  0.
         25    1    4    4    0    0  0.83993661576E+02  0.21345352416E+02  0.53009458177E+03  0.55150551491E+03  0.12509000000E+03 0.  0.
         25    1    4    4    0    0  0.20595079427E+02 -0.95073144947E+01  0.30740604493E+03  0.33265677640E+03  0.12509000000E+03 0.  0.
<mgrwt>
<rscale>  2 0.44796318E+03</rscale>
<asrwt>0</asrwt>
<pdfrwt beam="1">  1       21 0.21074864E+00 0.44796318E+03</pdfrwt>
<pdfrwt beam="2">  1       21 0.51480416E-02 0.44796318E+03</pdfrwt>
<totfact> 0.25962397E+04</totfact>
</mgrwt>
</event>
<event>
 7    0  0.4685107E-002  0.4525111E+03  0.7546771E-02  0.1026976E+00
         21   -1    0    0  502  501  0.00000000000E+00  0.00000000000E+00  0.32339794136E+03  0.32339794136E+03  0.00000000000E+00 0. -1.
         21   -1    0    0  501  502 -0.00000000000E+00 -0.00000000000E+00 -0.15829283777E+03  0.15829283777E+03  0.00000000000E+00 0. -1.
      99926    2    1    2    0    0 -0.24980018054E-14  0.00000000000E+00  0.16510510359E+03  0.48169077913E+03  0.45251111751E+03 0.  0.
      99925    2    3    3    0    0  0.27957185758E+00 -0.10982727499E+03  0.12001225936E+03  0.30922924374E+03  0.26297846736E+03 0.  0.
         25    1    4    4    0    0  0.40369732976E+02 -0.54030519923E+02  0.65057344437E+02  0.15629772420E+03  0.12509000000E+03 0.  0.
         25    1    3    3    0    0 -0.27957185758E+00  0.10982727499E+03  0.45092844224E+02  0.17246153540E+03  0.12509000000E+03 0.  0.
         25    1    4    4    0    0 -0.40090161119E+02 -0.55796755062E+02  0.54954914927E+02  0.15293151954E+03  0.12509000000E+03 0.  0.
<mgrwt>
<rscale>  2 0.45251112E+03</rscale>
<asrwt>0</asrwt>
<pdfrwt beam="1">  1       21 0.47558521E-01 0.45251112E+03</pdfrwt>
<pdfrwt beam="2">  1       21 0.23278358E-01 0.45251112E+03</pdfrwt>
<totfact> 0.67909022E+04</totfact>
</mgrwt>
</event>
<event>
 7    0  0.4685107E-002  0.4554763E+03  0.7546771E-02  0.1026101E+00
         21   -1    0    0  502  501  0.00000000000E+00  0.00000000000E+00  0.32378790227E+03  0.32378790227E+03  0.00000000000E+00 0. -1.
         21   -1    0    0  501  502 -0.00000000000E+00 -0.00000000000E+00 -0.16018099768E+03  0.16018099768E+03  0.00000000000E+00 0. -1.
      99926    2    1    2    0    0  0.14210854715E-13 -0.14210854715E-13  0.16360690459E+03  0.48396889995E+03  0.45547631870E+03 0.  0.
      99925    2    3    3    0    0  0.87199903600E+02 -0.71855468532E+02  0.11543682182E+03  0.30865519108E+03  0.26301204459E+03 0.  0.
         25    1    4    4    0    0  0.18785443556E+02 -0.58676868940E+02  0.32468891653E+02  0.14316984621E+03  0.12509000000E+03 0.  0.
         25    1    3    3    0    0 -0.87199903600E+02  0.71855468532E+02  0.48170082764E+02  0.17531370887E+03  0.12509000000E+03 0.  0.
         25    1    4    4    0    0  0.68414460044E+02 -0.13178599592E+02  0.82967930172E+02  0.16548534487E+03  0.12509000000E+03 0.  0.
<mgrwt>
<rscale>  2 0.45547632E+03</rscale>
<asrwt>0</asrwt>
<pdfrwt beam="1">  1       21 0.47615868E-01 0.45547632E+03</pdfrwt>
<pdfrwt beam="2">  1       21 0.23556029E-01 0.45547632E+03</pdfrwt>
<totfact> 0.66161794E+04</totfact>
</mgrwt>
</event>
<event>
 7    0  0.4685107E-002  0.4626401E+03  0.7546771E-02  0.1024018E+00
         21   -1    0    0  502  501  0.00000000000E+00  0.00000000000E+00  0.12517953078E+03  0.12517953078E+03  0.00000000000E+00 0. -1.
         21   -1    0    0  501  502 -0.00000000000E+00 -0.00000000000E+00 -0.42745779546E+03  0.42745779546E+03  0.00000000000E+00 0. -1.
      99926    2    1    2    0    0  0.00000000000E+00  0.14210854715E-13 -0.30227826468E+03  0.55263732624E+03  0.46264010317E+03 0.  0.
      99925    2    3    3    0    0  0.58465980232E+02 -0.10297754771E+03 -0.16459803348E+03  0.33212428731E+03  0.26304255058E+03 0.  0.
         25    1    3    3    0    0 -0.58465980232E+02  0.10297754771E+03 -0.13768023120E+03  0.22051303894E+03  0.12509000000E+03 0.  0.
         25    1    4    4    0    0 -0.11162320851E+02 -0.37818358455E+02 -0.73048116999E+02  0.15012781601E+03  0.12509000000E+03 0.  0.
         25    1    4    4    0    0  0.69628301083E+02 -0.65159189256E+02 -0.91549916482E+02  0.18199647130E+03  0.12509000000E+03 0.  0.
<mgrwt>
<rscale>  2 0.46264010E+03</rscale>
<asrwt>0</asrwt>
<pdfrwt beam="1">  1       21 0.18408755E-01 0.46264010E+03</pdfrwt>
<pdfrwt beam="2">  1       21 0.62861441E-01 0.46264010E+03</pdfrwt>
<totfact> 0.58100252E+04</totfact>
</mgrwt>
</event>
<event>
 7    0  0.4685107E-002  0.4571516E+03  0.7546771E-02  0.1025611E+00
         21   -1    0    0  502  501  0.00000000000E+00  0.00000000000E+00  0.97981071307E+03  0.97981071307E+03  0.00000000000E+00 0.  1.
         21   -1    0    0  501  502 -0.00000000000E+00 -0.00000000000E+00 -0.53323461505E+02  0.53323461505E+02  0.00000000000E+00 0.  1.
      99926    2    1    2    0    0  0.00000000000E+00  0.14210854715E-13  0.92648725156E+03  0.10331341746E+04  0.45715161092E+03 0.  0.
      99925    2    3    3    0    0 -0.52554266812E+02 -0.78726995445E+02  0.43501670218E+03  0.51723621975E+03  0.26331328315E+03 0.  0.
         25    1    3    3    0    0  0.52554266812E+02  0.78726995445E+02  0.49147054939E+03  0.51589795482E+03  0.12509000000E+03 0.  0.
         25    1    4    4    0    0 -0.66536943070E+02 -0.30381968225E+02  0.21955163939E+03  0.26306018180E+03  0.12509000000E+03 0.  0.
         25    1    4    4    0    0  0.13982676258E+02 -0.48345027220E+02  0.21546506278E+03  0.25417603796E+03  0.12509000000E+03 0.  0.
<mgrwt>
<rscale>  2 0.45715161E+03</rscale>
<asrwt>0</asrwt>
<pdfrwt beam="1">  1       21 0.14408980E+00 0.45715161E+03</pdfrwt>
<pdfrwt beam="2">  1       21 0.78416861E-02 0.45715161E+03</pdfrwt>
<totfact> 0.37272400E+04</totfact>
</mgrwt>
</event>
<event>
 7    0  0.4685107E-002  0.4266020E+03  0.7546771E-02  0.1034939E+00
         21   -1    0    0  502  501  0.00000000000E+00  0.00000000000E+00  0.53325570136E+03  0.53325570136E+03  0.00000000000E+00 0.  1.
         21   -1    0    0  501  502 -0.00000000000E+00 -0.00000000000E+00 -0.85319886810E+02  0.85319886810E+02  0.00000000000E+00 0.  1.
      99926    2    1    2    0    0  0.00000000000E+00  0.35527136788E-14  0.44793581455E+03  0.61857558817E+03  0.42660199756E+03 0.  0.
      99925    2    3    3    0    0  0.23181272537E+02 -0.42485676782E+01  0.17383088807E+03  0.31635639529E+03  0.26326558733E+03 0.  0.
         25    1    4    4    0    0  0.36205257521E+02  0.30057464282E+02  0.95643210138E+02  0.16434537893E+03  0.12509000000E+03 0.  0.
         25    1    3    3    0    0 -0.23181272537E+02  0.42485676782E+01  0.27410492648E+03  0.30221919288E+03  0.12509000000E+03 0.  0.
         25    1    4    4    0    0 -0.13023984984E+02 -0.34306031960E+02  0.78187677931E+02  0.15201101636E+03  0.12509000000E+03 0.  0.
<mgrwt>
<rscale>  2 0.42660200E+03</rscale>
<asrwt>0</asrwt>
<pdfrwt beam="1">  1       21 0.78419955E-01 0.42660200E+03</pdfrwt>
<pdfrwt beam="2">  1       21 0.12547042E-01 0.42660200E+03</pdfrwt>
<totfact> 0.72482327E+04</totfact>
</mgrwt>
</event>
<event>
 7    0  0.4685107E-002  0.4575580E+03  0.7546771E-02  0.1025492E+00
         21   -1    0    0  502  501  0.00000000000E+00  0.00000000000E+00  0.26300334677E+02  0.26300334677E+02  0.00000000000E+00 0. -1.
         21   -1    0    0  501  502 -0.00000000000E+00 -0.00000000000E+00 -0.19900823390E+04  0.19900823390E+04  0.00000000000E+00 0. -1.
      99926    2    1    2    0    0  0.00000000000E+00  0.00000000000E+00 -0.19637820043E+04  0.20163826737E+04  0.45755800310E+03 0.  0.
      99925    2    3    3    0    0  0.97868580066E+02  0.43785940883E+02 -0.10435541707E+04  0.10815231968E+04  0.26304305827E+03 0.  0.
         25    1    4    4    0    0  0.28265502770E+02  0.22885697595E+02 -0.36044973476E+03  0.38326780871E+03  0.12509000000E+03 0.  0.
         25    1    3    3    0    0 -0.97868580066E+02 -0.43785940883E+02 -0.92022783364E+03  0.93485947687E+03  0.12509000000E+03 0.  0.
         25    1    4    4    0    0  0.69603077296E+02  0.20900243288E+02 -0.68310443590E+03  0.69825538809E+03  0.12509000000E+03 0.  0.
<mgrwt>
<rscale>  2 0.45755800E+03</rscale>
<asrwt>0</asrwt>
<pdfrwt beam="1">  1       21 0.38676973E-02 0.45755800E+03</pdfrwt>
<pdfrwt beam="2">  1       21 0.29265909E+00 0.45755800E+03</pdfrwt>
<totfact> 0.13180357E+04</totfact>
</mgrwt>
</event>
<event>
 7    0  0.4685107E-002  0.4544327E+03  0.7546771E-02  0.1026408E+00
         21   -1    0    0  502  501  0.00000000000E+00  0.00000000000E+00  0.13181764132E+03  0.13181764132E+03  0.00000000000E+00 0. -1.
         21   -1    0    0  501  502 -0.00000000000E+00 -0.00000000000E+00 -0.39165668356E+03  0.39165668356E+03  0.00000000000E+00 0. -1.
      99926    2    1    2    0    0 -0.88817841970E-15  0.00000000000E+00 -0.25983904224E+03  0.52347432488E+03  0.45443265831E+03 0.  0.
      99925    2    3    3    0    0  0.27863688529E+01 -0.26637700932E+02 -0.37626811964E+02  0.26707012377E+03  0.26304627553E+03 0.  0.
         25    1    3    3    0    0 -0.27863688529E+01  0.26637700932E+02 -0.22221223027E+03  0.25640420111E+03  0.12509000000E+03 0.  0.
         25    1    4    4    0    0  0.37033710383E+02  0.29734625184E+01 -0.77196362590E+01  0.13071892773E+03  0.12509000000E+03 0.  0.
         25    1    4    4    0    0 -0.34247341530E+02 -0.29611163451E+02 -0.29907175705E+02  0.13635119604E+03  0.12509000000E+03 0.  0.
<mgrwt>
<rscale>  2 0.45443266E+03</rscale>
<asrwt>0</asrwt>
<pdfrwt beam="1">  1       21 0.19384948E-01 0.45443266E+03</pdfrwt>
<pdfrwt beam="2">  1       21 0.57596570E-01 0.45443266E+03</pdfrwt>
<totfact> 0.63937490E+04</totfact>
</mgrwt>
</event>
<event>
 7    0  0.4685107E-002  0.4481156E+03  0.7546771E-02  0.1028285E+00
         21   -1    0    0  502  501  0.00000000000E+00  0.00000000000E+00  0.32456258483E+03  0.32456258483E+03  0.00000000000E+00 0.  1.
         21   -1    0    0  501  502 -0.00000000000E+00 -0.00000000000E+00 -0.15467552272E+03  0.15467552272E+03  0.00000000000E+00 0.  1.
      99926    2    1    2    0    0  0.14210854715E-13  0.00000000000E+00  0.16988706211E+03  0.47923810755E+03  0.44811555414E+03 0.  0.
      99925    2    3    3    0    0  0.94878926285E+02  0.61528517156E+01  0.56274936590E+02  0.28534357075E+03  0.26308594916E+03 0.  0.
         25    1    4    4    0    0  0.56626688738E+01  0.89115843175E+01  0.16547217321E+02  0.12662069600E+03  0.12509000000E+03 0.  0.
         25    1    3    3    0    0 -0.94878926285E+02 -0.61528517156E+01  0.11361212552E+03  0.19389453680E+03  0.12509000000E+03 0.  0.
         25    1    4    4    0    0  0.89216257411E+02 -0.27587326019E+01  0.39727719269E+02  0.15872287475E+03  0.12509000000E+03 0.  0.
<mgrwt>
<rscale>  2 0.44811555E+03</rscale>
<asrwt>0</asrwt>
<pdfrwt beam="1">  1       21 0.47729792E-01 0.44811555E+03</pdfrwt>
<pdfrwt beam="2">  1       21 0.22746400E-01 0.44811555E+03</pdfrwt>
<totfact> 0.70532027E+04</totfact>
</mgrwt>
</event>
<event>
 7    0  0.4685107E-002  0.4484606E+03  0.7546771E-02  0.1028182E+00
         21   -1    0    0  502  501  0.00000000000E+00  0.00000000000E+00  0.13598654422E+03  0.13598654422E+03  0.00000000000E+00 0.  1.
         21   -1    0    0  501  502 -0.00000000000E+00 -0.00000000000E+00 -0.36973684376E+03  0.36973684376E+03  0.00000000000E+00 0.  1.
      99926    2    1    2    0    0  0.14210854715E-13  0.71054273576E-14 -0.23375029954E+03  0.50572338798E+03  0.44846063664E+03 0.  0.
      99925    2    3    3    0    0 -0.82580096363E+02 -0.62056437105E+02 -0.11708882868E+03  0.30590376786E+03  0.26305293705E+03 0.  0.
         25    1    4    4    0    0 -0.12135469882E+02  0.11480488804E+01 -0.48789737433E+02  0.13482037763E+03  0.12509000000E+03 0.  0.
         25    1    4    4    0    0 -0.70444626481E+02 -0.63204485985E+02 -0.68299091242E+02  0.17108339023E+03  0.12509000000E+03 0.  0.
         25    1    3    3    0    0  0.82580096363E+02  0.62056437105E+02 -0.11666147086E+03  0.19981962012E+03  0.12509000000E+03 0.  0.
<mgrwt>
<rscale>  2 0.44846064E+03</rscale>
<asrwt>0</asrwt>
<pdfrwt beam="1">  1       21 0.19998021E-01 0.44846064E+03</pdfrwt>
<pdfrwt beam="2">  1       21 0.54373065E-01 0.44846064E+03</pdfrwt>
<totfact> 0.68349389E+04</totfact>
</mgrwt>
</event>
<event>
 7    0  0.4685107E-002  0.4533526E+03  0.7546771E-02  0.1026727E+00
         21   -1    0    0  502  501  0.00000000000E+00  0.00000000000E+00  0.79237927898E+02  0.79237927898E+02  0.00000000000E+00 0. -1.
         21   -1    0    0  501  502 -0.00000000000E+00 -0.00000000000E+00 -0.64845404900E+03  0.64845404900E+03  0.00000000000E+00 0. -1.
      99926    2    1    2    0    0 -0.71054273576E-14 -0.14210854715E-13 -0.56921612110E+03  0.72769197690E+03  0.45335264499E+03 0.  0.
      99925    2    3    3    0    0  0.54249940936E+02  0.83046690766E+02 -0.44090387032E+03  0.52287168801E+03  0.26298055122E+03 0.  0.
         25    1    4    4    0    0  0.56782555771E+02  0.16893190570E+02 -0.19460375828E+03  0.23880487718E+03  0.12509000000E+03 0.  0.
         25    1    3    3    0    0 -0.54249940936E+02 -0.83046690766E+02 -0.12831225078E+03  0.20482028889E+03  0.12509000000E+03 0.  0.
         25    1    4    4    0    0 -0.25326148351E+01  0.66153500197E+02 -0.24630011204E+03  0.28406681083E+03  0.12509000000E+03 0.  0.
<mgrwt>
<rscale>  2 0.45335264E+03</rscale>
<asrwt>0</asrwt>
<pdfrwt beam="1">  1       21 0.11652636E-01 0.45335264E+03</pdfrwt>
<pdfrwt beam="2">  1       21 0.95360892E-01 0.45335264E+03</pdfrwt>
<totfact> 0.52096785E+04</totfact>
</mgrwt>
</event>
<event>
 7    0  0.4685107E-002  0.4054993E+03  0.7546771E-02  0.1041892E+00
         21   -1    0    0  502  501  0.00000000000E+00  0.00000000000E+00  0.70880224721E+02  0.70880224721E+02  0.00000000000E+00 0. -1.
         21   -1    0    0  501  502 -0.00000000000E+00 -0.00000000000E+00 -0.57995613128E+03  0.57995613128E+03  0.00000000000E+00 0. -1.
      99926    2    1    2    0    0  0.00000000000E+00 -0.88817841970E-15 -0.50907590656E+03  0.65083635600E+03  0.40549930167E+03 0.  0.
      99925    2    3    3    0    0 -0.27693609883E+02  0.75072967121E+01 -0.26377443739E+03  0.37399052452E+03  0.26356908597E+03 0.  0.
         25    1    3    3    0    0  0.27693609883E+02 -0.75072967121E+01 -0.24530146916E+03  0.27684583148E+03  0.12509000000E+03 0.  0.
         25    1    4    4    0    0 -0.32666339503E+02  0.14765749468E+02 -0.84292410921E+02  0.15504140006E+03  0.12509000000E+03 0.  0.
         25    1    4    4    0    0  0.49727296203E+01 -0.72584527560E+01 -0.17948202647E+03  0.21894912446E+03  0.12509000000E+03 0.  0.
<mgrwt>
<rscale>  2 0.40549930E+03</rscale>
<asrwt>0</asrwt>
<pdfrwt beam="1">  1       21 0.10423563E-01 0.40549930E+03</pdfrwt>
<pdfrwt beam="2">  1       21 0.85287665E-01 0.40549930E+03</pdfrwt>
<totfact> 0.83904061E+04</totfact>
</mgrwt>
</event>
<event>
 7    0  0.4685107E-002  0.4385165E+03  0.7546771E-02  0.1031203E+00
         21   -1    0    0  502  501  0.00000000000E+00  0.00000000000E+00  0.88959835788E+03  0.88959835788E+03  0.00000000000E+00 0. -1.
         21   -1    0    0  501  502 -0.00000000000E+00 -0.00000000000E+00 -0.54040308776E+02  0.54040308776E+02  0.00000000000E+00 0. -1.
      99926    2    1    2    0    0  0.00000000000E+00  0.35527136788E-14  0.83555804911E+03  0.94363866666E+03  0.43851645327E+03 0.  0.
      99925    2    3    3    0    0 -0.67979817616E+02 -0.22475215189E+02  0.67463948355E+03  0.72760930814E+03  0.26296479161E+03 0.  0.
         25    1    4    4    0    0 -0.36769203636E+02 -0.29736221130E+02  0.43889031239E+03  0.45881197848E+03  0.12509000000E+03 0.  0.
         25    1    4    4    0    0 -0.31210613980E+02  0.72610059416E+01  0.23574917116E+03  0.26879732966E+03  0.12509000000E+03 0.  0.
         25    1    3    3    0    0  0.67979817616E+02  0.22475215189E+02  0.16091856555E+03  0.21602935851E+03  0.12509000000E+03 0.  0.
<mgrwt>
<rscale>  2 0.43851645E+03</rscale>
<asrwt>0</asrwt>
<pdfrwt beam="1">  1       21 0.13082328E+00 0.43851645E+03</pdfrwt>
<pdfrwt beam="2">  1       21 0.79471048E-02 0.43851645E+03</pdfrwt>
<totfact> 0.47195813E+04</totfact>
</mgrwt>
</event>
<event>
 7    0  0.4685107E-002  0.4514659E+03  0.7546771E-02  0.1027286E+00
         21   -1    0    0  502  501  0.00000000000E+00  0.00000000000E+00  0.82895807997E+02  0.82895807997E+02  0.00000000000E+00 0.  1.
         21   -1    0    0  501  502 -0.00000000000E+00 -0.00000000000E+00 -0.61469165284E+03  0.61469165284E+03  0.00000000000E+00 0.  1.
      99926    2    1    2    0    0 -0.35527136788E-14  0.00000000000E+00 -0.53179584485E+03  0.69758746084E+03  0.45146588456E+03 0.  0.
      99925    2    3    3    0    0  0.27633986435E+02 -0.29562803774E+02 -0.17808380999E+03  0.32023178210E+03  0.26305313972E+03 0.  0.
         25    1    4    4    0    0  0.36609092459E+02  0.18874852974E+02 -0.86705662881E+02  0.15767645925E+03  0.12509000000E+03 0.  0.
         25    1    3    3    0    0 -0.27633986435E+02  0.29562803774E+02 -0.35371203485E+03  0.37735567873E+03  0.12509000000E+03 0.  0.
         25    1    4    4    0    0 -0.89751060236E+01 -0.48437656748E+02 -0.91378147112E+02  0.16255532286E+03  0.12509000000E+03 0.  0.
<mgrwt>
<rscale>  2 0.45146588E+03</rscale>
<asrwt>0</asrwt>
<pdfrwt beam="1">  1       21 0.12190560E-01 0.45146588E+03</pdfrwt>
<pdfrwt beam="2">  1       21 0.90395831E-01 0.45146588E+03</pdfrwt>
<totfact> 0.54535254E+04</totfact>
</mgrwt>
</event>
<event>
 7    0  0.4685107E-002  0.4550759E+03  0.7546771E-02  0.1026219E+00
         21   -1    0    0  502  501  0.00000000000E+00  0.00000000000E+00  0.86137390363E+02  0.86137390363E+02  0.00000000000E+00 0. -1.
         21   -1    0    0  501  502 -0.00000000000E+00 -0.00000000000E+00 -0.60105741498E+03  0.60105741498E+03  0.00000000000E+00 0. -1.
      99926    2    1    2    0    0  0.35527136788E-14  0.71054273576E-14 -0.51492002462E+03  0.68719480535E+03  0.45507589339E+03 0.  0.
      99925    2    3    3    0    0  0.28761873010E+02  0.57770549455E+02 -0.18340650909E+03  0.32703733868E+03  0.26296538096E+03 0.  0.
         25    1    3    3    0    0 -0.28761873010E+02 -0.57770549455E+02 -0.33151351552E+03  0.36015746667E+03  0.12509000000E+03 0.  0.
         25    1    4    4    0    0  0.23384665261E+02  0.69439411298E+02 -0.10136535930E+03  0.17689295796E+03  0.12509000000E+03 0.  0.
         25    1    4    4    0    0  0.53772077493E+01 -0.11668861843E+02 -0.82041149799E+02  0.15014438071E+03  0.12509000000E+03 0.  0.
<mgrwt>
<rscale>  2 0.45507589E+03</rscale>
<asrwt>0</asrwt>
<pdfrwt beam="1">  1       21 0.12667263E-01 0.45507589E+03</pdfrwt>
<pdfrwt beam="2">  1       21 0.88390795E-01 0.45507589E+03</pdfrwt>
<totfact> 0.53571879E+04</totfact>
</mgrwt>
</event>
<event>
 7    0  0.4685107E-002  0.4598681E+03  0.7546771E-02  0.1024819E+00
         21   -1    0    0  502  501  0.00000000000E+00  0.00000000000E+00  0.55375628661E+03  0.55375628661E+03  0.00000000000E+00 0.  1.
         21   -1    0    0  501  502 -0.00000000000E+00 -0.00000000000E+00 -0.95474600302E+02  0.95474600302E+02  0.00000000000E+00 0.  1.
      99926    2    1    2    0    0  0.00000000000E+00  0.17763568394E-14  0.45828168631E+03  0.64923088691E+03  0.45986806860E+03 0.  0.
      99925    2    3    3    0    0 -0.45952603161E+02  0.13394191910E+02  0.43897246729E+03  0.51391126471E+03  0.26290096013E+03 0.  0.
         25    1    3    3    0    0  0.45952603161E+02 -0.13394191910E+02  0.19309219013E+02  0.13531962220E+03  0.12509000000E+03 0.  0.
         25    1    4    4    0    0  0.14434809450E+02 -0.89763513490E+01  0.21957366398E+03  0.25327660891E+03  0.12509000000E+03 0.  0.
         25    1    4    4    0    0 -0.60387412611E+02  0.22370543259E+02  0.21939880332E+03  0.26063465580E+03  0.12509000000E+03 0.  0.
<mgrwt>
<rscale>  2 0.45986807E+03</rscale>
<asrwt>0</asrwt>
<pdfrwt beam="1">  1       21 0.81434747E-01 0.45986807E+03</pdfrwt>
<pdfrwt beam="2">  1       21 0.14040383E-01 0.45986807E+03</pdfrwt>
<totfact> 0.53655222E+04</totfact>
</mgrwt>
</event>
<event>
 7    0  0.4685107E-002  0.4552506E+03  0.7546771E-02  0.1026168E+00
         21   -1    0    0  502  501  0.00000000000E+00  0.00000000000E+00  0.27251075484E+03  0.27251075484E+03  0.00000000000E+00 0.  1.
         21   -1    0    0  501  502 -0.00000000000E+00 -0.00000000000E+00 -0.19013298617E+03  0.19013298617E+03  0.00000000000E+00 0.  1.
      99926    2    1    2    0    0  0.71054273576E-14  0.00000000000E+00  0.82377768669E+02  0.46264374100E+03  0.45525062803E+03 0.  0.
      99925    2    3    3    0    0  0.54381341929E+02  0.96257110877E+02  0.77430190354E+02  0.29562653118E+03  0.26301492318E+03 0.  0.
         25    1    4    4    0    0  0.52849268037E+02  0.64499556575E+02  0.71371325179E+02  0.16641698257E+03  0.12509000000E+03 0.  0.
         25    1    3    3    0    0 -0.54381341929E+02 -0.96257110877E+02  0.49475783149E+01  0.16701720982E+03  0.12509000000E+03 0.  0.
         25    1    4    4    0    0  0.15320738920E+01  0.31757554303E+02  0.60588651752E+01  0.12920954861E+03  0.12509000000E+03 0.  0.
<mgrwt>
<rscale>  2 0.45525063E+03</rscale>
<asrwt>0</asrwt>
<pdfrwt beam="1">  1       21 0.40075111E-01 0.45525063E+03</pdfrwt>
<pdfrwt beam="2">  1       21 0.27960733E-01 0.45525063E+03</pdfrwt>
<totfact> 0.67850113E+04</totfact>
</mgrwt>
</event>
<event>
 7    0  0.4685107E-002  0.4531596E+03  0.7546771E-02  0.1026784E+00
         21   -1    0    0  502  501  0.00000000000E+00  0.00000000000E+00  0.56132716148E+03  0.56132716148E+03  0.00000000000E+00 0.  1.
         21   -1    0    0  501  502 -0.00000000000E+00 -0.00000000000E+00 -0.91458965819E+02  0.91458965819E+02  0.00000000000E+00 0.  1.
      99926    2    1    2    0    0  0.35527136788E-14  0.00000000000E+00  0.46986819566E+03  0.65278612730E+03  0.45315958194E+03 0.  0.
      99925    2    3    3    0    0 -0.27588036256E+02  0.68655434103E+02  0.17284241627E+03  0.32211031915E+03  0.26154519392E+03 0.  0.
         25    1    3    3    0    0  0.27588036256E+02 -0.68655434103E+02  0.29702577939E+03  0.33067580815E+03  0.12509000000E+03 0.  0.
         25    1    4    4    0    0  0.47180158415E+01  0.67997049407E+02  0.85134101518E+02  0.16595536069E+03  0.12509000000E+03 0.  0.
         25    1    4    4    0    0 -0.32306052098E+02  0.65838469592E+00  0.87708314755E+02  0.15615495845E+03  0.12509000000E+03 0.  0.
<mgrwt>
<rscale>  2 0.45315958E+03</rscale>
<asrwt>0</asrwt>
<pdfrwt beam="1">  1       21 0.82548110E-01 0.45315958E+03</pdfrwt>
<pdfrwt beam="2">  1       21 0.13449848E-01 0.45315958E+03</pdfrwt>
<totfact> 0.56354952E+04</totfact>
</mgrwt>
</event>
<event>
 7    0  0.4685107E-002  0.4440017E+03  0.7546771E-02  0.1029526E+00
         21   -1    0    0  502  501  0.00000000000E+00  0.00000000000E+00  0.30923782959E+04  0.30923782959E+04  0.00000000000E+00 0. -1.
         21   -1    0    0  501  502 -0.00000000000E+00 -0.00000000000E+00 -0.15937370518E+02  0.15937370518E+02  0.00000000000E+00 0. -1.
      99926    2    1    2    0    0  0.00000000000E+00  0.00000000000E+00  0.30764409254E+04  0.31083156664E+04  0.44400170578E+03 0.  0.
      99925    2    3    3    0    0  0.67522421006E+02  0.91679642038E+01  0.24922827835E+04  0.25070407113E+04  0.26293787467E+03 0.  0.
         25    1    4    4    0    0  0.44561673250E+02 -0.34419175305E+02  0.12518543798E+04  0.12593479736E+04  0.12509000000E+03 0.  0.
         25    1    3    3    0    0 -0.67522421006E+02 -0.91679642038E+01  0.58415814182E+03  0.60127495513E+03  0.12509000000E+03 0.  0.
         25    1    4    4    0    0  0.22960747757E+02  0.43587139509E+02  0.12404284037E+04  0.12476927377E+04  0.12509000000E+03 0.  0.
<mgrwt>
<rscale>  2 0.44400171E+03</rscale>
<asrwt>0</asrwt>
<pdfrwt beam="1">  1       21 0.45476110E+00 0.44400171E+03</pdfrwt>
<pdfrwt beam="2">  1       21 0.23437331E-02 0.44400171E+03</pdfrwt>
<totfact> 0.29311670E+03</totfact>
</mgrwt>
</event>
<event>
 7    0  0.4685107E-002  0.4446144E+03  0.7546771E-02  0.1029340E+00
         21   -1    0    0  502  501  0.00000000000E+00  0.00000000000E+00  0.45055271702E+03  0.45055271702E+03  0.00000000000E+00 0. -1.
         21   -1    0    0  501  502 -0.00000000000E+00 -0.00000000000E+00 -0.10968860019E+03  0.10968860019E+03  0.00000000000E+00 0. -1.
      99926    2    1    2    0    0  0.00000000000E+00  0.00000000000E+00  0.34086411683E+03  0.56024131722E+03  0.44461442551E+03 0.  0.
      99925    2    3    3    0    0  0.59115803489E+02 -0.55351369701E+01  0.11088126343E+03  0.29179218438E+03  0.26329205898E+03 0.  0.
         25    1    4    4    0    0  0.49717783990E+02 -0.18637305302E+02  0.92376074868E+02  0.16431693309E+03  0.12509000000E+03 0.  0.
         25    1    4    4    0    0  0.93980194995E+01  0.13102168332E+02  0.18505188559E+02  0.12747525128E+03  0.12509000000E+03 0.  0.
         25    1    3    3    0    0 -0.59115803489E+02  0.55351369701E+01  0.22998285340E+03  0.26844913284E+03  0.12509000000E+03 0.  0.
<mgrwt>
<rscale>  2 0.44461443E+03</rscale>
<asrwt>0</asrwt>
<pdfrwt beam="1">  1       21 0.66257752E-01 0.44461443E+03</pdfrwt>
<pdfrwt beam="2">  1       21 0.16130677E-01 0.44461443E+03</pdfrwt>
<totfact> 0.66490748E+04</totfact>
</mgrwt>
</event>
<event>
 7    0  0.4685107E-002  0.4675860E+03  0.7546771E-02  0.1022604E+00
         21   -1    0    0  502  501  0.00000000000E+00  0.00000000000E+00  0.58262586563E+02  0.58262586563E+02  0.00000000000E+00 0. -1.
         21   -1    0    0  501  502 -0.00000000000E+00 -0.00000000000E+00 -0.93815201949E+03  0.93815201949E+03  0.00000000000E+00 0. -1.
      99926    2    1    2    0    0  0.00000000000E+00  0.14210854715E-13 -0.87988943292E+03  0.99641460605E+03  0.46758598458E+03 0.  0.
      99925    2    3    3    0    0 -0.49605945517E+02 -0.11420331577E+03 -0.56096527837E+03  0.63191046119E+03  0.26291755411E+03 0.  0.
         25    1    4    4    0    0  0.46836837986E+01 -0.24331417412E+02 -0.25308551747E+03  0.28339679254E+03  0.12509000000E+03 0.  0.
         25    1    4    4    0    0 -0.54289629315E+02 -0.89871898356E+02 -0.30787976090E+03  0.34851366865E+03  0.12509000000E+03 0.  0.
         25    1    3    3    0    0  0.49605945517E+02  0.11420331577E+03 -0.31892415455E+03  0.36450414486E+03  0.12509000000E+03 0.  0.
<mgrwt>
<rscale>  2 0.46758598E+03</rscale>
<asrwt>0</asrwt>
<pdfrwt beam="1">  1       21 0.85680271E-02 0.46758598E+03</pdfrwt>
<pdfrwt beam="2">  1       21 0.13796354E+00 0.46758598E+03</pdfrwt>
<totfact> 0.35669073E+04</totfact>
</mgrwt>
</event>
<event>
 7    0  0.4685107E-002  0.4568203E+03  0.7546771E-02  0.1025707E+00
         21   -1    0    0  502  501  0.00000000000E+00  0.00000000000E+00  0.68082166048E+02  0.68082166048E+02  0.00000000000E+00 0. -1.
         21   -1    0    0  501  502 -0.00000000000E+00 -0.00000000000E+00 -0.76629749903E+03  0.76629749903E+03  0.00000000000E+00 0. -1.
      99926    2    1    2    0    0  0.00000000000E+00  0.00000000000E+00 -0.69821533298E+03  0.83437966508E+03  0.45682028664E+03 0.  0.
      99925    2    3    3    0    0  0.76170439811E+02 -0.77609558202E+02 -0.37103069024E+03  0.46760660449E+03  0.26299616735E+03 0.  0.
         25    1    4    4    0    0  0.32082654630E+02 -0.67228964077E+01 -0.12897349049E+03  0.18263669788E+03  0.12509000000E+03 0.  0.
         25    1    3    3    0    0 -0.76170439811E+02  0.77609558202E+02 -0.32718464274E+03  0.36677306059E+03  0.12509000000E+03 0.  0.
         25    1    4    4    0    0  0.44087785181E+02 -0.70886661794E+02 -0.24205719975E+03  0.28496990661E+03  0.12509000000E+03 0.  0.
<mgrwt>
<rscale>  2 0.45682029E+03</rscale>
<asrwt>0</asrwt>
<pdfrwt beam="1">  1       21 0.10012083E-01 0.45682029E+03</pdfrwt>
<pdfrwt beam="2">  1       21 0.11269081E+00 0.45682029E+03</pdfrwt>
<totfact> 0.45493215E+04</totfact>
</mgrwt>
</event>
<event>
 7    0  0.4685107E-002  0.4038517E+03  0.7546771E-02  0.1042454E+00
         21   -1    0    0  502  501  0.00000000000E+00  0.00000000000E+00  0.17089946860E+03  0.17089946860E+03  0.00000000000E+00 0.  1.
         21   -1    0    0  501  502 -0.00000000000E+00 -0.00000000000E+00 -0.23858499609E+03  0.23858499609E+03  0.00000000000E+00 0.  1.
      99926    2    1    2    0    0  0.00000000000E+00  0.00000000000E+00 -0.67685527486E+02  0.40948446469E+03  0.40385170074E+03 0.  0.
      99925    2    3    3    0    0 -0.11997134831E+02 -0.35257406451E+02 -0.75668130997E+01  0.26578761757E+03  0.26305661945E+03 0.  0.
         25    1    4    4    0    0  0.25882989332E+02  0.35262776022E+01 -0.18029981748E+02  0.12905406662E+03  0.12509000000E+03 0.  0.
         25    1    4    4    0    0 -0.37880124163E+02 -0.38783684053E+02  0.10463168648E+02  0.13673355094E+03  0.12509000000E+03 0.  0.
         25    1    3    3    0    0  0.11997134831E+02  0.35257406451E+02 -0.60118714386E+02  0.14369684712E+03  0.12509000000E+03 0.  0.
<mgrwt>
<rscale>  2 0.40385170E+03</rscale>
<asrwt>0</asrwt>
<pdfrwt beam="1">  1       21 0.25132275E-01 0.40385170E+03</pdfrwt>
<pdfrwt beam="2">  1       21 0.35086029E-01 0.40385170E+03</pdfrwt>
<totfact> 0.11076190E+05</totfact>
</mgrwt>
</event>
<event>
 7    0  0.4685107E-002  0.4519056E+03  0.7546771E-02  0.1027155E+00
         21   -1    0    0  502  501  0.00000000000E+00  0.00000000000E+00  0.13651773693E+03  0.13651773693E+03  0.00000000000E+00 0. -1.
         21   -1    0    0  501  502 -0.00000000000E+00 -0.00000000000E+00 -0.37397825031E+03  0.37397825031E+03  0.00000000000E+00 0. -1.
      99926    2    1    2    0    0  0.00000000000E+00  0.17763568394E-14 -0.23746051337E+03  0.51049598724E+03  0.45190558480E+03 0.  0.
      99925    2    3    3    0    0 -0.99162926079E+02 -0.14801834773E+02 -0.98780917967E+02  0.29852448325E+03  0.26326187936E+03 0.  0.
         25    1    3    3    0    0  0.99162926079E+02  0.14801834773E+02 -0.13867959541E+03  0.21197150399E+03  0.12509000000E+03 0.  0.
         25    1    4    4    0    0 -0.15926037235E+02  0.18700974543E+02 -0.51451324369E+02  0.13747040405E+03  0.12509000000E+03 0.  0.
         25    1    4    4    0    0 -0.83236888844E+02 -0.33502809316E+02 -0.47329593598E+02  0.16105407920E+03  0.12509000000E+03 0.  0.
<mgrwt>
<rscale>  2 0.45190558E+03</rscale>
<asrwt>0</asrwt>
<pdfrwt beam="1">  1       21 0.20076138E-01 0.45190558E+03</pdfrwt>
<pdfrwt beam="2">  1       21 0.54996801E-01 0.45190558E+03</pdfrwt>
<totfact> 0.66148923E+04</totfact>
</mgrwt>
</event>
<event>
 7    0  0.4685107E-002  0.4541891E+03  0.7546771E-02  0.1026480E+00
         21   -1    0    0  502  501  0.00000000000E+00  0.00000000000E+00  0.25396482531E+03  0.25396482531E+03  0.00000000000E+00 0.  1.
         21   -1    0    0  501  502 -0.00000000000E+00 -0.00000000000E+00 -0.20306726310E+03  0.20306726310E+03  0.00000000000E+00 0.  1.
      99926    2    1    2    0    0  0.00000000000E+00  0.00000000000E+00  0.50897562205E+02  0.45703208841E+03  0.45418913241E+03 0.  0.
      99925    2    3    3    0    0 -0.84358303093E+02  0.56301925741E+02  0.80590542655E+02  0.29327796990E+03  0.26311765794E+03 0.  0.
         25    1    4    4    0    0 -0.49423925347E+02  0.41200166952E+02  0.19164049993E+01  0.14068176450E+03  0.12509000000E+03 0.  0.
         25    1    3    3    0    0  0.84358303093E+02 -0.56301925741E+02 -0.29692980451E+02  0.16375411852E+03  0.12509000000E+03 0.  0.
         25    1    4    4    0    0 -0.34934377746E+02  0.15101758789E+02  0.78674137656E+02  0.15259620540E+03  0.12509000000E+03 0.  0.
<mgrwt>
<rscale>  2 0.45418913E+03</rscale>
<asrwt>0</asrwt>
<pdfrwt beam="1">  1       21 0.37347768E-01 0.45418913E+03</pdfrwt>
<pdfrwt beam="2">  1       21 0.29862833E-01 0.45418913E+03</pdfrwt>
<totfact> 0.68841405E+04</totfact>
</mgrwt>
</event>
<event>
 7    0  0.4685107E-002  0.4897909E+03  0.7546771E-02  0.1016479E+00
         21   -1    0    0  502  501  0.00000000000E+00  0.00000000000E+00  0.16421783057E+03  0.16421783057E+03  0.00000000000E+00 0.  1.
         21   -1    0    0  501  502 -0.00000000000E+00 -0.00000000000E+00 -0.36520863600E+03  0.36520863600E+03  0.00000000000E+00 0.  1.
      99926    2    1    2    0    0  0.14210854715E-13  0.00000000000E+00 -0.20099080543E+03  0.52942646657E+03  0.48979085296E+03 0.  0.
      99925    2    3    3    0    0 -0.10612161086E+03  0.23682124578E+02 -0.22388742142E+03  0.36211118801E+03  0.26301386978E+03 0.  0.
         25    1    4    4    0    0 -0.33252316816E+02  0.27668561750E+02 -0.66127594481E+02  0.14795821280E+03  0.12509000000E+03 0.  0.
         25    1    4    4    0    0 -0.72869294047E+02 -0.39864371726E+01 -0.15775982694E+03  0.21415297521E+03  0.12509000000E+03 0.  0.
         25    1    3    3    0    0  0.10612161086E+03 -0.23682124578E+02  0.22896615987E+02  0.16731527856E+03  0.12509000000E+03 0.  0.
<mgrwt>
<rscale>  2 0.48979085E+03</rscale>
<asrwt>0</asrwt>
<pdfrwt beam="1">  1       21 0.24149681E-01 0.48979085E+03</pdfrwt>
<pdfrwt beam="2">  1       21 0.53707152E-01 0.48979085E+03</pdfrwt>
<totfact> 0.48431186E+04</totfact>
</mgrwt>
</event>
<event>
 7    0  0.4685107E-002  0.4190185E+03  0.7546771E-02  0.1037386E+00
         21   -1    0    0  502  501  0.00000000000E+00  0.00000000000E+00  0.58849636593E+03  0.58849636593E+03  0.00000000000E+00 0. -1.
         21   -1    0    0  501  502 -0.00000000000E+00 -0.00000000000E+00 -0.74586896434E+02  0.74586896434E+02  0.00000000000E+00 0. -1.
      99926    2    1    2    0    0  0.00000000000E+00  0.00000000000E+00  0.51390946950E+03  0.66308326237E+03  0.41901846020E+03 0.  0.
      99925    2    3    3    0    0 -0.12662682153E+02  0.45066712633E+02  0.24369508323E+03  0.36166217028E+03  0.26309861215E+03 0.  0.
         25    1    4    4    0    0 -0.10846950408E+02  0.63489986998E+02  0.12393833718E+03  0.18750161147E+03  0.12509000000E+03 0.  0.
         25    1    3    3    0    0  0.12662682153E+02 -0.45066712633E+02  0.27021438627E+03  0.30142109208E+03  0.12509000000E+03 0.  0.
         25    1    4    4    0    0 -0.18157317447E+01 -0.18423274365E+02  0.11975674605E+03  0.17416055881E+03  0.12509000000E+03 0.  0.
<mgrwt>
<rscale>  2 0.41901846E+03</rscale>
<asrwt>0</asrwt>
<pdfrwt beam="1">  1       21 0.86543581E-01 0.41901846E+03</pdfrwt>
<pdfrwt beam="2">  1       21 0.10968662E-01 0.41901846E+03</pdfrwt>
<totfact> 0.73736814E+04</totfact>
</mgrwt>
</event>
<event>
 7    0  0.4685107E-002  0.4537897E+03  0.7546771E-02  0.1026598E+00
         21   -1    0    0  502  501  0.00000000000E+00  0.00000000000E+00  0.42454003822E+03  0.42454003822E+03  0.00000000000E+00 0. -1.
         21   -1    0    0  501  502 -0.00000000000E+00 -0.00000000000E+00 -0.12126366980E+03  0.12126366980E+03  0.00000000000E+00 0. -1.
      99926    2    1    2    0    0  0.00000000000E+00  0.00000000000E+00  0.30327636842E+03  0.54580370802E+03  0.45378974431E+03 0.  0.
      99925    2    3    3    0    0  0.61344536645E+02  0.83447104988E+02  0.13979502147E+03  0.31536883563E+03  0.26303665705E+03 0.  0.
         25    1    3    3    0    0 -0.61344536645E+02 -0.83447104988E+02  0.16348134696E+03  0.23043487238E+03  0.12509000000E+03 0.  0.
         25    1    4    4    0    0  0.25784834693E+02  0.79952235545E+02  0.93242812780E+02  0.17719748278E+03  0.12509000000E+03 0.  0.
         25    1    4    4    0    0  0.35559701952E+02  0.34948694435E+01  0.46552208687E+02  0.13817135285E+03  0.12509000000E+03 0.  0.
<mgrwt>
<rscale>  2 0.45378974E+03</rscale>
<asrwt>0</asrwt>
<pdfrwt beam="1">  1       21 0.62432358E-01 0.45378974E+03</pdfrwt>
<pdfrwt beam="2">  1       21 0.17832893E-01 0.45378974E+03</pdfrwt>
<totfact> 0.62743363E+04</totfact>
</mgrwt>
</event>
<event>
 7    0  0.4685107E-002  0.4597493E+03  0.7546771E-02  0.1024854E+00
         21   -1    0    0  502  501  0.00000000000E+00  0.00000000000E+00  0.27815091337E+03  0.27815091337E+03  0.00000000000E+00 0.  1.
         21   -1    0    0  501  502 -0.00000000000E+00 -0.00000000000E+00 -0.18997727257E+03  0.18997727257E+03  0.00000000000E+00 0.  1.
      99926    2    1    2    0    0  0.00000000000E+00  0.00000000000E+00  0.88173640800E+02  0.46812818594E+03  0.45974928770E+03 0.  0.
      99925    2    3    3    0    0 -0.12126788305E+02  0.17435395525E+02 -0.62482526389E+02  0.27116158769E+03  0.26300853318E+03 0.  0.
         25    1    4    4    0    0 -0.15976916503E+02  0.37991327221E+02 -0.46889482649E+01  0.13178807663E+03  0.12509000000E+03 0.  0.
         25    1    3    3    0    0  0.12126788305E+02 -0.17435395525E+02  0.15065616719E+03  0.19696659824E+03  0.12509000000E+03 0.  0.
         25    1    4    4    0    0  0.38501281981E+01 -0.20555931695E+02 -0.57793578124E+02  0.13937351107E+03  0.12509000000E+03 0.  0.
<mgrwt>
<rscale>  2 0.45974929E+03</rscale>
<asrwt>0</asrwt>
<pdfrwt beam="1">  1       21 0.40904546E-01 0.45974929E+03</pdfrwt>
<pdfrwt beam="2">  1       21 0.27937834E-01 0.45974929E+03</pdfrwt>
<totfact> 0.65086457E+04</totfact>
</mgrwt>
</event>
<event>
 7    0  0.4685107E-002  0.4524962E+03  0.7546771E-02  0.1026980E+00
         21   -1    0    0  502  501  0.00000000000E+00  0.00000000000E+00  0.28051849013E+03  0.28051849013E+03  0.00000000000E+00 0. -1.
         21   -1    0    0  501  502 -0.00000000000E+00 -0.00000000000E+00 -0.18247707482E+03  0.18247707482E+03  0.00000000000E+00 0. -1.
      99926    2    1    2    0    0  0.00000000000E+00  0.00000000000E+00  0.98041415306E+02  0.46299556495E+03  0.45249615915E+03 0.  0.
      99925    2    3    3    0    0  0.36698059628E+02 -0.98706629837E+02  0.97264974165E+02  0.29947841810E+03  0.26293934919E+03 0.  0.
         25    1    4    4    0    0  0.55661394586E+02 -0.57374415247E+02  0.34926324602E+02  0.15250367413E+03  0.12509000000E+03 0.  0.
         25    1    3    3    0    0 -0.36698059628E+02  0.98706629837E+02  0.77644114145E+00  0.16351714685E+03  0.12509000000E+03 0.  0.
         25    1    4    4    0    0 -0.18963334958E+02 -0.41332214590E+02  0.62338649563E+02  0.14697474397E+03  0.12509000000E+03 0.  0.
<mgrwt>
<rscale>  2 0.45249616E+03</rscale>
<asrwt>0</asrwt>
<pdfrwt beam="1">  1       21 0.41252719E-01 0.45249616E+03</pdfrwt>
<pdfrwt beam="2">  1       21 0.26834864E-01 0.45249616E+03</pdfrwt>
<totfact> 0.69327471E+04</totfact>
</mgrwt>
</event>
<event>
 7    0  0.4685107E-002  0.4511588E+03  0.7546771E-02  0.1027377E+00
         21   -1    0    0  502  501  0.00000000000E+00  0.00000000000E+00  0.98732126991E+02  0.98732126991E+02  0.00000000000E+00 0. -1.
         21   -1    0    0  501  502 -0.00000000000E+00 -0.00000000000E+00 -0.51539514154E+03  0.51539514154E+03  0.00000000000E+00 0. -1.
      99926    2    1    2    0    0 -0.14210854715E-13  0.71054273576E-14 -0.41666301455E+03  0.61412726853E+03  0.45115876835E+03 0.  0.
      99925    2    3    3    0    0  0.72945090278E+02 -0.41009066058E+02 -0.35874064649E+03  0.45286587043E+03  0.26341965656E+03 0.  0.
         25    1    4    4    0    0  0.69953745694E+02 -0.46794930953E+02 -0.18431313368E+03  0.23812209357E+03  0.12509000000E+03 0.  0.
         25    1    3    3    0    0 -0.72945090278E+02  0.41009066058E+02 -0.57922368051E+02  0.16126139809E+03  0.12509000000E+03 0.  0.
         25    1    4    4    0    0  0.29913445835E+01  0.57858648946E+01 -0.17442751281E+03  0.21474377686E+03  0.12509000000E+03 0.  0.
<mgrwt>
<rscale>  2 0.45115877E+03</rscale>
<asrwt>0</asrwt>
<pdfrwt beam="1">  1       21 0.14519431E-01 0.45115877E+03</pdfrwt>
<pdfrwt beam="2">  1       21 0.75793401E-01 0.45115877E+03</pdfrwt>
<totfact> 0.59604781E+04</totfact>
</mgrwt>
</event>
<event>
 7    0  0.4685107E-002  0.4515555E+03  0.7546771E-02  0.1027259E+00
         21   -1    0    0  502  501  0.00000000000E+00  0.00000000000E+00  0.15744412985E+03  0.15744412985E+03  0.00000000000E+00 0. -1.
         21   -1    0    0  501  502 -0.00000000000E+00 -0.00000000000E+00 -0.32376939712E+03  0.32376939712E+03  0.00000000000E+00 0. -1.
      99926    2    1    2    0    0 -0.27755575616E-15  0.00000000000E+00 -0.16632526727E+03  0.48121352697E+03  0.45155549383E+03 0.  0.
      99925    2    3    3    0    0 -0.17940126942E+00 -0.16217926373E+02 -0.22083843628E+03  0.34380083827E+03  0.26299495838E+03 0.  0.
         25    1    4    4    0    0 -0.21793549455E+01 -0.47797590193E+02 -0.10151236798E+03  0.16805245660E+03  0.12509000000E+03 0.  0.
         25    1    4    4    0    0  0.19999536761E+01  0.31579663820E+02 -0.11932606831E+03  0.17574838167E+03  0.12509000000E+03 0.  0.
         25    1    3    3    0    0  0.17940126942E+00  0.16217926373E+02  0.54513169015E+02  0.13741268870E+03  0.12509000000E+03 0.  0.
<mgrwt>
<rscale>  2 0.45155549E+03</rscale>
<asrwt>0</asrwt>
<pdfrwt beam="1">  1       21 0.23153549E-01 0.45155549E+03</pdfrwt>
<pdfrwt beam="2">  1       21 0.47613146E-01 0.45155549E+03</pdfrwt>
<totfact> 0.68464830E+04</totfact>
</mgrwt>
</event>
<event>
 7    0  0.4685107E-002  0.4542585E+03  0.7546771E-02  0.1026460E+00
         21   -1    0    0  502  501  0.00000000000E+00  0.00000000000E+00  0.11871262924E+03  0.11871262924E+03  0.00000000000E+00 0. -1.
         21   -1    0    0  501  502 -0.00000000000E+00 -0.00000000000E+00 -0.43455941405E+03  0.43455941405E+03  0.00000000000E+00 0. -1.
      99926    2    1    2    0    0  0.00000000000E+00  0.00000000000E+00 -0.31584678481E+03  0.55327204328E+03  0.45425847532E+03 0.  0.
      99925    2    3    3    0    0 -0.80208048508E+02 -0.41191637072E+02 -0.28075183566E+03  0.39512892593E+03  0.26301177325E+03 0.  0.
         25    1    3    3    0    0  0.80208048508E+02  0.41191637072E+02 -0.35094949154E+02  0.15814311735E+03  0.12509000000E+03 0.  0.
         25    1    4    4    0    0 -0.49480608410E+02 -0.95767767307E+00 -0.91502081692E+02  0.16269415112E+03  0.12509000000E+03 0.  0.
         25    1    4    4    0    0 -0.30727440098E+02 -0.40233959399E+02 -0.18924975397E+03  0.23243477481E+03  0.12509000000E+03 0.  0.
<mgrwt>
<rscale>  2 0.45425848E+03</rscale>
<asrwt>0</asrwt>
<pdfrwt beam="1">  1       21 0.17457739E-01 0.45425848E+03</pdfrwt>
<pdfrwt beam="2">  1       21 0.63905798E-01 0.45425848E+03</pdfrwt>
<totfact> 0.62013805E+04</totfact>
</mgrwt>
</event>
<event>
 7    0  0.4685107E-002  0.4546399E+03  0.7546771E-02  0.1026347E+00
         21   -1    0    0  502  501  0.00000000000E+00  0.00000000000E+00  0.92000201698E+02  0.92000201698E+02  0.00000000000E+00 0.  1.
         21   -1    0    0  501  502 -0.00000000000E+00 -0.00000000000E+00 -0.56167657334E+03  0.56167657334E+03  0.00000000000E+00 0.  1.
      99926    2    1    2    0    0 -0.14210854715E-13  0.00000000000E+00 -0.46967637165E+03  0.65367677504E+03  0.45463989282E+03 0.  0.
      99925    2    3    3    0    0 -0.10232958443E+03  0.15698100308E+02 -0.36029896334E+03  0.45789960643E+03  0.26294283101E+03 0.  0.
         25    1    3    3    0    0  0.10232958443E+03 -0.15698100308E+02 -0.10937740831E+03  0.19577716862E+03  0.12509000000E+03 0.  0.
         25    1    4    4    0    0 -0.17742951705E+02  0.23091138806E+02 -0.19879108945E+03  0.23667154111E+03  0.12509000000E+03 0.  0.
         25    1    4    4    0    0 -0.84586632729E+02 -0.73930384980E+01 -0.16150787389E+03  0.22122806531E+03  0.12509000000E+03 0.  0.
<mgrwt>
<rscale>  2 0.45463989E+03</rscale>
<asrwt>0</asrwt>
<pdfrwt beam="1">  1       21 0.13529441E-01 0.45463989E+03</pdfrwt>
<pdfrwt beam="2">  1       21 0.82599496E-01 0.45463989E+03</pdfrwt>
<totfact> 0.55648071E+04</totfact>
</mgrwt>
</event>
<event>
 7    0  0.4685107E-002  0.4525169E+03  0.7546771E-02  0.1026974E+00
         21   -1    0    0  502  501  0.00000000000E+00  0.00000000000E+00  0.80438302485E+03  0.80438302485E+03  0.00000000000E+00 0.  1.
         21   -1    0    0  501  502 -0.00000000000E+00 -0.00000000000E+00 -0.63642419603E+02  0.63642419603E+02  0.00000000000E+00 0.  1.
      99926    2    1    2    0    0 -0.14210854715E-13  0.00000000000E+00  0.74074060525E+03  0.86802544445E+03  0.45251688140E+03 0.  0.
      99925    2    3    3    0    0  0.68964691639E+02  0.58373384020E+02  0.59042219642E+03  0.65260327107E+03  0.26292409308E+03 0.  0.
         25    1    4    4    0    0  0.74376787209E+02  0.35874433313E+02  0.29284310707E+03  0.32897336503E+03  0.12509000000E+03 0.  0.
         25    1    4    4    0    0 -0.54120955700E+01  0.22498950707E+02  0.29757908935E+03  0.32362990604E+03  0.12509000000E+03 0.  0.
         25    1    3    3    0    0 -0.68964691639E+02 -0.58373384020E+02  0.15031840883E+03  0.21542217339E+03  0.12509000000E+03 0.  0.
<mgrwt>
<rscale>  2 0.45251688E+03</rscale>
<asrwt>0</asrwt>
<pdfrwt beam="1">  1       21 0.11829161E+00 0.45251688E+03</pdfrwt>
<pdfrwt beam="2">  1       21 0.93591799E-02 0.45251688E+03</pdfrwt>
<totfact> 0.45523416E+04</totfact>
</mgrwt>
</event>
<event>
 7    0  0.4685107E-002  0.4429218E+03  0.7546771E-02  0.1029854E+00
         21   -1    0    0  502  501  0.00000000000E+00  0.00000000000E+00  0.86528659571E+02  0.86528659571E+02  0.00000000000E+00 0.  1.
         21   -1    0    0  501  502 -0.00000000000E+00 -0.00000000000E+00 -0.56680571908E+03  0.56680571908E+03  0.00000000000E+00 0.  1.
      99926    2    1    2    0    0  0.00000000000E+00  0.00000000000E+00 -0.48027705951E+03  0.65333437865E+03  0.44292184010E+03 0.  0.
      99925    2    3    3    0    0  0.21292818929E+02  0.95646264450E+02 -0.26616937643E+03  0.38670504775E+03  0.26285559718E+03 0.  0.
         25    1    4    4    0    0  0.18398954137E+02  0.74550708169E+02 -0.18467498053E+03  0.23589973746E+03  0.12509000000E+03 0.  0.
         25    1    4    4    0    0  0.28938647922E+01  0.21095556281E+02 -0.81494395896E+02  0.15080531029E+03  0.12509000000E+03 0.  0.
         25    1    3    3    0    0 -0.21292818929E+02 -0.95646264450E+02 -0.21410768308E+03  0.26662933090E+03  0.12509000000E+03 0.  0.
<mgrwt>
<rscale>  2 0.44292184E+03</rscale>
<asrwt>0</asrwt>
<pdfrwt beam="1">  1       21 0.12724803E-01 0.44292184E+03</pdfrwt>
<pdfrwt beam="2">  1       21 0.83353781E-01 0.44292184E+03</pdfrwt>
<totfact> 0.61126921E+04</totfact>
</mgrwt>
</event>
<event>
 7    0  0.4685107E-002  0.4607033E+03  0.7546771E-02  0.1024577E+00
         21   -1    0    0  502  501  0.00000000000E+00  0.00000000000E+00  0.28409439978E+03  0.28409439978E+03  0.00000000000E+00 0.  1.
         21   -1    0    0  501  502 -0.00000000000E+00 -0.00000000000E+00 -0.18677551008E+03  0.18677551008E+03  0.00000000000E+00 0.  1.
      99926    2    1    2    0    0 -0.35527136788E-14  0.00000000000E+00  0.97318889699E+02  0.47086990986E+03  0.46070327297E+03 0.  0.
      99925    2    3    3    0    0  0.25204238508E+02 -0.10510576279E+03  0.11132713716E+02  0.28443482722E+03  0.26286262307E+03 0.  0.
         25    1    4    4    0    0  0.46834339453E+02 -0.60427384649E+02  0.26508303989E+02  0.14898027537E+03  0.12509000000E+03 0.  0.
         25    1    3    3    0    0 -0.25204238508E+02  0.10510576279E+03  0.86186175983E+02  0.18643508265E+03  0.12509000000E+03 0.  0.
         25    1    4    4    0    0 -0.21630100945E+02 -0.44678378146E+02 -0.15375590273E+02  0.13545455185E+03  0.12509000000E+03 0.  0.
<mgrwt>
<rscale>  2 0.46070327E+03</rscale>
<asrwt>0</asrwt>
<pdfrwt beam="1">  1       21 0.41778588E-01 0.46070327E+03</pdfrwt>
<pdfrwt beam="2">  1       21 0.27466987E-01 0.46070327E+03</pdfrwt>
<totfact> 0.64406953E+04</totfact>
</mgrwt>
</event>
<event>
 7    0  0.4685107E-002  0.4341414E+03  0.7546771E-02  0.1032560E+00
         21   -1    0    0  502  501  0.00000000000E+00  0.00000000000E+00  0.15994487746E+03  0.15994487746E+03  0.00000000000E+00 0.  1.
         21   -1    0    0  501  502 -0.00000000000E+00 -0.00000000000E+00 -0.29459955514E+03  0.29459955514E+03  0.00000000000E+00 0.  1.
      99926    2    1    2    0    0  0.00000000000E+00  0.00000000000E+00 -0.13465467768E+03  0.45454443260E+03  0.43414140437E+03 0.  0.
      99925    2    3    3    0    0  0.33772556267E+02 -0.13415624045E+01 -0.17632325221E+03  0.31843358238E+03  0.26299747484E+03 0.  0.
         25    1    3    3    0    0 -0.33772556267E+02  0.13415624045E+01  0.41668574521E+02  0.13611085023E+03  0.12509000000E+03 0.  0.
         25    1    4    4    0    0 -0.65956813148E+01  0.47960058579E+01 -0.12547816575E+03  0.17736623936E+03  0.12509000000E+03 0.  0.
         25    1    4    4    0    0  0.40368237582E+02 -0.61375682624E+01 -0.50845086454E+02  0.14106734302E+03  0.12509000000E+03 0.  0.
<mgrwt>
<rscale>  2 0.43414140E+03</rscale>
<asrwt>0</asrwt>
<pdfrwt beam="1">  1       21 0.23521306E-01 0.43414140E+03</pdfrwt>
<pdfrwt beam="2">  1       21 0.43323463E-01 0.43414140E+03</pdfrwt>
<totfact> 0.81235913E+04</totfact>
</mgrwt>
</event>
<event>
 7    0  0.4685107E-002  0.4540365E+03  0.7546771E-02  0.1026525E+00
         21   -1    0    0  502  501  0.00000000000E+00  0.00000000000E+00  0.26658340101E+04  0.26658340101E+04  0.00000000000E+00 0.  1.
         21   -1    0    0  501  502 -0.00000000000E+00 -0.00000000000E+00 -0.19332519681E+02  0.19332519681E+02  0.00000000000E+00 0.  1.
      99926    2    1    2    0    0  0.71054273576E-14  0.00000000000E+00  0.26465014905E+04  0.26851665298E+04  0.45403651161E+03 0.  0.
      99925    2    3    3    0    0  0.61294294171E+02 -0.64194734526E+02  0.20737998044E+04  0.20922814788E+04  0.26290341051E+03 0.  0.
         25    1    4    4    0    0 -0.33658059622E+01 -0.53879173929E+02  0.10381236195E+04  0.10470255257E+04  0.12509000000E+03 0.  0.
         25    1    4    4    0    0  0.64660100133E+02 -0.10315560597E+02  0.10356761849E+04  0.10452559531E+04  0.12509000000E+03 0.  0.
         25    1    3    3    0    0 -0.61294294171E+02  0.64194734526E+02  0.57270168602E+03  0.59288505100E+03  0.12509000000E+03 0.  0.
<mgrwt>
<rscale>  2 0.45403651E+03</rscale>
<asrwt>0</asrwt>
<pdfrwt beam="1">  1       21 0.39203416E+00 0.45403651E+03</pdfrwt>
<pdfrwt beam="2">  1       21 0.28430194E-02 0.45403651E+03</pdfrwt>
<totfact> 0.54576594E+03</totfact>
</mgrwt>
</event>
<event>
 7    0  0.4685107E-002  0.4527324E+03  0.7546771E-02  0.1026910E+00
         21   -1    0    0  502  501  0.00000000000E+00  0.00000000000E+00  0.90089547698E+02  0.90089547698E+02  0.00000000000E+00 0.  1.
         21   -1    0    0  501  502 -0.00000000000E+00 -0.00000000000E+00 -0.56878586633E+03  0.56878586633E+03  0.00000000000E+00 0.  1.
      99926    2    1    2    0    0 -0.35527136788E-14 -0.35527136788E-14 -0.47869631863E+03  0.65887541403E+03  0.45273242179E+03 0.  0.
      99925    2    3    3    0    0  0.27316927008E+02  0.18895228997E+02 -0.45588614155E+03  0.52745602254E+03  0.26320037515E+03 0.  0.
         25    1    4    4    0    0 -0.24561978852E+02  0.23873249728E+02 -0.21645488351E+03  0.25233598148E+03  0.12509000000E+03 0.  0.
         25    1    3    3    0    0 -0.27316927008E+02 -0.18895228997E+02 -0.22810177081E+02  0.13141939149E+03  0.12509000000E+03 0.  0.
         25    1    4    4    0    0  0.51878905860E+02 -0.49780207305E+01 -0.23943125805E+03  0.27512004106E+03  0.12509000000E+03 0.  0.
<mgrwt>
<rscale>  2 0.45273242E+03</rscale>
<asrwt>0</asrwt>
<pdfrwt beam="1">  1       21 0.13248463E-01 0.45273242E+03</pdfrwt>
<pdfrwt beam="2">  1       21 0.83644982E-01 0.45273242E+03</pdfrwt>
<totfact> 0.56190804E+04</totfact>
</mgrwt>
</event>
<event>
 7    0  0.4685107E-002  0.4528734E+03  0.7546771E-02  0.1026869E+00
         21   -1    0    0  502  501  0.00000000000E+00  0.00000000000E+00  0.68491326648E+02  0.68491326648E+02  0.00000000000E+00 0.  1.
         21   -1    0    0  501  502 -0.00000000000E+00 -0.00000000000E+00 -0.74861435460E+03  0.74861435460E+03  0.00000000000E+00 0.  1.
      99926    2    1    2    0    0  0.00000000000E+00  0.17763568394E-14 -0.68012302796E+03  0.81710568125E+03  0.45287344941E+03 0.  0.
      99925    2    3    3    0    0  0.11002161403E+03  0.12394859541E+02 -0.41050474909E+03  0.49993078865E+03  0.26297957396E+03 0.  0.
         25    1    4    4    0    0  0.43374907460E+02 -0.79087233932E+01 -0.13393081538E+03  0.18849111892E+03  0.12509000000E+03 0.  0.
         25    1    4    4    0    0  0.66646706569E+02  0.20303582934E+02 -0.27657393371E+03  0.31143966974E+03  0.12509000000E+03 0.  0.
         25    1    3    3    0    0 -0.11002161403E+03 -0.12394859541E+02 -0.26961827886E+03  0.31717489260E+03  0.12509000000E+03 0.  0.
<mgrwt>
<rscale>  2 0.45287345E+03</rscale>
<asrwt>0</asrwt>
<pdfrwt beam="1">  1       21 0.10072255E-01 0.45287345E+03</pdfrwt>
<pdfrwt beam="2">  1       21 0.11009034E+00 0.45287345E+03</pdfrwt>
<totfact> 0.47740194E+04</totfact>
</mgrwt>
</event>
<event>
 7    0  0.4685107E-002  0.4601904E+03  0.7546771E-02  0.1024726E+00
         21   -1    0    0  502  501  0.00000000000E+00  0.00000000000E+00  0.71632491944E+02  0.71632491944E+02  0.00000000000E+00 0.  1.
         21   -1    0    0  501  502 -0.00000000000E+00 -0.00000000000E+00 -0.73910322417E+03  0.73910322417E+03  0.00000000000E+00 0.  1.
      99926    2    1    2    0    0 -0.17763568394E-14  0.26645352591E-14 -0.66747073223E+03  0.81073571612E+03  0.46019042038E+03 0.  0.
      99925    2    3    3    0    0 -0.83333406453E+01  0.57621277135E+01 -0.62538954239E+03  0.67836887238E+03  0.26262064009E+03 0.  0.
         25    1    4    4    0    0  0.15533948212E+02 -0.27472691920E+02 -0.35335927452E+03  0.37617328100E+03  0.12509000000E+03 0.  0.
         25    1    3    3    0    0  0.83333406453E+01 -0.57621277135E+01 -0.42081189838E+02  0.13236684373E+03  0.12509000000E+03 0.  0.
         25    1    4    4    0    0 -0.23867288857E+02  0.33234819633E+02 -0.27203026787E+03  0.30219559139E+03  0.12509000000E+03 0.  0.
<mgrwt>
<rscale>  2 0.46019042E+03</rscale>
<asrwt>0</asrwt>
<pdfrwt beam="1">  1       21 0.10534190E-01 0.46019042E+03</pdfrwt>
<pdfrwt beam="2">  1       21 0.10869165E+00 0.46019042E+03</pdfrwt>
<totfact> 0.45373428E+04</totfact>
</mgrwt>
</event>
<event>
 7    0  0.4685107E-002  0.4608588E+03  0.7546771E-02  0.1024532E+00
         21   -1    0    0  502  501  0.00000000000E+00  0.00000000000E+00  0.19315675117E+03  0.19315675117E+03  0.00000000000E+00 0.  1.
         21   -1    0    0  501  502 -0.00000000000E+00 -0.00000000000E+00 -0.27489441754E+03  0.27489441754E+03  0.00000000000E+00 0.  1.
      99926    2    1    2    0    0  0.00000000000E+00  0.14210854715E-13 -0.81737666374E+02  0.46805116871E+03  0.46085881833E+03 0.  0.
      99925    2    3    3    0    0  0.34275301586E+02  0.96036735014E+02  0.10213802170E+02  0.28230825112E+03  0.26305090025E+03 0.  0.
         25    1    4    4    0    0  0.39350867557E+01  0.87251985909E+02  0.14252804875E+02  0.15322873262E+03  0.12509000000E+03 0.  0.
         25    1    4    4    0    0  0.30340214830E+02  0.87847491046E+01 -0.40390027047E+01  0.12907951850E+03  0.12509000000E+03 0.  0.
         25    1    3    3    0    0 -0.34275301586E+02 -0.96036735014E+02 -0.91951468544E+02  0.18574291760E+03  0.12509000000E+03 0.  0.
<mgrwt>
<rscale>  2 0.46085882E+03</rscale>
<asrwt>0</asrwt>
<pdfrwt beam="1">  1       21 0.28405405E-01 0.46085882E+03</pdfrwt>
<pdfrwt beam="2">  1       21 0.40425650E-01 0.46085882E+03</pdfrwt>
<totfact> 0.64526239E+04</totfact>
</mgrwt>
</event>
<event>
 7    0  0.4685107E-002  0.4542743E+03  0.7546771E-02  0.1026455E+00
         21   -1    0    0  502  501  0.00000000000E+00  0.00000000000E+00  0.98555512165E+02  0.98555512165E+02  0.00000000000E+00 0. -1.
         21   -1    0    0  501  502 -0.00000000000E+00 -0.00000000000E+00 -0.52347440597E+03  0.52347440597E+03  0.00000000000E+00 0. -1.
      99926    2    1    2    0    0  0.14210854715E-13 -0.77715611724E-15 -0.42491889380E+03  0.62202991813E+03  0.45427431442E+03 0.  0.
      99925    2    3    3    0    0 -0.83497039888E+02  0.97287864618E+00 -0.16401422989E+03  0.32087969995E+03  0.26285055082E+03 0.  0.
         25    1    4    4    0    0 -0.26134438860E+01  0.69020660296E+01 -0.91105419513E+02  0.15492635079E+03  0.12509000000E+03 0.  0.
         25    1    3    3    0    0  0.83497039888E+02 -0.97287864618E+00 -0.26090466391E+03  0.30115021819E+03  0.12509000000E+03 0.  0.
         25    1    4    4    0    0 -0.80883596002E+02 -0.59291873834E+01 -0.72908810378E+02  0.16595334916E+03  0.12509000000E+03 0.  0.
<mgrwt>
<rscale>  2 0.45427431E+03</rscale>
<asrwt>0</asrwt>
<pdfrwt beam="1">  1       21 0.14493457E-01 0.45427431E+03</pdfrwt>
<pdfrwt beam="2">  1       21 0.76981532E-01 0.45427431E+03</pdfrwt>
<totfact> 0.57672105E+04</totfact>
</mgrwt>
</event>
<event>
 7    0  0.4685107E-002  0.4604659E+03  0.7546771E-02  0.1024646E+00
         21   -1    0    0  502  501  0.00000000000E+00  0.00000000000E+00  0.14991739031E+04  0.14991739031E+04  0.00000000000E+00 0.  1.
         21   -1    0    0  501  502 -0.00000000000E+00 -0.00000000000E+00 -0.35357610141E+02  0.35357610141E+02  0.00000000000E+00 0.  1.
      99926    2    1    2    0    0  0.00000000000E+00  0.00000000000E+00  0.14638162929E+04  0.15345315132E+04  0.46046587886E+03 0.  0.
      99925    2    3    3    0    0 -0.11580324758E+03 -0.16459711320E+02  0.86822806467E+03  0.91481047920E+03  0.26339500059E+03 0.  0.
         25    1    4    4    0    0 -0.71951211505E+02  0.19437635957E+02  0.35940944175E+03  0.38778531877E+03  0.12509000000E+03 0.  0.
         25    1    4    4    0    0 -0.43852036079E+02 -0.35897347277E+02  0.50881862291E+03  0.52702516044E+03  0.12509000000E+03 0.  0.
         25    1    3    3    0    0  0.11580324758E+03  0.16459711320E+02  0.59558822825E+03  0.61972103400E+03  0.12509000000E+03 0.  0.
<mgrwt>
<rscale>  2 0.46046588E+03</rscale>
<asrwt>0</asrwt>
<pdfrwt beam="1">  1       21 0.22046671E+00 0.46046588E+03</pdfrwt>
<pdfrwt beam="2">  1       21 0.51996496E-02 0.46046588E+03</pdfrwt>
<totfact> 0.21996671E+04</totfact>
</mgrwt>
</event>
<event>
 7    0  0.4685107E-002  0.4616904E+03  0.7546771E-02  0.1024292E+00
         21   -1    0    0  502  501  0.00000000000E+00  0.00000000000E+00  0.10037769752E+04  0.10037769752E+04  0.00000000000E+00 0.  1.
         21   -1    0    0  501  502 -0.00000000000E+00 -0.00000000000E+00 -0.53088992932E+02  0.53088992932E+02  0.00000000000E+00 0.  1.
      99926    2    1    2    0    0 -0.35527136788E-14  0.00000000000E+00  0.95068798223E+03  0.10568659681E+04  0.46169041030E+03 0.  0.
      99925    2    3    3    0    0  0.18809807310E+02 -0.11230475191E+03  0.67678685892E+03  0.73494128808E+03  0.26292979740E+03 0.  0.
         25    1    4    4    0    0  0.27493884095E+01 -0.15326437091E+02  0.33535432233E+03  0.35826315526E+03  0.12509000000E+03 0.  0.
         25    1    3    3    0    0 -0.18809807310E+02  0.11230475191E+03  0.27390112330E+03  0.32192468001E+03  0.12509000000E+03 0.  0.
         25    1    4    4    0    0  0.16060418900E+02 -0.96978314823E+02  0.34143253659E+03  0.37667813282E+03  0.12509000000E+03 0.  0.
<mgrwt>
<rscale>  2 0.46169041E+03</rscale>
<asrwt>0</asrwt>
<pdfrwt beam="1">  1       21 0.14761425E+00 0.46169041E+03</pdfrwt>
<pdfrwt beam="2">  1       21 0.78072055E-02 0.46169041E+03</pdfrwt>
<totfact> 0.35154604E+04</totfact>
</mgrwt>
</event>
<event>
 7    0  0.4685107E-002  0.4528573E+03  0.7546771E-02  0.1026873E+00
         21   -1    0    0  502  501  0.00000000000E+00  0.00000000000E+00  0.24982622143E+03  0.24982622143E+03  0.00000000000E+00 0. -1.
         21   -1    0    0  501  502 -0.00000000000E+00 -0.00000000000E+00 -0.20522236919E+03  0.20522236919E+03  0.00000000000E+00 0. -1.
      99926    2    1    2    0    0  0.71054273576E-14  0.88817841970E-15  0.44603852238E+02  0.45504859061E+03  0.45285728015E+03 0.  0.
      99925    2    3    3    0    0  0.54618942901E+02 -0.42636022742E+01 -0.69026667529E+02  0.27739496597E+03  0.26302448381E+03 0.  0.
         25    1    4    4    0    0  0.62757774855E+02 -0.21513522571E+02 -0.27671510313E+02  0.14427262575E+03  0.12509000000E+03 0.  0.
         25    1    3    3    0    0 -0.54618942901E+02  0.42636022742E+01  0.11363051977E+03  0.17765362465E+03  0.12509000000E+03 0.  0.
         25    1    4    4    0    0 -0.81388319541E+01  0.17249920297E+02 -0.41355157216E+02  0.13312234021E+03  0.12509000000E+03 0.  0.
<mgrwt>
<rscale>  2 0.45285728E+03</rscale>
<asrwt>0</asrwt>
<pdfrwt beam="1">  1       21 0.36739150E-01 0.45285728E+03</pdfrwt>
<pdfrwt beam="2">  1       21 0.30179760E-01 0.45285728E+03</pdfrwt>
<totfact> 0.69726662E+04</totfact>
</mgrwt>
</event>
<event>
 7    0  0.4685107E-002  0.4560035E+03  0.7546771E-02  0.1025947E+00
         21   -1    0    0  502  501  0.00000000000E+00  0.00000000000E+00  0.12552765549E+04  0.12552765549E+04  0.00000000000E+00 0. -1.
         21   -1    0    0  501  502 -0.00000000000E+00 -0.00000000000E+00 -0.41413016457E+02  0.41413016457E+02  0.00000000000E+00 0. -1.
      99926    2    1    2    0    0  0.00000000000E+00  0.00000000000E+00  0.12138635384E+04  0.12966895713E+04  0.45600345887E+03 0.  0.
      99925    2    3    3    0    0  0.53261672715E+02  0.82590348965E+02  0.59856398553E+03  0.66115906899E+03  0.26304847122E+03 0.  0.
         25    1    4    4    0    0  0.76385215080E+01  0.45978326336E+02  0.21051882268E+03  0.24927502142E+03  0.12509000000E+03 0.  0.
         25    1    4    4    0    0  0.45623151207E+02  0.36612022628E+02  0.38804516286E+03  0.41188404757E+03  0.12509000000E+03 0.  0.
         25    1    3    3    0    0 -0.53261672715E+02 -0.82590348965E+02  0.61529955287E+03  0.63553050233E+03  0.12509000000E+03 0.  0.
<mgrwt>
<rscale>  2 0.45600346E+03</rscale>
<asrwt>0</asrwt>
<pdfrwt beam="1">  1       21 0.18459947E+00 0.45600346E+03</pdfrwt>
<pdfrwt beam="2">  1       21 0.60901503E-02 0.45600346E+03</pdfrwt>
<totfact> 0.28984138E+04</totfact>
</mgrwt>
</event>
<event>
 7    0  0.4685107E-002  0.4548776E+03  0.7546771E-02  0.1026277E+00
         21   -1    0    0  502  501  0.00000000000E+00  0.00000000000E+00  0.27130747643E+03  0.27130747643E+03  0.00000000000E+00 0.  1.
         21   -1    0    0  501  502 -0.00000000000E+00 -0.00000000000E+00 -0.19066336651E+03  0.19066336651E+03  0.00000000000E+00 0.  1.
      99926    2    1    2    0    0  0.14210854715E-13  0.00000000000E+00  0.80644109918E+02  0.46197084295E+03  0.45487755195E+03 0.  0.
      99925    2    3    3    0    0  0.68348356802E+02 -0.35809790893E+02  0.13436969948E+03  0.30548510534E+03  0.26327190212E+03 0.  0.
         25    1    4    4    0    0  0.65146896680E+02 -0.46629734828E+02  0.78645226651E+02  0.16808042745E+03  0.12509000000E+03 0.  0.
         25    1    4    4    0    0  0.32014601214E+01  0.10819943935E+02  0.55724472824E+02  0.13740467789E+03  0.12509000000E+03 0.  0.
         25    1    3    3    0    0 -0.68348356802E+02  0.35809790893E+02 -0.53725589558E+02  0.15648573761E+03  0.12509000000E+03 0.  0.
<mgrwt>
<rscale>  2 0.45487755E+03</rscale>
<asrwt>0</asrwt>
<pdfrwt beam="1">  1       21 0.39898158E-01 0.45487755E+03</pdfrwt>
<pdfrwt beam="2">  1       21 0.28038730E-01 0.45487755E+03</pdfrwt>
<totfact> 0.68101827E+04</totfact>
</mgrwt>
</event>
<event>
 7    0  0.4685107E-002  0.4544005E+03  0.7546771E-02  0.1026418E+00
         21   -1    0    0  502  501  0.00000000000E+00  0.00000000000E+00  0.34369106472E+03  0.34369106472E+03  0.00000000000E+00 0. -1.
         21   -1    0    0  501  502 -0.00000000000E+00 -0.00000000000E+00 -0.15019288229E+03  0.15019288229E+03  0.00000000000E+00 0. -1.
      99926    2    1    2    0    0  0.35527136788E-14  0.14210854715E-13  0.19349818243E+03  0.49388394701E+03  0.45440049132E+03 0.  0.
      99925    2    3    3    0    0  0.20655110507E+02  0.66278650978E+02  0.25867859519E+02  0.27350489532E+03  0.26327986714E+03 0.  0.
         25    1    3    3    0    0 -0.20655110507E+02 -0.66278650978E+02  0.16763032291E+03  0.22037905169E+03  0.12509000000E+03 0.  0.
         25    1    4    4    0    0  0.23041329191E+02  0.68563946449E+02 -0.51331870519E+01  0.14458829591E+03  0.12509000000E+03 0.  0.
         25    1    4    4    0    0 -0.23862186837E+01 -0.22852954709E+01  0.31001046571E+02  0.12891659941E+03  0.12509000000E+03 0.  0.
<mgrwt>
<rscale>  2 0.45440049E+03</rscale>
<asrwt>0</asrwt>
<pdfrwt beam="1">  1       21 0.50542803E-01 0.45440049E+03</pdfrwt>
<pdfrwt beam="2">  1       21 0.22087189E-01 0.45440049E+03</pdfrwt>
<totfact> 0.66016126E+04</totfact>
</mgrwt>
</event>
<event>
 7    0  0.4685107E-002  0.4562017E+03  0.7546771E-02  0.1025889E+00
         21   -1    0    0  502  501  0.00000000000E+00  0.00000000000E+00  0.16737367200E+04  0.16737367200E+04  0.00000000000E+00 0.  1.
         21   -1    0    0  501  502 -0.00000000000E+00 -0.00000000000E+00 -0.31086135154E+02  0.31086135154E+02  0.00000000000E+00 0.  1.
      99926    2    1    2    0    0  0.00000000000E+00  0.00000000000E+00  0.16426505848E+04  0.17048228551E+04  0.45620173559E+03 0.  0.
      99925    2    3    3    0    0  0.13635009041E+02  0.78289274411E+02  0.72615488886E+03  0.77642262206E+03  0.26308941724E+03 0.  0.
         25    1    4    4    0    0 -0.29853600990E+02  0.41139652569E+02  0.40945830375E+03  0.43114651699E+03  0.12509000000E+03 0.  0.
         25    1    3    3    0    0 -0.13635009041E+02 -0.78289274411E+02  0.91649569593E+03  0.92840023305E+03  0.12509000000E+03 0.  0.
         25    1    4    4    0    0  0.43488610031E+02  0.37149621842E+02  0.31669658511E+03  0.34527610506E+03  0.12509000000E+03 0.  0.
<mgrwt>
<rscale>  2 0.45620174E+03</rscale>
<asrwt>0</asrwt>
<pdfrwt beam="1">  1       21 0.24613769E+00 0.45620174E+03</pdfrwt>
<pdfrwt beam="2">  1       21 0.45714916E-02 0.45620174E+03</pdfrwt>
<totfact> 0.18983824E+04</totfact>
</mgrwt>
</event>
<event>
 7    0  0.4685107E-002  0.4535160E+03  0.7546771E-02  0.1026679E+00
         21   -1    0    0  502  501  0.00000000000E+00  0.00000000000E+00  0.20426981503E+03  0.20426981503E+03  0.00000000000E+00 0. -1.
         21   -1    0    0  501  502 -0.00000000000E+00 -0.00000000000E+00 -0.25172192761E+03  0.25172192761E+03  0.00000000000E+00 0. -1.
      99926    2    1    2    0    0  0.00000000000E+00  0.00000000000E+00 -0.47452112576E+02  0.45599174264E+03  0.45351600454E+03 0.  0.
      99925    2    3    3    0    0  0.38816613772E+02  0.84512036395E+02 -0.92167442252E+02  0.29383138186E+03  0.26304567998E+03 0.  0.
         25    1    4    4    0    0  0.37236037293E+02  0.62896051881E+02 -0.81990486805E+02  0.16647036926E+03  0.12509000000E+03 0.  0.
         25    1    3    3    0    0 -0.38816613772E+02 -0.84512036395E+02  0.44715329675E+02  0.16216036078E+03  0.12509000000E+03 0.  0.
         25    1    4    4    0    0  0.15805764788E+01  0.21615984514E+02 -0.10176955447E+02  0.12736101260E+03  0.12509000000E+03 0.  0.
<mgrwt>
<rscale>  2 0.45351600E+03</rscale>
<asrwt>0</asrwt>
<pdfrwt beam="1">  1       21 0.30039679E-01 0.45351600E+03</pdfrwt>
<pdfrwt beam="2">  1       21 0.37017930E-01 0.45351600E+03</pdfrwt>
<totfact> 0.69289944E+04</totfact>
</mgrwt>
</event>
<event>
 7    0  0.4685107E-002  0.4785060E+03  0.7546771E-02  0.1019547E+00
         21   -1    0    0  502  501  0.00000000000E+00  0.00000000000E+00  0.84181453617E+03  0.84181453617E+03  0.00000000000E+00 0. -1.
         21   -1    0    0  501  502 -0.00000000000E+00 -0.00000000000E+00 -0.67998344859E+02  0.67998344859E+02  0.00000000000E+00 0. -1.
      99926    2    1    2    0    0  0.00000000000E+00 -0.35527136788E-14  0.77381619131E+03  0.90981288103E+03  0.47850598800E+03 0.  0.
      99925    2    3    3    0    0 -0.48828017220E+02  0.67758682653E+01  0.24047785073E+03  0.35978798951E+03  0.26303557373E+03 0.  0.
         25    1    3    3    0    0  0.48828017220E+02 -0.67758682653E+01  0.53333834058E+03  0.55002489152E+03  0.12509000000E+03 0.  0.
         25    1    4    4    0    0 -0.25960120693E+02  0.33848523220E+02  0.15726743817E+03  0.20542688626E+03  0.12509000000E+03 0.  0.
         25    1    4    4    0    0 -0.22867896526E+02 -0.27072654954E+02  0.83210412562E+02  0.15436110325E+03  0.12509000000E+03 0.  0.
<mgrwt>
<rscale>  2 0.47850599E+03</rscale>
<asrwt>0</asrwt>
<pdfrwt beam="1">  1       21 0.12379625E+00 0.47850599E+03</pdfrwt>
<pdfrwt beam="2">  1       21 0.99997571E-02 0.47850599E+03</pdfrwt>
<totfact> 0.35762642E+04</totfact>
</mgrwt>
</event>
<event>
 7    0  0.4685107E-002  0.4563673E+03  0.7546771E-02  0.1025840E+00
         21   -1    0    0  502  501  0.00000000000E+00  0.00000000000E+00  0.12865814069E+04  0.12865814069E+04  0.00000000000E+00 0.  1.
         21   -1    0    0  501  502 -0.00000000000E+00 -0.00000000000E+00 -0.40469860141E+02  0.40469860141E+02  0.00000000000E+00 0.  1.
      99926    2    1    2    0    0  0.00000000000E+00  0.00000000000E+00  0.12461115467E+04  0.13270512670E+04  0.45636726261E+03 0.  0.
      99925    2    3    3    0    0 -0.49485459236E+02 -0.99922309382E+02  0.70880382757E+03  0.76421881258E+03  0.26304799741E+03 0.  0.
         25    1    4    4    0    0 -0.51794687132E+02 -0.23605085719E+02  0.30127759630E+03  0.33114285107E+03  0.12509000000E+03 0.  0.
         25    1    3    3    0    0  0.49485459236E+02  0.99922309382E+02  0.53730771915E+03  0.56283245441E+03  0.12509000000E+03 0.  0.
         25    1    4    4    0    0  0.23092278952E+01 -0.76317223663E+02  0.40752623127E+03  0.43307596150E+03  0.12509000000E+03 0.  0.
<mgrwt>
<rscale>  2 0.45636726E+03</rscale>
<asrwt>0</asrwt>
<pdfrwt beam="1">  1       21 0.18920312E+00 0.45636726E+03</pdfrwt>
<pdfrwt beam="2">  1       21 0.59514509E-02 0.45636726E+03</pdfrwt>
<totfact> 0.28039832E+04</totfact>
</mgrwt>
</event>
<event>
 7    0  0.4685107E-002  0.4594041E+03  0.7546771E-02  0.1024954E+00
         21   -1    0    0  502  501  0.00000000000E+00  0.00000000000E+00  0.17775657308E+03  0.17775657308E+03  0.00000000000E+00 0. -1.
         21   -1    0    0  501  502 -0.00000000000E+00 -0.00000000000E+00 -0.29682746087E+03  0.29682746087E+03  0.00000000000E+00 0. -1.
      99926    2    1    2    0    0  0.14210854715E-13 -0.71054273576E-14 -0.11907088779E+03  0.47458403394E+03  0.45940410202E+03 0.  0.
      99925    2    3    3    0    0  0.99873814436E+02 -0.46685421082E+02 -0.34341936824E+02  0.28755245751E+03  0.26334908362E+03 0.  0.
         25    1    3    3    0    0 -0.99873814436E+02  0.46685421082E+02 -0.84728950964E+02  0.18703157643E+03  0.12509000000E+03 0.  0.
         25    1    4    4    0    0  0.65303417607E+02 -0.61264265557E+02 -0.30920789481E+02  0.15691223632E+03  0.12509000000E+03 0.  0.
         25    1    4    4    0    0  0.34570396829E+02  0.14578844475E+02 -0.34211473426E+01  0.13064022119E+03  0.12509000000E+03 0.  0.
<mgrwt>
<rscale>  2 0.45940410E+03</rscale>
<asrwt>0</asrwt>
<pdfrwt beam="1">  1       21 0.26140673E-01 0.45940410E+03</pdfrwt>
<pdfrwt beam="2">  1       21 0.43651097E-01 0.45940410E+03</pdfrwt>
<totfact> 0.64802351E+04</totfact>
</mgrwt>
</event>
<event>
 7    0  0.4685107E-002  0.4493215E+03  0.7546771E-02  0.1027925E+00
         21   -1    0    0  502  501  0.00000000000E+00  0.00000000000E+00  0.11438322734E+03  0.11438322734E+03  0.00000000000E+00 0. -1.
         21   -1    0    0  501  502 -0.00000000000E+00 -0.00000000000E+00 -0.44125745317E+03  0.44125745317E+03  0.00000000000E+00 0. -1.
      99926    2    1    2    0    0 -0.17763568394E-14  0.00000000000E+00 -0.32687422583E+03  0.55564068051E+03  0.44932149552E+03 0.  0.
      99925    2    3    3    0    0  0.43760661433E+01  0.68909382442E+02 -0.30899185897E+03  0.41164436081E+03  0.26307310378E+03 0.  0.
         25    1    3    3    0    0 -0.43760661433E+01 -0.68909382442E+02 -0.17882366852E+02  0.14399631970E+03  0.12509000000E+03 0.  0.
         25    1    4    4    0    0  0.13448354316E+02  0.40523162243E+02 -0.97954707761E+02  0.16451631465E+03  0.12509000000E+03 0.  0.
         25    1    4    4    0    0 -0.90722881729E+01  0.28386220199E+02 -0.21103715121E+03  0.24712804617E+03  0.12509000000E+03 0.  0.
<mgrwt>
<rscale>  2 0.44932150E+03</rscale>
<asrwt>0</asrwt>
<pdfrwt beam="1">  1       21 0.16821063E-01 0.44932150E+03</pdfrwt>
<pdfrwt beam="2">  1       21 0.64890802E-01 0.44932150E+03</pdfrwt>
<totfact> 0.64337036E+04</totfact>
</mgrwt>
</event>
<event>
 6    0  0.4685107E-002  0.4591421E+03  0.7546771E-02  0.1025030E+00
         21   -1    0    0  502  501  0.00000000000E+00  0.00000000000E+00  0.50404449750E+03  0.50404449750E+03  0.00000000000E+00 0. -1.
         21   -1    0    0  501  502 -0.00000000000E+00 -0.00000000000E+00 -0.10455992669E+03  0.10455992669E+03  0.00000000000E+00 0. -1.
      99926    2    1    2    0    0 -0.26645352591E-14  0.00000000000E+00  0.39948457080E+03  0.60860442419E+03  0.45914205082E+03 0.  0.
         25    1    3    3    0    0 -0.22129421575E+01  0.71199218799E+02  0.26694537506E+03  0.30328463073E+03  0.12509000000E+03 0.  0.
         25    1    3    3    0    0 -0.31083072237E+02 -0.36278691056E+01  0.58342202354E+02  0.14152964173E+03  0.12509000000E+03 0.  0.
         25    1    3    3    0    0  0.33296014395E+02 -0.67571349693E+02  0.74196993391E+02  0.16379015173E+03  0.12509000000E+03 0.  0.
<mgrwt>
<rscale>  2 0.45914205E+03</rscale>
<asrwt>0</asrwt>
<pdfrwt beam="1">  1       21 0.74124190E-01 0.45914205E+03</pdfrwt>
<pdfrwt beam="2">  1       21 0.15376460E-01 0.45914205E+03</pdfrwt>
<totfact> 0.56287301E+04</totfact>
</mgrwt>
</event>
<event>
 7    0  0.4685107E-002  0.4519048E+03  0.7546771E-02  0.1027156E+00
         21   -1    0    0  502  501  0.00000000000E+00  0.00000000000E+00  0.13524933824E+03  0.13524933824E+03  0.00000000000E+00 0.  1.
         21   -1    0    0  501  502 -0.00000000000E+00 -0.00000000000E+00 -0.37748414533E+03  0.37748414533E+03  0.00000000000E+00 0.  1.
      99926    2    1    2    0    0  0.00000000000E+00  0.00000000000E+00 -0.24223480709E+03  0.51273348358E+03  0.45190477251E+03 0.  0.
      99925    2    3    3    0    0  0.99510519810E+02  0.17162479076E+02 -0.20304123360E+03  0.34726282592E+03  0.26299968343E+03 0.  0.
         25    1    4    4    0    0  0.75005533911E+02  0.11955871254E+02 -0.67606597559E+02  0.16120463116E+03  0.12509000000E+03 0.  0.
         25    1    4    4    0    0  0.24504985899E+02  0.52066078219E+01 -0.13543463604E+03  0.18605819476E+03  0.12509000000E+03 0.  0.
         25    1    3    3    0    0 -0.99510519810E+02 -0.17162479076E+02 -0.39193573496E+02  0.16547065765E+03  0.12509000000E+03 0.  0.
<mgrwt>
<rscale>  2 0.45190477E+03</rscale>
<asrwt>0</asrwt>
<pdfrwt beam="1">  1       21 0.19889609E-01 0.45190477E+03</pdfrwt>
<pdfrwt beam="2">  1       21 0.55512374E-01 0.45190477E+03</pdfrwt>
<totfact> 0.65991028E+04</totfact>
</mgrwt>
</event>
<event>
 7    0  0.4685107E-002  0.4498835E+03  0.7546771E-02  0.1027757E+00
         21   -1    0    0  502  501  0.00000000000E+00  0.00000000000E+00  0.25950118204E+03  0.25950118204E+03  0.00000000000E+00 0.  1.
         21   -1    0    0  501  502 -0.00000000000E+00 -0.00000000000E+00 -0.19498482175E+03  0.19498482175E+03  0.00000000000E+00 0.  1.
      99926    2    1    2    0    0  0.00000000000E+00  0.00000000000E+00  0.64516360286E+02  0.45448600380E+03  0.44988350370E+03 0.  0.
      99925    2    3    3    0    0 -0.93753599053E+02 -0.45767112586E+02  0.11958514735E+02  0.28333051554E+03  0.26315168446E+03 0.  0.
         25    1    4    4    0    0 -0.31189829056E+02 -0.18082418561E+02  0.43592235404E+02  0.13728645376E+03  0.12509000000E+03 0.  0.
         25    1    3    3    0    0  0.93753599053E+02  0.45767112586E+02  0.52557845551E+02  0.17115548825E+03  0.12509000000E+03 0.  0.
         25    1    4    4    0    0 -0.62563769998E+02 -0.27684694025E+02 -0.31633720669E+02  0.14604406179E+03  0.12509000000E+03 0.  0.
<mgrwt>
<rscale>  2 0.44988350E+03</rscale>
<asrwt>0</asrwt>
<pdfrwt beam="1">  1       21 0.38161938E-01 0.44988350E+03</pdfrwt>
<pdfrwt beam="2">  1       21 0.28674239E-01 0.44988350E+03</pdfrwt>
<totfact> 0.71455669E+04</totfact>
</mgrwt>
</event>
<event>
 7    0  0.4685107E-002  0.4564789E+03  0.7546771E-02  0.1025807E+00
         21   -1    0    0  502  501  0.00000000000E+00  0.00000000000E+00  0.13586189404E+04  0.13586189404E+04  0.00000000000E+00 0.  1.
         21   -1    0    0  501  502 -0.00000000000E+00 -0.00000000000E+00 -0.38342787402E+02  0.38342787402E+02  0.00000000000E+00 0.  1.
      99926    2    1    2    0    0  0.00000000000E+00  0.00000000000E+00  0.13202761530E+04  0.13969617278E+04  0.45647885906E+03 0.  0.
      99925    2    3    3    0    0 -0.73855898191E+02  0.39330247684E+02  0.58970956312E+03  0.65105515696E+03  0.26289520058E+03 0.  0.
         25    1    4    4    0    0 -0.82010911335E+01 -0.75017659857E+00  0.21935935537E+03  0.25265362762E+03  0.12509000000E+03 0.  0.
         25    1    3    3    0    0  0.73855898191E+02 -0.39330247684E+02  0.73056658986E+03  0.74590657082E+03  0.12509000000E+03 0.  0.
         25    1    4    4    0    0 -0.65654807058E+02  0.40080424282E+02  0.37035020774E+03  0.39840152933E+03  0.12509000000E+03 0.  0.
<mgrwt>
<rscale>  2 0.45647886E+03</rscale>
<asrwt>0</asrwt>
<pdfrwt beam="1">  1       21 0.19979687E+00 0.45647886E+03</pdfrwt>
<pdfrwt beam="2">  1       21 0.56386461E-02 0.45647886E+03</pdfrwt>
<totfact> 0.26111697E+04</totfact>
</mgrwt>
</event>
<event>
 7    0  0.4685107E-002  0.4702360E+03  0.7546771E-02  0.1021854E+00
         21   -1    0    0  502  501  0.00000000000E+00  0.00000000000E+00  0.19716801084E+04  0.19716801084E+04  0.00000000000E+00 0. -1.
         21   -1    0    0  501  502 -0.00000000000E+00 -0.00000000000E+00 -0.28037244016E+02  0.28037244016E+02  0.00000000000E+00 0. -1.
      99926    2    1    2    0    0  0.00000000000E+00  0.00000000000E+00  0.19436428644E+04  0.19997173524E+04  0.47023601019E+03 0.  0.
      99925    2    3    3    0    0  0.11515917713E+03  0.53070705373E+02  0.11826079088E+04  0.12181165288E+04  0.26299862318E+03 0.  0.
         25    1    4    4    0    0  0.61809681585E+02  0.52075059907E+02  0.74973188569E+03  0.76438057087E+03  0.12509000000E+03 0.  0.
         25    1    3    3    0    0 -0.11515917713E+03 -0.53070705373E+02  0.76103495552E+03  0.78160082361E+03  0.12509000000E+03 0.  0.
         25    1    4    4    0    0  0.53349495543E+02  0.99564546561E+00  0.43287602314E+03  0.45373595790E+03  0.12509000000E+03 0.  0.
<mgrwt>
<rscale>  2 0.47023601E+03</rscale>
<asrwt>0</asrwt>
<pdfrwt beam="1">  1       21 0.28995286E+00 0.47023601E+03</pdfrwt>
<pdfrwt beam="2">  1       21 0.41231255E-02 0.47023601E+03</pdfrwt>
<totfact> 0.12205821E+04</totfact>
</mgrwt>
</event>
<event>
 7    0  0.4685107E-002  0.4496327E+03  0.7546771E-02  0.1027832E+00
         21   -1    0    0  502  501  0.00000000000E+00  0.00000000000E+00  0.43100923885E+03  0.43100923885E+03  0.00000000000E+00 0. -1.
         21   -1    0    0  501  502 -0.00000000000E+00 -0.00000000000E+00 -0.11726522044E+03  0.11726522044E+03  0.00000000000E+00 0. -1.
      99926    2    1    2    0    0  0.00000000000E+00  0.00000000000E+00  0.31374401841E+03  0.54827445928E+03  0.44963270968E+03 0.  0.
      99925    2    3    3    0    0 -0.80619870346E+02  0.53925168216E+02  0.25681647775E+03  0.38006108215E+03  0.26283880166E+03 0.  0.
         25    1    4    4    0    0 -0.79714814660E+02  0.15068872904E+02  0.13215466835E+03  0.19923324791E+03  0.12509000000E+03 0.  0.
         25    1    4    4    0    0 -0.90505568576E+00  0.38856295313E+02  0.12466180941E+03  0.18082783424E+03  0.12509000000E+03 0.  0.
         25    1    3    3    0    0  0.80619870346E+02 -0.53925168216E+02  0.56927540662E+02  0.16821337714E+03  0.12509000000E+03 0.  0.
<mgrwt>
<rscale>  2 0.44963271E+03</rscale>
<asrwt>0</asrwt>
<pdfrwt beam="1">  1       21 0.63383711E-01 0.44963271E+03</pdfrwt>
<pdfrwt beam="2">  1       21 0.17244885E-01 0.44963271E+03</pdfrwt>
<totfact> 0.64684165E+04</totfact>
</mgrwt>
</event>
<event>
 7    0  0.4685107E-002  0.4563868E+03  0.7546771E-02  0.1025834E+00
         21   -1    0    0  502  501  0.00000000000E+00  0.00000000000E+00  0.49738735795E+02  0.49738735795E+02  0.00000000000E+00 0. -1.
         21   -1    0    0  501  502 -0.00000000000E+00 -0.00000000000E+00 -0.10469151560E+04  0.10469151560E+04  0.00000000000E+00 0. -1.
      99926    2    1    2    0    0  0.00000000000E+00  0.35527136788E-14 -0.99717642025E+03  0.10966538918E+04  0.45638683743E+03 0.  0.
      99925    2    3    3    0    0 -0.11221569588E+03  0.15862025432E+02 -0.66450460414E+03  0.72360964300E+03  0.26306003169E+03 0.  0.
         25    1    4    4    0    0 -0.42416390220E+02  0.42449230787E+02 -0.28155054603E+03  0.31387785112E+03  0.12509000000E+03 0.  0.
         25    1    3    3    0    0  0.11221569588E+03 -0.15862025432E+02 -0.33267181611E+03  0.37304424883E+03  0.12509000000E+03 0.  0.
         25    1    4    4    0    0 -0.69799305663E+02 -0.26587205356E+02 -0.38295405811E+03  0.40973179188E+03  0.12509000000E+03 0.  0.
<mgrwt>
<rscale>  2 0.45638684E+03</rscale>
<asrwt>0</asrwt>
<pdfrwt beam="1">  1       21 0.73145200E-02 0.45638684E+03</pdfrwt>
<pdfrwt beam="2">  1       21 0.15395811E+00 0.45638684E+03</pdfrwt>
<totfact> 0.35227819E+04</totfact>
</mgrwt>
</event>
<event>
 7    0  0.4685107E-002  0.4479536E+03  0.7546771E-02  0.1028334E+00
         21   -1    0    0  502  501  0.00000000000E+00  0.00000000000E+00  0.62679492424E+03  0.62679492424E+03  0.00000000000E+00 0. -1.
         21   -1    0    0  501  502 -0.00000000000E+00 -0.00000000000E+00 -0.80035120393E+02  0.80035120393E+02  0.00000000000E+00 0. -1.
      99926    2    1    2    0    0  0.00000000000E+00  0.88817841970E-15  0.54675980385E+03  0.70683004463E+03  0.44795360127E+03 0.  0.
      99925    2    3    3    0    0  0.82693823183E+02 -0.64434724218E+01  0.45149957727E+03  0.52906107772E+03  0.26300944651E+03 0.  0.
         25    1    4    4    0    0  0.47599602670E+02  0.49874666816E+01  0.30384680553E+03  0.33205569763E+03  0.12509000000E+03 0.  0.
         25    1    4    4    0    0  0.35094220513E+02 -0.11430939103E+02  0.14765277175E+03  0.19700538010E+03  0.12509000000E+03 0.  0.
         25    1    3    3    0    0 -0.82693823183E+02  0.64434724218E+01  0.95260226574E+02  0.17776896691E+03  0.12509000000E+03 0.  0.
<mgrwt>
<rscale>  2 0.44795360E+03</rscale>
<asrwt>0</asrwt>
<pdfrwt beam="1">  1       21 0.92175722E-01 0.44795360E+03</pdfrwt>
<pdfrwt beam="2">  1       21 0.11769871E-01 0.44795360E+03</pdfrwt>
<totfact> 0.55550072E+04</totfact>
</mgrwt>
</event>
<event>
 7    0  0.4685107E-002  0.4379322E+03  0.7546771E-02  0.1031383E+00
         21   -1    0    0  502  501  0.00000000000E+00  0.00000000000E+00  0.12207370109E+03  0.12207370109E+03  0.00000000000E+00 0. -1.
         21   -1    0    0  501  502 -0.00000000000E+00 -0.00000000000E+00 -0.39276396170E+03  0.39276396170E+03  0.00000000000E+00 0. -1.
      99926    2    1    2    0    0  0.00000000000E+00  0.00000000000E+00 -0.27069026061E+03  0.51483766279E+03  0.43793218863E+03 0.  0.
      99925    2    3    3    0    0 -0.92802363417E+02 -0.24135463357E+02 -0.18322684463E+03  0.33458185433E+03  0.26301737853E+03 0.  0.
         25    1    4    4    0    0 -0.69791727565E+02  0.21071525490E+01 -0.59214014463E+02  0.15501333148E+03  0.12509000000E+03 0.  0.
         25    1    4    4    0    0 -0.23010635852E+02 -0.26242615906E+02 -0.12401283017E+03  0.17956852285E+03  0.12509000000E+03 0.  0.
         25    1    3    3    0    0  0.92802363417E+02  0.24135463357E+02 -0.87463415982E+02  0.18025580846E+03  0.12509000000E+03 0.  0.
<mgrwt>
<rscale>  2 0.43793219E+03</rscale>
<asrwt>0</asrwt>
<pdfrwt beam="1">  1       21 0.17952015E-01 0.43793219E+03</pdfrwt>
<pdfrwt beam="2">  1       21 0.57759406E-01 0.43793219E+03</pdfrwt>
<totfact> 0.73721714E+04</totfact>
</mgrwt>
</event>
<event>
 7    0  0.4685107E-002  0.4550294E+03  0.7546771E-02  0.1026233E+00
         21   -1    0    0  502  501  0.00000000000E+00  0.00000000000E+00  0.69737394587E+02  0.69737394587E+02  0.00000000000E+00 0. -1.
         21   -1    0    0  501  502 -0.00000000000E+00 -0.00000000000E+00 -0.74225506034E+03  0.74225506034E+03  0.00000000000E+00 0. -1.
      99926    2    1    2    0    0 -0.14210854715E-13 -0.35527136788E-14 -0.67251766576E+03  0.81199245493E+03  0.45502937939E+03 0.  0.
      99925    2    3    3    0    0 -0.10698826234E+03 -0.29157520878E+02 -0.46352935749E+03  0.54437281739E+03  0.26303165163E+03 0.  0.
         25    1    4    4    0    0 -0.64390599934E+02  0.27152309373E+01 -0.30258667228E+03  0.33370604456E+03  0.12509000000E+03 0.  0.
         25    1    4    4    0    0 -0.42597662409E+02 -0.31872751815E+02 -0.16094268521E+03  0.21066677283E+03  0.12509000000E+03 0.  0.
         25    1    3    3    0    0  0.10698826234E+03  0.29157520878E+02 -0.20898830827E+03  0.26761963754E+03  0.12509000000E+03 0.  0.
<mgrwt>
<rscale>  2 0.45502938E+03</rscale>
<asrwt>0</asrwt>
<pdfrwt beam="1">  1       21 0.10255500E-01 0.45502938E+03</pdfrwt>
<pdfrwt beam="2">  1       21 0.10915515E+00 0.45502938E+03</pdfrwt>
<totfact> 0.47179339E+04</totfact>
</mgrwt>
</event>
<event>
 7    0  0.4685107E-002  0.4561750E+03  0.7546771E-02  0.1025896E+00
         21   -1    0    0  502  501  0.00000000000E+00  0.00000000000E+00  0.13758759987E+03  0.13758759987E+03  0.00000000000E+00 0.  1.
         21   -1    0    0  501  502 -0.00000000000E+00 -0.00000000000E+00 -0.37811477207E+03  0.37811477207E+03  0.00000000000E+00 0.  1.
      99926    2    1    2    0    0  0.00000000000E+00 -0.71054273576E-14 -0.24052717220E+03  0.51570237194E+03  0.45617498382E+03 0.  0.
      99925    2    3    3    0    0  0.65498192438E+02  0.51409937534E+02 -0.62661655781E+02  0.28285769212E+03  0.26296196682E+03 0.  0.
         25    1    3    3    0    0 -0.65498192438E+02 -0.51409937534E+02 -0.17786551642E+03  0.23284467982E+03  0.12509000000E+03 0.  0.
         25    1    4    4    0    0  0.41370493685E+02 -0.13713723811E+02 -0.36585455906E+02  0.13742484365E+03  0.12509000000E+03 0.  0.
         25    1    4    4    0    0  0.24127698753E+02  0.65123661345E+02 -0.26076199875E+02  0.14543284847E+03  0.12509000000E+03 0.  0.
<mgrwt>
<rscale>  2 0.45617498E+03</rscale>
<asrwt>0</asrwt>
<pdfrwt beam="1">  1       21 0.20233471E-01 0.45617498E+03</pdfrwt>
<pdfrwt beam="2">  1       21 0.55605114E-01 0.45617498E+03</pdfrwt>
<totfact> 0.63586095E+04</totfact>
</mgrwt>
</event>
<event>
 7    0  0.4685107E-002  0.4557914E+03  0.7546771E-02  0.1026009E+00
         21   -1    0    0  502  501  0.00000000000E+00  0.00000000000E+00  0.52781636594E+02  0.52781636594E+02  0.00000000000E+00 0.  1.
         21   -1    0    0  501  502 -0.00000000000E+00 -0.00000000000E+00 -0.98398711110E+03  0.98398711110E+03  0.00000000000E+00 0.  1.
      99926    2    1    2    0    0  0.00000000000E+00  0.00000000000E+00 -0.93120547451E+03  0.10367687477E+04  0.45579140014E+03 0.  0.
      99925    2    3    3    0    0 -0.69093764962E+02 -0.65408727741E+02 -0.44245530585E+03  0.52337174197E+03  0.26286694847E+03 0.  0.
         25    1    4    4    0    0 -0.16130423911E+02  0.54231530497E+01 -0.20736660918E+03  0.24277153842E+03  0.12509000000E+03 0.  0.
         25    1    3    3    0    0  0.69093764962E+02  0.65408727741E+02 -0.48875016866E+03  0.51339700573E+03  0.12509000000E+03 0.  0.
         25    1    4    4    0    0 -0.52963341051E+02 -0.70831880790E+02 -0.23508869667E+03  0.28060020355E+03  0.12509000000E+03 0.  0.
<mgrwt>
<rscale>  2 0.45579140E+03</rscale>
<asrwt>0</asrwt>
<pdfrwt beam="1">  1       21 0.77620055E-02 0.45579140E+03</pdfrwt>
<pdfrwt beam="2">  1       21 0.14470399E+00 0.45579140E+03</pdfrwt>
<totfact> 0.37534245E+04</totfact>
</mgrwt>
</event>
<event>
 7    0  0.4685107E-002  0.4498414E+03  0.7546771E-02  0.1027769E+00
         21   -1    0    0  502  501  0.00000000000E+00  0.00000000000E+00  0.33059179803E+03  0.33059179803E+03  0.00000000000E+00 0. -1.
         21   -1    0    0  501  502 -0.00000000000E+00 -0.00000000000E+00 -0.15302655992E+03  0.15302655992E+03  0.00000000000E+00 0. -1.
      99926    2    1    2    0    0  0.00000000000E+00  0.00000000000E+00  0.17756523811E+03  0.48361835795E+03  0.44984141913E+03 0.  0.
      99925    2    3    3    0    0 -0.42859368423E+02  0.79271394659E+02  0.47618757659E+02  0.28198880815E+03  0.26292444232E+03 0.  0.
         25    1    4    4    0    0 -0.16603754197E+02  0.14206685237E+02 -0.10103473152E+02  0.12738564609E+03  0.12509000000E+03 0.  0.
         25    1    3    3    0    0  0.42859368423E+02 -0.79271394659E+02  0.12994648045E+03  0.20162954981E+03  0.12509000000E+03 0.  0.
         25    1    4    4    0    0 -0.26255614225E+02  0.65064709422E+02  0.57722230810E+02  0.15460316206E+03  0.12509000000E+03 0.  0.
<mgrwt>
<rscale>  2 0.44984142E+03</rscale>
<asrwt>0</asrwt>
<pdfrwt beam="1">  1       21 0.48616441E-01 0.44984142E+03</pdfrwt>
<pdfrwt beam="2">  1       21 0.22503906E-01 0.44984142E+03</pdfrwt>
<totfact> 0.69229550E+04</totfact>
</mgrwt>
</event>
<event>
 7    0  0.4685107E-002  0.4580908E+03  0.7546771E-02  0.1025336E+00
         21   -1    0    0  502  501  0.00000000000E+00  0.00000000000E+00  0.13195743331E+04  0.13195743331E+04  0.00000000000E+00 0. -1.
         21   -1    0    0  501  502 -0.00000000000E+00 -0.00000000000E+00 -0.39756599273E+02  0.39756599273E+02  0.00000000000E+00 0. -1.
      99926    2    1    2    0    0  0.00000000000E+00  0.00000000000E+00  0.12798177338E+04  0.13593309324E+04  0.45809076818E+03 0.  0.
      99925    2    3    3    0    0  0.24854762596E+02  0.59683233423E+02  0.51698745662E+03  0.58361359500E+03  0.26296188011E+03 0.  0.
         25    1    4    4    0    0 -0.24310405440E+02  0.42164359701E+02  0.23186427637E+03  0.26791300789E+03  0.12509000000E+03 0.  0.
         25    1    3    3    0    0 -0.24854762596E+02 -0.59683233423E+02  0.76283027721E+03  0.77571733737E+03  0.12509000000E+03 0.  0.
         25    1    4    4    0    0  0.49165168036E+02  0.17518873722E+02  0.28512318025E+03  0.31570058711E+03  0.12509000000E+03 0.  0.
<mgrwt>
<rscale>  2 0.45809077E+03</rscale>
<asrwt>0</asrwt>
<pdfrwt beam="1">  1       21 0.19405502E+00 0.45809077E+03</pdfrwt>
<pdfrwt beam="2">  1       21 0.58465596E-02 0.45809077E+03</pdfrwt>
<totfact> 0.26786883E+04</totfact>
</mgrwt>
</event>
<event>
 7    0  0.4685107E-002  0.4329676E+03  0.7546771E-02  0.1032927E+00
         21   -1    0    0  502  501  0.00000000000E+00  0.00000000000E+00  0.47243585974E+03  0.47243585974E+03  0.00000000000E+00 0. -1.
         21   -1    0    0  501  502 -0.00000000000E+00 -0.00000000000E+00 -0.99199160083E+02  0.99199160083E+02  0.00000000000E+00 0. -1.
      99926    2    1    2    0    0  0.00000000000E+00  0.35527136788E-14  0.37323669965E+03  0.57163501982E+03  0.43296762225E+03 0.  0.
      99925    2    3    3    0    0 -0.86832262747E+02 -0.23015711617E+02  0.25917582601E+03  0.37999223798E+03  0.26296849108E+03 0.  0.
         25    1    3    3    0    0  0.86832262747E+02  0.23015711617E+02  0.11406087364E+03  0.19164278184E+03  0.12509000000E+03 0.  0.
         25    1    4    4    0    0 -0.48771512761E+02 -0.51765093411E+02  0.13978757115E+03  0.20061495084E+03  0.12509000000E+03 0.  0.
         25    1    4    4    0    0 -0.38060749986E+02  0.28749381794E+02  0.11938825486E+03  0.17937728714E+03  0.12509000000E+03 0.  0.
<mgrwt>
<rscale>  2 0.43296762E+03</rscale>
<asrwt>0</asrwt>
<pdfrwt beam="1">  1       21 0.69475861E-01 0.43296762E+03</pdfrwt>
<pdfrwt beam="2">  1       21 0.14588112E-01 0.43296762E+03</pdfrwt>
<totfact> 0.72246341E+04</totfact>
</mgrwt>
</event>
<event>
 7    0  0.4685107E-002  0.4574292E+03  0.7546771E-02  0.1025529E+00
         21   -1    0    0  502  501  0.00000000000E+00  0.00000000000E+00  0.17027987980E+03  0.17027987980E+03  0.00000000000E+00 0.  1.
         21   -1    0    0  501  502 -0.00000000000E+00 -0.00000000000E+00 -0.30720225071E+03  0.30720225071E+03  0.00000000000E+00 0.  1.
      99926    2    1    2    0    0  0.00000000000E+00  0.00000000000E+00 -0.13692237091E+03  0.47748213051E+03  0.45742917408E+03 0.  0.
      99925    2    3    3    0    0  0.10184106339E+03  0.41301922269E+02 -0.12278906592E+03  0.31037525039E+03  0.26301747160E+03 0.  0.
         25    1    3    3    0    0 -0.10184106339E+03 -0.41301922269E+02 -0.14133304987E+02  0.16710688012E+03  0.12509000000E+03 0.  0.
         25    1    4    4    0    0  0.94089078577E+02  0.25278420665E+02 -0.63325709801E+02  0.17073197381E+03  0.12509000000E+03 0.  0.
         25    1    4    4    0    0  0.77519848090E+01  0.16023501604E+02 -0.59463356122E+02  0.13964327658E+03  0.12509000000E+03 0.  0.
<mgrwt>
<rscale>  2 0.45742917E+03</rscale>
<asrwt>0</asrwt>
<pdfrwt beam="1">  1       21 0.25041159E-01 0.45742917E+03</pdfrwt>
<pdfrwt beam="2">  1       21 0.45176801E-01 0.45742917E+03</pdfrwt>
<totfact> 0.65609833E+04</totfact>
</mgrwt>
</event>
<event>
 7    0  0.4685107E-002  0.4671821E+03  0.7546771E-02  0.1022719E+00
         21   -1    0    0  502  501  0.00000000000E+00  0.00000000000E+00  0.25324499699E+03  0.25324499699E+03  0.00000000000E+00 0.  1.
         21   -1    0    0  501  502 -0.00000000000E+00 -0.00000000000E+00 -0.21546239525E+03  0.21546239525E+03  0.00000000000E+00 0.  1.
      99926    2    1    2    0    0  0.00000000000E+00  0.00000000000E+00  0.37782601739E+02  0.46870739225E+03  0.46718207859E+03 0.  0.
      99925    2    3    3    0    0  0.76771098959E+02  0.82890425965E+02 -0.28821454302E+02  0.28746657804E+03  0.26275793596E+03 0.  0.
         25    1    3    3    0    0 -0.76771098959E+02 -0.82890425965E+02  0.66604056040E+02  0.18124081420E+03  0.12509000000E+03 0.  0.
         25    1    4    4    0    0  0.51614017513E+01  0.17115833903E+02 -0.25989047085E+02  0.12900593206E+03  0.12509000000E+03 0.  0.
         25    1    4    4    0    0  0.71609697207E+02  0.65774592062E+02 -0.28324072168E+01  0.15846064598E+03  0.12509000000E+03 0.  0.
<mgrwt>
<rscale>  2 0.46718208E+03</rscale>
<asrwt>0</asrwt>
<pdfrwt beam="1">  1       21 0.37241911E-01 0.46718208E+03</pdfrwt>
<pdfrwt beam="2">  1       21 0.31685646E-01 0.46718208E+03</pdfrwt>
<totfact> 0.61367842E+04</totfact>
</mgrwt>
</event>
<event>
 7    0  0.4685107E-002  0.4551302E+03  0.7546771E-02  0.1026203E+00
         21   -1    0    0  502  501  0.00000000000E+00  0.00000000000E+00  0.22918035373E+03  0.22918035373E+03  0.00000000000E+00 0. -1.
         21   -1    0    0  501  502 -0.00000000000E+00 -0.00000000000E+00 -0.22596120743E+03  0.22596120743E+03  0.00000000000E+00 0. -1.
      99926    2    1    2    0    0  0.00000000000E+00  0.00000000000E+00  0.32191462989E+01  0.45514156116E+03  0.45513017676E+03 0.  0.
      99925    2    3    3    0    0  0.10299644961E+02 -0.20467768927E+02  0.11319515886E+03  0.28701290896E+03  0.26275131526E+03 0.  0.
         25    1    3    3    0    0 -0.10299644961E+02  0.20467768927E+02 -0.10997601256E+03  0.16812865220E+03  0.12509000000E+03 0.  0.
         25    1    4    4    0    0 -0.32150818277E+01  0.19006882944E+02  0.84146951630E+02  0.15198623595E+03  0.12509000000E+03 0.  0.
         25    1    4    4    0    0  0.13514726789E+02 -0.39474651871E+02  0.29048207232E+02  0.13502667301E+03  0.12509000000E+03 0.  0.
<mgrwt>
<rscale>  2 0.45513018E+03</rscale>
<asrwt>0</asrwt>
<pdfrwt beam="1">  1       21 0.33702993E-01 0.45513018E+03</pdfrwt>
<pdfrwt beam="2">  1       21 0.33229589E-01 0.45513018E+03</pdfrwt>
<totfact> 0.68464281E+04</totfact>
</mgrwt>
</event>
<event>
 7    0  0.4685107E-002  0.4486760E+03  0.7546771E-02  0.1028118E+00
         21   -1    0    0  502  501  0.00000000000E+00  0.00000000000E+00  0.14740721510E+04  0.14740721510E+04  0.00000000000E+00 0.  1.
         21   -1    0    0  501  502 -0.00000000000E+00 -0.00000000000E+00 -0.34141847558E+02  0.34141847558E+02  0.00000000000E+00 0.  1.
      99926    2    1    2    0    0  0.14210854715E-13  0.00000000000E+00  0.14399303034E+04  0.15082139985E+04  0.44867603755E+03 0.  0.
      99925    2    3    3    0    0  0.75445970890E+02  0.30845129649E+01  0.11661188484E+04  0.11978564149E+04  0.26329681593E+03 0.  0.
         25    1    4    4    0    0  0.51954165015E+02  0.31062196634E+02  0.71074731462E+03  0.72420532218E+03  0.12509000000E+03 0.  0.
         25    1    4    4    0    0  0.23491805874E+02 -0.27977683669E+02  0.45537153380E+03  0.47365109271E+03  0.12509000000E+03 0.  0.
         25    1    3    3    0    0 -0.75445970890E+02 -0.30845129649E+01  0.27381145498E+03  0.31035758364E+03  0.12509000000E+03 0.  0.
<mgrwt>
<rscale>  2 0.44867604E+03</rscale>
<asrwt>0</asrwt>
<pdfrwt beam="1">  1       21 0.21677527E+00 0.44867604E+03</pdfrwt>
<pdfrwt beam="2">  1       21 0.50208609E-02 0.44867604E+03</pdfrwt>
<totfact> 0.24773223E+04</totfact>
</mgrwt>
</event>
<event>
 7    0  0.4685107E-002  0.4530704E+03  0.7546771E-02  0.1026810E+00
         21   -1    0    0  502  501  0.00000000000E+00  0.00000000000E+00  0.10846230359E+03  0.10846230359E+03  0.00000000000E+00 0.  1.
         21   -1    0    0  501  502 -0.00000000000E+00 -0.00000000000E+00 -0.47314316137E+03  0.47314316137E+03  0.00000000000E+00 0.  1.
      99926    2    1    2    0    0 -0.14210854715E-13  0.00000000000E+00 -0.36468085777E+03  0.58160546496E+03  0.45307040165E+03 0.  0.
      99925    2    3    3    0    0  0.95019866537E+02 -0.57199545679E+02 -0.24326463409E+03  0.37498995118E+03  0.26294337456E+03 0.  0.
         25    1    4    4    0    0  0.52434046488E+02 -0.55489150730E+02 -0.87349594115E+02  0.17060432225E+03  0.12509000000E+03 0.  0.
         25    1    3    3    0    0 -0.95019866537E+02  0.57199545679E+02 -0.12141622368E+03  0.20661551378E+03  0.12509000000E+03 0.  0.
         25    1    4    4    0    0  0.42585820049E+02 -0.17103949492E+01 -0.15591503998E+03  0.20438562893E+03  0.12509000000E+03 0.  0.
<mgrwt>
<rscale>  2 0.45307040E+03</rscale>
<asrwt>0</asrwt>
<pdfrwt beam="1">  1       21 0.15950339E-01 0.45307040E+03</pdfrwt>
<pdfrwt beam="2">  1       21 0.69579876E-01 0.45307040E+03</pdfrwt>
<totfact> 0.60746367E+04</totfact>
</mgrwt>
</event>
<event>
 7    0  0.4685107E-002  0.4536549E+03  0.7546771E-02  0.1026638E+00
         21   -1    0    0  502  501  0.00000000000E+00  0.00000000000E+00  0.59853094755E+03  0.59853094755E+03  0.00000000000E+00 0.  1.
         21   -1    0    0  501  502 -0.00000000000E+00 -0.00000000000E+00 -0.85961609568E+02  0.85961609568E+02  0.00000000000E+00 0.  1.
      99926    2    1    2    0    0  0.17763568394E-14 -0.35527136788E-14  0.51256933798E+03  0.68449255711E+03  0.45365486276E+03 0.  0.
      99925    2    3    3    0    0  0.11841318153E+02  0.10566125287E+02  0.49012648641E+03  0.55641816660E+03  0.26291698999E+03 0.  0.
         25    1    4    4    0    0  0.53856843860E+01 -0.34174685031E+02  0.22327205150E+03  0.25825342548E+03  0.12509000000E+03 0.  0.
         25    1    4    4    0    0  0.64556337670E+01  0.44740810318E+02  0.26685443491E+03  0.29816474112E+03  0.12509000000E+03 0.  0.
         25    1    3    3    0    0 -0.11841318153E+02 -0.10566125287E+02  0.22442851573E+02  0.12807439052E+03  0.12509000000E+03 0.  0.
<mgrwt>
<rscale>  2 0.45365486E+03</rscale>
<asrwt>0</asrwt>
<pdfrwt beam="1">  1       21 0.88019255E-01 0.45365486E+03</pdfrwt>
<pdfrwt beam="2">  1       21 0.12641413E-01 0.45365486E+03</pdfrwt>
<totfact> 0.54326332E+04</totfact>
</mgrwt>
</event>
<event>
 7    0  0.4685107E-002  0.4595751E+03  0.7546771E-02  0.1024905E+00
         21   -1    0    0  502  501  0.00000000000E+00  0.00000000000E+00  0.29991298858E+03  0.29991298858E+03  0.00000000000E+00 0.  1.
         21   -1    0    0  501  502 -0.00000000000E+00 -0.00000000000E+00 -0.17605876771E+03  0.17605876771E+03  0.00000000000E+00 0.  1.
      99926    2    1    2    0    0  0.00000000000E+00  0.00000000000E+00  0.12385422087E+03  0.47597175629E+03  0.45957506977E+03 0.  0.
      99925    2    3    3    0    0 -0.42387525181E+01  0.62294852453E+02 -0.25314771873E+02  0.27152735758E+03  0.26303545878E+03 0.  0.
         25    1    4    4    0    0 -0.16235954852E+02  0.11141904268E+02 -0.45087583561E+02  0.13441780593E+03  0.12509000000E+03 0.  0.
         25    1    4    4    0    0  0.11997202334E+02  0.51152948185E+02  0.19772811688E+02  0.13710955165E+03  0.12509000000E+03 0.  0.
         25    1    3    3    0    0  0.42387525181E+01 -0.62294852453E+02  0.14916899274E+03  0.20444439870E+03  0.12509000000E+03 0.  0.
<mgrwt>
<rscale>  2 0.45957507E+03</rscale>
<asrwt>0</asrwt>
<pdfrwt beam="1">  1       21 0.44104851E-01 0.45957507E+03</pdfrwt>
<pdfrwt beam="2">  1       21 0.25890995E-01 0.45957507E+03</pdfrwt>
<totfact> 0.64616691E+04</totfact>
</mgrwt>
</event>
<event>
 7    0  0.4685107E-002  0.4433576E+03  0.7546771E-02  0.1029722E+00
         21   -1    0    0  502  501  0.00000000000E+00  0.00000000000E+00  0.35239646341E+02  0.35239646341E+02  0.00000000000E+00 0.  1.
         21   -1    0    0  501  502 -0.00000000000E+00 -0.00000000000E+00 -0.13944943597E+04  0.13944943597E+04  0.00000000000E+00 0.  1.
      99926    2    1    2    0    0  0.14210854715E-13 -0.17763568394E-14 -0.13592547134E+04  0.14297340061E+04  0.44335758959E+03 0.  0.
      99925    2    3    3    0    0  0.98115681381E+02  0.12331229278E+02 -0.78571461466E+03  0.83444038180E+03  0.26299153777E+03 0.  0.
         25    1    3    3    0    0 -0.98115681381E+02 -0.12331229278E+02 -0.57354009873E+03  0.59529362428E+03  0.12509000000E+03 0.  0.
         25    1    4    4    0    0  0.83549281146E+02  0.31127059039E+02 -0.43520526884E+03  0.46151978322E+03  0.12509000000E+03 0.  0.
         25    1    4    4    0    0  0.14566400236E+02 -0.18795829760E+02 -0.35050934582E+03  0.37292059857E+03  0.12509000000E+03 0.  0.
<mgrwt>
<rscale>  2 0.44335759E+03</rscale>
<asrwt>0</asrwt>
<pdfrwt beam="1">  1       21 0.51823011E-02 0.44335759E+03</pdfrwt>
<pdfrwt beam="2">  1       21 0.20507269E+00 0.44335759E+03</pdfrwt>
<totfact> 0.27998896E+04</totfact>
</mgrwt>
</event>
<event>
 7    0  0.4685107E-002  0.4547380E+03  0.7546771E-02  0.1026318E+00
         21   -1    0    0  502  501  0.00000000000E+00  0.00000000000E+00  0.78696335864E+02  0.78696335864E+02  0.00000000000E+00 0. -1.
         21   -1    0    0  501  502 -0.00000000000E+00 -0.00000000000E+00 -0.65691313523E+03  0.65691313523E+03  0.00000000000E+00 0. -1.
      99926    2    1    2    0    0  0.00000000000E+00  0.00000000000E+00 -0.57821679937E+03  0.73560947110E+03  0.45473797609E+03 0.  0.
      99925    2    3    3    0    0 -0.10387919007E+03 -0.43476896023E+02 -0.37807668335E+03  0.47410478518E+03  0.26296813917E+03 0.  0.
         25    1    3    3    0    0  0.10387919007E+03  0.43476896023E+02 -0.20014011602E+03  0.26150468592E+03  0.12509000000E+03 0.  0.
         25    1    4    4    0    0 -0.95282241949E+01 -0.25975972671E+02 -0.15884091055E+03  0.20406734471E+03  0.12509000000E+03 0.  0.
         25    1    4    4    0    0 -0.94350965875E+02 -0.17500923352E+02 -0.21923577280E+03  0.27003744047E+03  0.12509000000E+03 0.  0.
<mgrwt>
<rscale>  2 0.45473798E+03</rscale>
<asrwt>0</asrwt>
<pdfrwt beam="1">  1       21 0.11572991E-01 0.45473798E+03</pdfrwt>
<pdfrwt beam="2">  1       21 0.96604873E-01 0.45473798E+03</pdfrwt>
<totfact> 0.51117115E+04</totfact>
</mgrwt>
</event>
<event>
 7    0  0.4685107E-002  0.4475154E+03  0.7546771E-02  0.1028466E+00
         21   -1    0    0  502  501  0.00000000000E+00  0.00000000000E+00  0.17743186441E+03  0.17743186441E+03  0.00000000000E+00 0. -1.
         21   -1    0    0  501  502 -0.00000000000E+00 -0.00000000000E+00 -0.28217882909E+03  0.28217882909E+03  0.00000000000E+00 0. -1.
      99926    2    1    2    0    0  0.00000000000E+00  0.00000000000E+00 -0.10474696468E+03  0.45961069351E+03  0.44751543323E+03 0.  0.
      99925    2    3    3    0    0 -0.59372415045E+02  0.30120758763E+02 -0.15109709732E+03  0.31051949097E+03  0.26298227636E+03 0.  0.
         25    1    4    4    0    0 -0.58523732245E+02 -0.72735655097E+01 -0.98371619803E+02  0.16971274458E+03  0.12509000000E+03 0.  0.
         25    1    4    4    0    0 -0.84868280011E+00  0.37394324272E+02 -0.52725477513E+02  0.14080674639E+03  0.12509000000E+03 0.  0.
         25    1    3    3    0    0  0.59372415045E+02 -0.30120758763E+02  0.46350132637E+02  0.14909120253E+03  0.12509000000E+03 0.  0.
<mgrwt>
<rscale>  2 0.44751543E+03</rscale>
<asrwt>0</asrwt>
<pdfrwt beam="1">  1       21 0.26092922E-01 0.44751543E+03</pdfrwt>
<pdfrwt beam="2">  1       21 0.41496886E-01 0.44751543E+03</pdfrwt>
<totfact> 0.72421464E+04</totfact>
</mgrwt>
</event>
<event>
 7    0  0.4685107E-002  0.4637442E+03  0.7546771E-02  0.1023701E+00
         21   -1    0    0  502  501  0.00000000000E+00  0.00000000000E+00  0.15512616524E+03  0.15512616524E+03  0.00000000000E+00 0. -1.
         21   -1    0    0  501  502 -0.00000000000E+00 -0.00000000000E+00 -0.34658675904E+03  0.34658675904E+03  0.00000000000E+00 0. -1.
      99926    2    1    2    0    0  0.00000000000E+00 -0.14210854715E-13 -0.19146059380E+03  0.50171292428E+03  0.46374421766E+03 0.  0.
      99925    2    3    3    0    0 -0.35914751275E+02  0.11158699381E+03 -0.86212620228E+02  0.30055087372E+03  0.26297658691E+03 0.  0.
         25    1    4    4    0    0  0.11332114760E+02  0.74083097883E+02 -0.21720135734E+02  0.14743132168E+03  0.12509000000E+03 0.  0.
         25    1    4    4    0    0 -0.47246866035E+02  0.37503895924E+02 -0.64492484495E+02  0.15311955204E+03  0.12509000000E+03 0.  0.
         25    1    3    3    0    0  0.35914751275E+02 -0.11158699381E+03 -0.10524797357E+03  0.20116205056E+03  0.12509000000E+03 0.  0.
<mgrwt>
<rscale>  2 0.46374422E+03</rscale>
<asrwt>0</asrwt>
<pdfrwt beam="1">  1       21 0.22812672E-01 0.46374422E+03</pdfrwt>
<pdfrwt beam="2">  1       21 0.50968640E-01 0.46374422E+03</pdfrwt>
<totfact> 0.60817918E+04</totfact>
</mgrwt>
</event>
<event>
 7    0  0.4685107E-002  0.4446491E+03  0.7546771E-02  0.1029330E+00
         21   -1    0    0  502  501  0.00000000000E+00  0.00000000000E+00  0.87933719837E+03  0.87933719837E+03  0.00000000000E+00 0. -1.
         21   -1    0    0  501  502 -0.00000000000E+00 -0.00000000000E+00 -0.56210762968E+02  0.56210762968E+02  0.00000000000E+00 0. -1.
      99926    2    1    2    0    0  0.00000000000E+00  0.00000000000E+00  0.82312643540E+03  0.93554796134E+03  0.44464914180E+03 0.  0.
      99925    2    3    3    0    0 -0.58481338940E+02  0.70016664106E+02  0.42174563815E+03  0.50534283264E+03  0.26302014171E+03 0.  0.
         25    1    4    4    0    0 -0.23042552450E+02  0.62005850115E+02  0.27395185934E+03  0.30833879744E+03  0.12509000000E+03 0.  0.
         25    1    4    4    0    0 -0.35438786490E+02  0.80108139903E+01  0.14779377881E+03  0.19700403520E+03  0.12509000000E+03 0.  0.
         25    1    3    3    0    0  0.58481338940E+02 -0.70016664106E+02  0.40138079725E+03  0.43020512870E+03  0.12509000000E+03 0.  0.
<mgrwt>
<rscale>  2 0.44464914E+03</rscale>
<asrwt>0</asrwt>
<pdfrwt beam="1">  1       21 0.12931429E+00 0.44464914E+03</pdfrwt>
<pdfrwt beam="2">  1       21 0.82662892E-02 0.44464914E+03</pdfrwt>
<totfact> 0.45288190E+04</totfact>
</mgrwt>
</event>
<event>
 7    0  0.4685107E-002  0.4598543E+03  0.7546771E-02  0.1024823E+00
         21   -1    0    0  502  501  0.00000000000E+00  0.00000000000E+00  0.65056553273E+03  0.65056553273E+03  0.00000000000E+00 0. -1.
         21   -1    0    0  501  502 -0.00000000000E+00 -0.00000000000E+00 -0.81262366510E+02  0.81262366510E+02  0.00000000000E+00 0. -1.
      99926    2    1    2    0    0  0.00000000000E+00  0.00000000000E+00  0.56930316622E+03  0.73182789924E+03  0.45985430197E+03 0.  0.
      99925    2    3    3    0    0 -0.38182434390E+02 -0.78285760608E+02  0.23076815836E+03  0.36055977745E+03  0.26298831075E+03 0.  0.
         25    1    4    4    0    0 -0.23493212020E+02 -0.10811872659E+02  0.70701765925E+02  0.14599683355E+03  0.12509000000E+03 0.  0.
         25    1    3    3    0    0  0.38182434390E+02  0.78285760608E+02  0.33853500786E+03  0.37126812179E+03  0.12509000000E+03 0.  0.
         25    1    4    4    0    0 -0.14689222371E+02 -0.67473887949E+02  0.16006639243E+03  0.21456294390E+03  0.12509000000E+03 0.  0.
<mgrwt>
<rscale>  2 0.45985430E+03</rscale>
<asrwt>0</asrwt>
<pdfrwt beam="1">  1       21 0.95671399E-01 0.45985430E+03</pdfrwt>
<pdfrwt beam="2">  1       21 0.11950348E-01 0.45985430E+03</pdfrwt>
<totfact> 0.49299853E+04</totfact>
</mgrwt>
</event>
<event>
 7    0  0.4685107E-002  0.4852525E+03  0.7546771E-02  0.1017702E+00
         21   -1    0    0  502  501  0.00000000000E+00  0.00000000000E+00  0.14042031025E+04  0.14042031025E+04  0.00000000000E+00 0. -1.
         21   -1    0    0  501  502 -0.00000000000E+00 -0.00000000000E+00 -0.41922356693E+02  0.41922356693E+02  0.00000000000E+00 0. -1.
      99926    2    1    2    0    0  0.00000000000E+00 -0.35527136788E-14  0.13622807458E+04  0.14461254592E+04  0.48525252532E+03 0.  0.
      99925    2    3    3    0    0  0.67000570979E+02 -0.17049666852E+02  0.47445672254E+03  0.54687089454E+03  0.26301868010E+03 0.  0.
         25    1    4    4    0    0  0.17645049620E+01 -0.23354673040E+02  0.18172720105E+03  0.22185769748E+03  0.12509000000E+03 0.  0.
         25    1    4    4    0    0  0.65236066017E+02  0.63050061882E+01  0.29272952148E+03  0.32501319706E+03  0.12509000000E+03 0.  0.
         25    1    3    3    0    0 -0.67000570979E+02  0.17049666852E+02  0.88782402327E+03  0.89925456466E+03  0.12509000000E+03 0.  0.
<mgrwt>
<rscale>  2 0.48525253E+03</rscale>
<asrwt>0</asrwt>
<pdfrwt beam="1">  1       21 0.20650043E+00 0.48525253E+03</pdfrwt>
<pdfrwt beam="2">  1       21 0.61650534E-02 0.48525253E+03</pdfrwt>
<totfact> 0.19998171E+04</totfact>
</mgrwt>
</event>
<event>
 7    0  0.4685107E-002  0.4619641E+03  0.7546771E-02  0.1024213E+00
         21   -1    0    0  502  501  0.00000000000E+00  0.00000000000E+00  0.16661895693E+04  0.16661895693E+04  0.00000000000E+00 0.  1.
         21   -1    0    0  501  502 -0.00000000000E+00 -0.00000000000E+00 -0.32020792957E+02  0.32020792957E+02  0.00000000000E+00 0.  1.
      99926    2    1    2    0    0  0.00000000000E+00 -0.71054273576E-14  0.16341687763E+04  0.16982103622E+04  0.46196411646E+03 0.  0.
      99925    2    3    3    0    0 -0.34115928514E+02  0.60937169635E+02  0.66472104796E+03  0.71823401490E+03  0.26292355035E+03 0.  0.
         25    1    4    4    0    0 -0.14150842003E+02 -0.10929551445E+02  0.30272146996E+03  0.32803581801E+03  0.12509000000E+03 0.  0.
         25    1    3    3    0    0  0.34115928514E+02 -0.60937169635E+02  0.96944772836E+03  0.97997634734E+03  0.12509000000E+03 0.  0.
         25    1    4    4    0    0 -0.19965086511E+02  0.71866721080E+02  0.36199957800E+03  0.39019819689E+03  0.12509000000E+03 0.  0.
<mgrwt>
<rscale>  2 0.46196412E+03</rscale>
<asrwt>0</asrwt>
<pdfrwt beam="1">  1       21 0.24502782E+00 0.46196412E+03</pdfrwt>
<pdfrwt beam="2">  1       21 0.47089412E-02 0.46196412E+03</pdfrwt>
<totfact> 0.18289805E+04</totfact>
</mgrwt>
</event>
<event>
 7    0  0.4685107E-002  0.4592197E+03  0.7546771E-02  0.1025008E+00
         21   -1    0    0  502  501  0.00000000000E+00  0.00000000000E+00  0.24456580784E+03  0.24456580784E+03  0.00000000000E+00 0.  1.
         21   -1    0    0  501  502 -0.00000000000E+00 -0.00000000000E+00 -0.21556849621E+03  0.21556849621E+03  0.00000000000E+00 0.  1.
      99926    2    1    2    0    0  0.00000000000E+00  0.00000000000E+00  0.28997311637E+02  0.46013430405E+03  0.45921970088E+03 0.  0.
      99925    2    3    3    0    0  0.31944931839E+02 -0.11016525035E+03 -0.55546520070E+01  0.28693439832E+03  0.26295177072E+03 0.  0.
         25    1    3    3    0    0 -0.31944931839E+02  0.11016525035E+03  0.34551963644E+02  0.17319990573E+03  0.12509000000E+03 0.  0.
         25    1    4    4    0    0  0.13817464831E+02 -0.80520140706E+02 -0.35792926214E+02  0.15363286452E+03  0.12509000000E+03 0.  0.
         25    1    4    4    0    0  0.18127467008E+02 -0.29645109640E+02  0.30238274207E+02  0.13330153380E+03  0.12509000000E+03 0.  0.
<mgrwt>
<rscale>  2 0.45921970E+03</rscale>
<asrwt>0</asrwt>
<pdfrwt beam="1">  1       21 0.35965560E-01 0.45921970E+03</pdfrwt>
<pdfrwt beam="2">  1       21 0.31701249E-01 0.45921970E+03</pdfrwt>
<totfact> 0.65923674E+04</totfact>
</mgrwt>
</event>
<event>
 7    0  0.4685107E-002  0.4557593E+03  0.7546771E-02  0.1026018E+00
         21   -1    0    0  502  501  0.00000000000E+00  0.00000000000E+00  0.20965099820E+04  0.20965099820E+04  0.00000000000E+00 0. -1.
         21   -1    0    0  501  502 -0.00000000000E+00 -0.00000000000E+00 -0.24769321481E+02  0.24769321481E+02  0.00000000000E+00 0. -1.
      99926    2    1    2    0    0  0.71054273576E-14  0.14210854715E-13  0.20717406605E+04  0.21212793034E+04  0.45575927739E+03 0.  0.
      99925    2    3    3    0    0  0.52927245174E+02  0.89176517891E+02  0.10826814498E+04  0.11189623002E+04  0.26291398392E+03 0.  0.
         25    1    3    3    0    0 -0.52927245174E+02 -0.89176517891E+02  0.98905921065E+03  0.10023170032E+04  0.12509000000E+03 0.  0.
         25    1    4    4    0    0  0.57168389271E+02  0.72965618755E+02  0.63757170476E+03  0.65630586853E+03  0.12509000000E+03 0.  0.
         25    1    4    4    0    0 -0.42411440971E+01  0.16210899136E+02  0.44510974507E+03  0.46265643172E+03  0.12509000000E+03 0.  0.
<mgrwt>
<rscale>  2 0.45575928E+03</rscale>
<asrwt>0</asrwt>
<pdfrwt beam="1">  1       21 0.30831017E+00 0.45575928E+03</pdfrwt>
<pdfrwt beam="2">  1       21 0.36425487E-02 0.45575928E+03</pdfrwt>
<totfact> 0.11759429E+04</totfact>
</mgrwt>
</event>
<event>
 7    0  0.4685107E-002  0.4510543E+03  0.7546771E-02  0.1027408E+00
         21   -1    0    0  502  501  0.00000000000E+00  0.00000000000E+00  0.65578519018E+03  0.65578519018E+03  0.00000000000E+00 0.  1.
         21   -1    0    0  501  502 -0.00000000000E+00 -0.00000000000E+00 -0.77559692810E+02  0.77559692810E+02  0.00000000000E+00 0.  1.
      99926    2    1    2    0    0  0.00000000000E+00  0.00000000000E+00  0.57822549737E+03  0.73334488299E+03  0.45105431114E+03 0.  0.
      99925    2    3    3    0    0  0.60307548543E+02 -0.66465624525E+02  0.26294176808E+03  0.38248021149E+03  0.26286509681E+03 0.  0.
         25    1    3    3    0    0 -0.60307548543E+02  0.66465624525E+02  0.31528372929E+03  0.35086467150E+03  0.12509000000E+03 0.  0.
         25    1    4    4    0    0  0.52608983430E+02 -0.68344779546E+02  0.13283537258E+03  0.20182036156E+03  0.12509000000E+03 0.  0.
         25    1    4    4    0    0  0.76985651137E+01  0.18791550214E+01  0.13010639550E+03  0.18065984993E+03  0.12509000000E+03 0.  0.
<mgrwt>
<rscale>  2 0.45105431E+03</rscale>
<asrwt>0</asrwt>
<pdfrwt beam="1">  1       21 0.96438996E-01 0.45105431E+03</pdfrwt>
<pdfrwt beam="2">  1       21 0.11405838E-01 0.45105431E+03</pdfrwt>
<totfact> 0.52747170E+04</totfact>
</mgrwt>
</event>
<event>
 7    0  0.4685107E-002  0.4555444E+03  0.7546771E-02  0.1026081E+00
         21   -1    0    0  502  501  0.00000000000E+00  0.00000000000E+00  0.33531179875E+02  0.33531179875E+02  0.00000000000E+00 0. -1.
         21   -1    0    0  501  502 -0.00000000000E+00 -0.00000000000E+00 -0.15472222120E+04  0.15472222120E+04  0.00000000000E+00 0. -1.
      99926    2    1    2    0    0  0.00000000000E+00  0.00000000000E+00 -0.15136910321E+04  0.15807533919E+04  0.45554444919E+03 0.  0.
      99925    2    3    3    0    0  0.10345768504E+03  0.46399037851E+02 -0.98857020338E+03  0.10291595593E+04  0.26275842152E+03 0.  0.
         25    1    3    3    0    0 -0.10345768504E+03 -0.46399037851E+02 -0.52512082876E+03  0.55159383264E+03  0.12509000000E+03 0.  0.
         25    1    4    4    0    0  0.53289554214E+02 -0.73899740422E+01 -0.38435318141E+03  0.40776128368E+03  0.12509000000E+03 0.  0.
         25    1    4    4    0    0  0.50168130826E+02  0.53789011893E+02 -0.60421702197E+03  0.62139827557E+03  0.12509000000E+03 0.  0.
<mgrwt>
<rscale>  2 0.45554445E+03</rscale>
<asrwt>0</asrwt>
<pdfrwt beam="1">  1       21 0.49310551E-02 0.45554445E+03</pdfrwt>
<pdfrwt beam="2">  1       21 0.22753271E+00 0.45554445E+03</pdfrwt>
<totfact> 0.21775305E+04</totfact>
</mgrwt>
</event>
<event>
 7    0  0.4685107E-002  0.4281196E+03  0.7546771E-02  0.1034456E+00
         21   -1    0    0  502  501  0.00000000000E+00  0.00000000000E+00  0.27786118411E+02  0.27786118411E+02  0.00000000000E+00 0.  1.
         21   -1    0    0  501  502 -0.00000000000E+00 -0.00000000000E+00 -0.16490823259E+04  0.16490823259E+04  0.00000000000E+00 0.  1.
      99926    2    1    2    0    0  0.35527136788E-14  0.00000000000E+00 -0.16212962074E+04  0.16768684443E+04  0.42811959439E+03 0.  0.
      99925    2    3    3    0    0 -0.31806385824E+02  0.25196557749E+02 -0.13422784921E+04  0.13684127647E+04  0.26305024509E+03 0.  0.
         25    1    4    4    0    0 -0.14703872180E+02  0.23106999579E+02 -0.87720546226E+03  0.88650271766E+03  0.12509000000E+03 0.  0.
         25    1    4    4    0    0 -0.17102513643E+02  0.20895581699E+01 -0.46507302987E+03  0.48191004704E+03  0.12509000000E+03 0.  0.
         25    1    3    3    0    0  0.31806385824E+02 -0.25196557749E+02 -0.27901771531E+03  0.30845567957E+03  0.12509000000E+03 0.  0.
<mgrwt>
<rscale>  2 0.42811959E+03</rscale>
<asrwt>0</asrwt>
<pdfrwt beam="1">  1       21 0.40861934E-02 0.42811959E+03</pdfrwt>
<pdfrwt beam="2">  1       21 0.24251213E+00 0.42811959E+03</pdfrwt>
<totfact> 0.24469126E+04</totfact>
</mgrwt>
</event>
<event>
 7    0  0.4685107E-002  0.4559752E+03  0.7546771E-02  0.1025955E+00
         21   -1    0    0  502  501  0.00000000000E+00  0.00000000000E+00  0.88195155417E+03  0.88195155417E+03  0.00000000000E+00 0. -1.
         21   -1    0    0  501  502 -0.00000000000E+00 -0.00000000000E+00 -0.58935598220E+02  0.58935598220E+02  0.00000000000E+00 0. -1.
      99926    2    1    2    0    0 -0.35527136788E-14  0.00000000000E+00  0.82301595595E+03  0.94088715239E+03  0.45597518549E+03 0.  0.
      99925    2    3    3    0    0  0.25061541259E+02  0.11066418510E+03  0.54239784602E+03  0.61336818434E+03  0.26296475710E+03 0.  0.
         25    1    4    4    0    0  0.52045959246E+02  0.49407028406E+02  0.28776485961E+03  0.32187879529E+03  0.12509000000E+03 0.  0.
         25    1    4    4    0    0 -0.26984417987E+02  0.61257156694E+02  0.25463298641E+03  0.29148938905E+03  0.12509000000E+03 0.  0.
         25    1    3    3    0    0 -0.25061541259E+02 -0.11066418510E+03  0.28061810993E+03  0.32751896806E+03  0.12509000000E+03 0.  0.
<mgrwt>
<rscale>  2 0.45597519E+03</rscale>
<asrwt>0</asrwt>
<pdfrwt beam="1">  1       21 0.12969875E+00 0.45597519E+03</pdfrwt>
<pdfrwt beam="2">  1       21 0.86670002E-02 0.45597519E+03</pdfrwt>
<totfact> 0.41196938E+04</totfact>
</mgrwt>
</event>
<event>
 7    0  0.4685107E-002  0.4533026E+03  0.7546771E-02  0.1026742E+00
         21   -1    0    0  502  501  0.00000000000E+00  0.00000000000E+00  0.15320516377E+03  0.15320516377E+03  0.00000000000E+00 0. -1.
         21   -1    0    0  501  502 -0.00000000000E+00 -0.00000000000E+00 -0.33530725801E+03  0.33530725801E+03  0.00000000000E+00 0. -1.
      99926    2    1    2    0    0  0.71054273576E-14  0.00000000000E+00 -0.18210209425E+03  0.48851242178E+03  0.45330256287E+03 0.  0.
      99925    2    3    3    0    0 -0.60256829040E+02 -0.56304866434E+02 -0.33808727214E+02  0.27770550957E+03  0.26301368135E+03 0.  0.
         25    1    3    3    0    0  0.60256829040E+02  0.56304866434E+02 -0.14829336703E+03  0.21080691221E+03  0.12509000000E+03 0.  0.
         25    1    4    4    0    0 -0.50413362364E+02 -0.22077763807E+02  0.17725895326E+02  0.13780656815E+03  0.12509000000E+03 0.  0.
         25    1    4    4    0    0 -0.98434666763E+01 -0.34227102627E+02 -0.51534622539E+02  0.13989894142E+03  0.12509000000E+03 0.  0.
<mgrwt>
<rscale>  2 0.45330256E+03</rscale>
<asrwt>0</asrwt>
<pdfrwt beam="1">  1       21 0.22530172E-01 0.45330256E+03</pdfrwt>
<pdfrwt beam="2">  1       21 0.49309890E-01 0.45330256E+03</pdfrwt>
<totfact> 0.66983574E+04</totfact>
</mgrwt>
</event>
<event>
 7    0  0.4685107E-002  0.4557400E+03  0.7546771E-02  0.1026024E+00
         21   -1    0    0  502  501  0.00000000000E+00  0.00000000000E+00  0.36280240447E+02  0.36280240447E+02  0.00000000000E+00 0.  1.
         21   -1    0    0  501  502 -0.00000000000E+00 -0.00000000000E+00 -0.14312126172E+04  0.14312126172E+04  0.00000000000E+00 0.  1.
      99926    2    1    2    0    0 -0.64948046941E-14  0.00000000000E+00 -0.13949323768E+04  0.14674928577E+04  0.45574000432E+03 0.  0.
      99925    2    3    3    0    0  0.38642001797E+00  0.50118143293E+02 -0.54816029072E+03  0.61006504647E+03  0.26303550899E+03 0.  0.
         25    1    4    4    0    0  0.40718702924E+02  0.24073039580E+02 -0.27946741266E+03  0.30981779620E+03  0.12509000000E+03 0.  0.
         25    1    4    4    0    0 -0.40332282906E+02  0.26045103712E+02 -0.26869287806E+03  0.30024725027E+03  0.12509000000E+03 0.  0.
         25    1    3    3    0    0 -0.38642001797E+00 -0.50118143293E+02 -0.84677208605E+03  0.85742781120E+03  0.12509000000E+03 0.  0.
<mgrwt>
<rscale>  2 0.45574000E+03</rscale>
<asrwt>0</asrwt>
<pdfrwt beam="1">  1       21 0.53353302E-02 0.45574000E+03</pdfrwt>
<pdfrwt beam="2">  1       21 0.21047241E+00 0.45574000E+03</pdfrwt>
<totfact> 0.24446330E+04</totfact>
</mgrwt>
</event>
<event>
 7    0  0.4685107E-002  0.4704063E+03  0.7546771E-02  0.1021806E+00
         21   -1    0    0  502  501  0.00000000000E+00  0.00000000000E+00  0.89831005787E+02  0.89831005787E+02  0.00000000000E+00 0. -1.
         21   -1    0    0  501  502 -0.00000000000E+00 -0.00000000000E+00 -0.61582873757E+03  0.61582873757E+03  0.00000000000E+00 0. -1.
      99926    2    1    2    0    0  0.14210854715E-13  0.00000000000E+00 -0.52599773178E+03  0.70565974336E+03  0.47040627074E+03 0.  0.
      99925    2    3    3    0    0  0.78777888702E+02  0.71046546324E+02 -0.43163468193E+03  0.51643643409E+03  0.26295346417E+03 0.  0.
         25    1    4    4    0    0  0.75706281026E+02  0.32158480317E+02 -0.19374747494E+03  0.24484934345E+03  0.12509000000E+03 0.  0.
         25    1    3    3    0    0 -0.78777888702E+02 -0.71046546324E+02 -0.94363049853E+02  0.18922330927E+03  0.12509000000E+03 0.  0.
         25    1    4    4    0    0  0.30716076760E+01  0.38888066007E+02 -0.23788720699E+03  0.27158709064E+03  0.12509000000E+03 0.  0.
<mgrwt>
<rscale>  2 0.47040627E+03</rscale>
<asrwt>0</asrwt>
<pdfrwt beam="1">  1       21 0.13210442E-01 0.47040627E+03</pdfrwt>
<pdfrwt beam="2">  1       21 0.90563047E-01 0.47040627E+03</pdfrwt>
<totfact> 0.46674133E+04</totfact>
</mgrwt>
</event>
<event>
 7    0  0.4685107E-002  0.4350336E+03  0.7546771E-02  0.1032282E+00
         21   -1    0    0  502  501  0.00000000000E+00  0.00000000000E+00  0.35230821660E+03  0.35230821660E+03  0.00000000000E+00 0. -1.
         21   -1    0    0  501  502 -0.00000000000E+00 -0.00000000000E+00 -0.13429591869E+03  0.13429591869E+03  0.00000000000E+00 0. -1.
      99926    2    1    2    0    0 -0.71054273576E-14 -0.71054273576E-14  0.21801229790E+03  0.48660413529E+03  0.43503358772E+03 0.  0.
      99925    2    3    3    0    0  0.43683367503E+02  0.56399837250E+02  0.20704235623E+03  0.34218451765E+03  0.26293445687E+03 0.  0.
         25    1    4    4    0    0 -0.10535705125E+02  0.21247940133E+01  0.10109806152E+03  0.16119504327E+03  0.12509000000E+03 0.  0.
         25    1    3    3    0    0 -0.43683367503E+02 -0.56399837250E+02  0.10969941672E+02  0.14441961764E+03  0.12509000000E+03 0.  0.
         25    1    4    4    0    0  0.54219072628E+02  0.54275043237E+02  0.10594429472E+03  0.18098947438E+03  0.12509000000E+03 0.  0.
<mgrwt>
<rscale>  2 0.43503359E+03</rscale>
<asrwt>0</asrwt>
<pdfrwt beam="1">  1       21 0.51810032E-01 0.43503359E+03</pdfrwt>
<pdfrwt beam="2">  1       21 0.19749400E-01 0.43503359E+03</pdfrwt>
<totfact> 0.77848535E+04</totfact>
</mgrwt>
</event>
<event>
 7    0  0.4685107E-002  0.4583963E+03  0.7546771E-02  0.1025247E+00
         21   -1    0    0  502  501  0.00000000000E+00  0.00000000000E+00  0.95757237062E+03  0.95757237062E+03  0.00000000000E+00 0.  1.
         21   -1    0    0  501  502 -0.00000000000E+00 -0.00000000000E+00 -0.54859354068E+02  0.54859354068E+02  0.00000000000E+00 0.  1.
      99926    2    1    2    0    0  0.00000000000E+00  0.00000000000E+00  0.90271301655E+03  0.10124317247E+04  0.45839634259E+03 0.  0.
      99925    2    3    3    0    0  0.38068634696E+02 -0.97655025083E+02  0.67786544601E+03  0.73460144745E+03  0.26296767640E+03 0.  0.
         25    1    4    4    0    0 -0.19087660935E+02 -0.54617462617E+02  0.36461831517E+03  0.38979665196E+03  0.12509000000E+03 0.  0.
         25    1    4    4    0    0  0.57156295631E+02 -0.43037562466E+02  0.31324713084E+03  0.34480479549E+03  0.12509000000E+03 0.  0.
         25    1    3    3    0    0 -0.38068634696E+02  0.97655025083E+02  0.22484757055E+03  0.27783027724E+03  0.12509000000E+03 0.  0.
<mgrwt>
<rscale>  2 0.45839634E+03</rscale>
<asrwt>0</asrwt>
<pdfrwt beam="1">  1       21 0.14081946E+00 0.45839634E+03</pdfrwt>
<pdfrwt beam="2">  1       21 0.80675526E-02 0.45839634E+03</pdfrwt>
<totfact> 0.37677506E+04</totfact>
</mgrwt>
</event>
<event>
 7    0  0.4685107E-002  0.4531385E+03  0.7546771E-02  0.1026790E+00
         21   -1    0    0  502  501  0.00000000000E+00  0.00000000000E+00  0.51426037263E+02  0.51426037263E+02  0.00000000000E+00 0.  1.
         21   -1    0    0  501  502 -0.00000000000E+00 -0.00000000000E+00 -0.99820303814E+03  0.99820303814E+03  0.00000000000E+00 0.  1.
      99926    2    1    2    0    0  0.00000000000E+00  0.14210854715E-13 -0.94677700088E+03  0.10496290754E+04  0.45313850702E+03 0.  0.
      99925    2    3    3    0    0  0.57676748964E+02 -0.95414274171E+02 -0.59749216327E+03  0.66223018928E+03  0.26290958016E+03 0.  0.
         25    1    3    3    0    0 -0.57676748964E+02  0.95414274171E+02 -0.34928483761E+03  0.38739888612E+03  0.12509000000E+03 0.  0.
         25    1    4    4    0    0  0.39525593211E+02 -0.75694655013E+02 -0.25451404863E+03  0.29617032662E+03  0.12509000000E+03 0.  0.
         25    1    4    4    0    0  0.18151155754E+02 -0.19719619158E+02 -0.34297811464E+03  0.36605986266E+03  0.12509000000E+03 0.  0.
<mgrwt>
<rscale>  2 0.45313851E+03</rscale>
<asrwt>0</asrwt>
<pdfrwt beam="1">  1       21 0.75626523E-02 0.45313851E+03</pdfrwt>
<pdfrwt beam="2">  1       21 0.14679457E+00 0.45313851E+03</pdfrwt>
<totfact> 0.37837776E+04</totfact>
</mgrwt>
</event>
<event>
 7    0  0.4685107E-002  0.4459602E+03  0.7546771E-02  0.1028934E+00
         21   -1    0    0  502  501  0.00000000000E+00  0.00000000000E+00  0.39111365208E+03  0.39111365208E+03  0.00000000000E+00 0.  1.
         21   -1    0    0  501  502 -0.00000000000E+00 -0.00000000000E+00 -0.12712451614E+03  0.12712451614E+03  0.00000000000E+00 0.  1.
      99926    2    1    2    0    0  0.00000000000E+00  0.00000000000E+00  0.26398913594E+03  0.51823816822E+03  0.44596023938E+03 0.  0.
      99925    2    3    3    0    0 -0.70372462946E+02  0.57931770943E+02  0.11031012334E+03  0.30012553530E+03  0.26381554163E+03 0.  0.
         25    1    4    4    0    0 -0.77199320738E+02  0.39488469905E+02  0.66968069814E+02  0.16628681503E+03  0.12509000000E+03 0.  0.
         25    1    3    3    0    0  0.70372462946E+02 -0.57931770943E+02  0.15367901259E+03  0.21811263291E+03  0.12509000000E+03 0.  0.
         25    1    4    4    0    0  0.68268577923E+01  0.18443301038E+02  0.43342053531E+02  0.13383872027E+03  0.12509000000E+03 0.  0.
<mgrwt>
<rscale>  2 0.44596024E+03</rscale>
<asrwt>0</asrwt>
<pdfrwt beam="1">  1       21 0.57516713E-01 0.44596024E+03</pdfrwt>
<pdfrwt beam="2">  1       21 0.18694782E-01 0.44596024E+03</pdfrwt>
<totfact> 0.68810043E+04</totfact>
</mgrwt>
</event>
<event>
 7    0  0.4685107E-002  0.4599285E+03  0.7546771E-02  0.1024802E+00
         21   -1    0    0  502  501  0.00000000000E+00  0.00000000000E+00  0.24738714306E+03  0.24738714306E+03  0.00000000000E+00 0. -1.
         21   -1    0    0  501  502 -0.00000000000E+00 -0.00000000000E+00 -0.21376843045E+03  0.21376843045E+03  0.00000000000E+00 0. -1.
      99926    2    1    2    0    0  0.00000000000E+00 -0.71054273576E-14  0.33618712615E+02  0.46115557351E+03  0.45992852177E+03 0.  0.
      99925    2    3    3    0    0 -0.92779073823E+02 -0.59072702851E+02 -0.21174311433E+02  0.28580642368E+03  0.26294375747E+03 0.  0.
         25    1    4    4    0    0 -0.74563569069E+02 -0.11067761787E+02  0.12123550445E+02  0.14654934240E+03  0.12509000000E+03 0.  0.
         25    1    3    3    0    0  0.92779073823E+02  0.59072702851E+02  0.54793024048E+02  0.17534914983E+03  0.12509000000E+03 0.  0.
         25    1    4    4    0    0 -0.18215504754E+02 -0.48004941064E+02 -0.33297861878E+02  0.13925708128E+03  0.12509000000E+03 0.  0.
<mgrwt>
<rscale>  2 0.45992852E+03</rscale>
<asrwt>0</asrwt>
<pdfrwt beam="1">  1       21 0.36380462E-01 0.45992852E+03</pdfrwt>
<pdfrwt beam="2">  1       21 0.31436534E-01 0.45992852E+03</pdfrwt>
<totfact> 0.65484018E+04</totfact>
</mgrwt>
</event>
<event>
 6    0  0.4685107E-002  0.4539718E+03  0.7546771E-02  0.1026544E+00
         21   -1    0    0  502  501  0.00000000000E+00  0.00000000000E+00  0.25179922618E+03  0.25179922618E+03  0.00000000000E+00 0. -1.
         21   -1    0    0  501  502 -0.00000000000E+00 -0.00000000000E+00 -0.20461779202E+03  0.20461779202E+03  0.00000000000E+00 0. -1.
      99926    2    1    2    0    0 -0.88817841970E-15  0.00000000000E+00  0.47181434163E+02  0.45641701819E+03  0.45397181275E+03 0.  0.
         25    1    3    3    0    0 -0.18393773771E+02  0.88546305331E+01  0.17612329101E+02  0.12796264155E+03  0.12509000000E+03 0.  0.
         25    1    3    3    0    0 -0.58267368352E+01 -0.55026838463E+02 -0.76171671168E+02  0.15656160258E+03  0.12509000000E+03 0.  0.
         25    1    3    3    0    0  0.24220510607E+02  0.46172207930E+02  0.10574077623E+03  0.17189277407E+03  0.12509000000E+03 0.  0.
<mgrwt>
<rscale>  2 0.45397181E+03</rscale>
<asrwt>0</asrwt>
<pdfrwt beam="1">  1       21 0.37029298E-01 0.45397181E+03</pdfrwt>
<pdfrwt beam="2">  1       21 0.30090852E-01 0.45397181E+03</pdfrwt>
<totfact> 0.69006437E+04</totfact>
</mgrwt>
</event>
<event>
 7    0  0.4685107E-002  0.4572420E+03  0.7546771E-02  0.1025584E+00
         21   -1    0    0  502  501  0.00000000000E+00  0.00000000000E+00  0.37231145120E+03  0.37231145120E+03  0.00000000000E+00 0.  1.
         21   -1    0    0  501  502 -0.00000000000E+00 -0.00000000000E+00 -0.14038667801E+03  0.14038667801E+03  0.00000000000E+00 0.  1.
      99926    2    1    2    0    0  0.35527136788E-14 -0.14210854715E-13  0.23192477318E+03  0.51269812921E+03  0.45724202703E+03 0.  0.
      99925    2    3    3    0    0 -0.23744285844E+02  0.11236423619E+03  0.13557074394E+03  0.31745182390E+03  0.26307170354E+03 0.  0.
         25    1    4    4    0    0 -0.55552551247E+01  0.69848174630E+02  0.11218910362E+03  0.18205364986E+03  0.12509000000E+03 0.  0.
         25    1    4    4    0    0 -0.18189030720E+02  0.42516061559E+02  0.23381640327E+02  0.13539817404E+03  0.12509000000E+03 0.  0.
         25    1    3    3    0    0  0.23744285844E+02 -0.11236423619E+03  0.96354029240E+02  0.19524630531E+03  0.12509000000E+03 0.  0.
<mgrwt>
<rscale>  2 0.45724203E+03</rscale>
<asrwt>0</asrwt>
<pdfrwt beam="1">  1       21 0.54751684E-01 0.45724203E+03</pdfrwt>
<pdfrwt beam="2">  1       21 0.20645100E-01 0.45724203E+03</pdfrwt>
<totfact> 0.63254492E+04</totfact>
</mgrwt>
</event>
<event>
 7    0  0.4685107E-002  0.4582650E+03  0.7546771E-02  0.1025286E+00
         21   -1    0    0  502  501  0.00000000000E+00  0.00000000000E+00  0.59841333326E+03  0.59841333326E+03  0.00000000000E+00 0.  1.
         21   -1    0    0  501  502 -0.00000000000E+00 -0.00000000000E+00 -0.87734832720E+02  0.87734832720E+02  0.00000000000E+00 0.  1.
      99926    2    1    2    0    0  0.00000000000E+00  0.00000000000E+00  0.51067850054E+03  0.68614816599E+03  0.45826496131E+03 0.  0.
      99925    2    3    3    0    0  0.88751167619E+02 -0.43466950932E+02  0.41199559157E+03  0.49865957913E+03  0.26297312184E+03 0.  0.
         25    1    3    3    0    0 -0.88751167619E+02  0.43466950932E+02  0.98682908974E+02  0.18748858685E+03  0.12509000000E+03 0.  0.
         25    1    4    4    0    0  0.18404873300E+02  0.76040526115E+01  0.15822528587E+03  0.20268031519E+03  0.12509000000E+03 0.  0.
         25    1    4    4    0    0  0.70346294319E+02 -0.51071003543E+02  0.25377030570E+03  0.29597926394E+03  0.12509000000E+03 0.  0.
<mgrwt>
<rscale>  2 0.45826496E+03</rscale>
<asrwt>0</asrwt>
<pdfrwt beam="1">  1       21 0.88001959E-01 0.45826496E+03</pdfrwt>
<pdfrwt beam="2">  1       21 0.12902182E-01 0.45826496E+03</pdfrwt>
<totfact> 0.52304200E+04</totfact>
</mgrwt>
</event>
<event>
 7    0  0.4685107E-002  0.4506636E+03  0.7546771E-02  0.1027524E+00
         21   -1    0    0  502  501  0.00000000000E+00  0.00000000000E+00  0.21687465410E+03  0.21687465410E+03  0.00000000000E+00 0.  1.
         21   -1    0    0  501  502 -0.00000000000E+00 -0.00000000000E+00 -0.23411878240E+03  0.23411878240E+03  0.00000000000E+00 0.  1.
      99926    2    1    2    0    0  0.00000000000E+00  0.00000000000E+00 -0.17244128294E+02  0.45099343650E+03  0.45066364376E+03 0.  0.
      99925    2    3    3    0    0  0.10348641063E+03  0.28245804120E+02  0.83461231520E+01  0.28423123544E+03  0.26307883760E+03 0.  0.
         25    1    4    4    0    0  0.66694803993E+02  0.10983368476E+02  0.42393697979E+02  0.14836969027E+03  0.12509000000E+03 0.  0.
         25    1    3    3    0    0 -0.10348641063E+03 -0.28245804120E+02 -0.25590251446E+02  0.16676220107E+03  0.12509000000E+03 0.  0.
         25    1    4    4    0    0  0.36791606638E+02  0.17262435643E+02 -0.34047574827E+02  0.13586154517E+03  0.12509000000E+03 0.  0.
<mgrwt>
<rscale>  2 0.45066364E+03</rscale>
<asrwt>0</asrwt>
<pdfrwt beam="1">  1       21 0.31893332E-01 0.45066364E+03</pdfrwt>
<pdfrwt beam="2">  1       21 0.34429233E-01 0.45066364E+03</pdfrwt>
<totfact> 0.71274648E+04</totfact>
</mgrwt>
</event>
<event>
 7    0  0.4685107E-002  0.4587263E+03  0.7546771E-02  0.1025151E+00
         21   -1    0    0  502  501  0.00000000000E+00  0.00000000000E+00  0.15195847027E+03  0.15195847027E+03  0.00000000000E+00 0. -1.
         21   -1    0    0  501  502 -0.00000000000E+00 -0.00000000000E+00 -0.34619619163E+03  0.34619619163E+03  0.00000000000E+00 0. -1.
      99926    2    1    2    0    0  0.00000000000E+00 -0.17763568394E-14 -0.19423772136E+03  0.49815466189E+03  0.45872625254E+03 0.  0.
      99925    2    3    3    0    0 -0.65381584939E+02 -0.51612473203E+01 -0.16841463177E+02  0.27139855803E+03  0.26281581439E+03 0.  0.
         25    1    3    3    0    0  0.65381584939E+02  0.51612473203E+01 -0.17739625818E+03  0.22675610386E+03  0.12509000000E+03 0.  0.
         25    1    4    4    0    0  0.23943723001E+01 -0.21938558162E+02  0.10688374551E+01  0.12702631171E+03  0.12509000000E+03 0.  0.
         25    1    4    4    0    0 -0.67775957239E+02  0.16777310841E+02 -0.17910300632E+02  0.14437224632E+03  0.12509000000E+03 0.  0.
<mgrwt>
<rscale>  2 0.45872625E+03</rscale>
<asrwt>0</asrwt>
<pdfrwt beam="1">  1       21 0.22346834E-01 0.45872625E+03</pdfrwt>
<pdfrwt beam="2">  1       21 0.50911204E-01 0.45872625E+03</pdfrwt>
<totfact> 0.63501196E+04</totfact>
</mgrwt>
</event>
<event>
 7    0  0.4685107E-002  0.4202090E+03  0.7546771E-02  0.1036998E+00
         21   -1    0    0  502  501  0.00000000000E+00  0.00000000000E+00  0.29096641034E+03  0.29096641034E+03  0.00000000000E+00 0.  1.
         21   -1    0    0  501  502 -0.00000000000E+00 -0.00000000000E+00 -0.15171478526E+03  0.15171478526E+03  0.00000000000E+00 0.  1.
      99926    2    1    2    0    0  0.35527136788E-14 -0.71054273576E-14  0.13925162508E+03  0.44268119559E+03  0.42020902637E+03 0.  0.
      99925    2    3    3    0    0  0.18772980405E+02  0.57016688599E+02  0.13976578921E+03  0.30393286214E+03  0.26312997032E+03 0.  0.
         25    1    4    4    0    0  0.26804358884E+02  0.16324087069E+02  0.29974618514E+02  0.13240443848E+03  0.12509000000E+03 0.  0.
         25    1    4    4    0    0 -0.80313784797E+01  0.40692601530E+02  0.10979117070E+03  0.17152842366E+03  0.12509000000E+03 0.  0.
         25    1    3    3    0    0 -0.18772980405E+02 -0.57016688599E+02 -0.51416413278E+00  0.13874833346E+03  0.12509000000E+03 0.  0.
<mgrwt>
<rscale>  2 0.42020903E+03</rscale>
<asrwt>0</asrwt>
<pdfrwt beam="1">  1       21 0.42789178E-01 0.42020903E+03</pdfrwt>
<pdfrwt beam="2">  1       21 0.22310998E-01 0.42020903E+03</pdfrwt>
<totfact> 0.92548430E+04</totfact>
</mgrwt>
</event>
<event>
 7    0  0.4685107E-002  0.4604414E+03  0.7546771E-02  0.1024653E+00
         21   -1    0    0  502  501  0.00000000000E+00  0.00000000000E+00  0.48667674368E+02  0.48667674368E+02  0.00000000000E+00 0. -1.
         21   -1    0    0  501  502 -0.00000000000E+00 -0.00000000000E+00 -0.10890507512E+04  0.10890507512E+04  0.00000000000E+00 0. -1.
      99926    2    1    2    0    0  0.00000000000E+00 -0.71054273576E-14 -0.10403830768E+04  0.11377184256E+04  0.46044138532E+03 0.  0.
      99925    2    3    3    0    0 -0.81963324385E+02  0.45280633399E+02 -0.47372660531E+03  0.54991285642E+03  0.26309490829E+03 0.  0.
         25    1    4    4    0    0 -0.59639873835E+02 -0.12115475922E+02 -0.21678800570E+03  0.25758153432E+03  0.12509000000E+03 0.  0.
         25    1    3    3    0    0  0.81963324385E+02 -0.45280633399E+02 -0.56665647152E+03  0.58780556915E+03  0.12509000000E+03 0.  0.
         25    1    4    4    0    0 -0.22323450550E+02  0.57396109321E+02 -0.25693859961E+03  0.29233132209E+03  0.12509000000E+03 0.  0.
<mgrwt>
<rscale>  2 0.46044139E+03</rscale>
<asrwt>0</asrwt>
<pdfrwt beam="1">  1       21 0.71570120E-02 0.46044139E+03</pdfrwt>
<pdfrwt beam="2">  1       21 0.16015450E+00 0.46044139E+03</pdfrwt>
<totfact> 0.32782429E+04</totfact>
</mgrwt>
</event>
<event>
 7    0  0.4685107E-002  0.4689931E+03  0.7546771E-02  0.1022205E+00
         21   -1    0    0  502  501  0.00000000000E+00  0.00000000000E+00  0.24852754644E+03  0.24852754644E+03  0.00000000000E+00 0.  1.
         21   -1    0    0  501  502 -0.00000000000E+00 -0.00000000000E+00 -0.22125768750E+03  0.22125768750E+03  0.00000000000E+00 0.  1.
      99926    2    1    2    0    0  0.00000000000E+00  0.00000000000E+00  0.27269858936E+02  0.46978523394E+03  0.46899309251E+03 0.  0.
      99925    2    3    3    0    0 -0.96962244390E+02 -0.37082789842E+02 -0.54495950969E+02  0.28782379322E+03  0.26286102247E+03 0.  0.
         25    1    4    4    0    0 -0.13062672307E+02 -0.32219572305E+02 -0.42658951756E+02  0.13666026676E+03  0.12509000000E+03 0.  0.
         25    1    3    3    0    0  0.96962244390E+02  0.37082789842E+02  0.81765809905E+02  0.18196144072E+03  0.12509000000E+03 0.  0.
         25    1    4    4    0    0 -0.83899572083E+02 -0.48632175370E+01 -0.11836999213E+02  0.15116352646E+03  0.12509000000E+03 0.  0.
<mgrwt>
<rscale>  2 0.46899309E+03</rscale>
<asrwt>0</asrwt>
<pdfrwt beam="1">  1       21 0.36548169E-01 0.46899309E+03</pdfrwt>
<pdfrwt beam="2">  1       21 0.32537895E-01 0.46899309E+03</pdfrwt>
<totfact> 0.60440690E+04</totfact>
</mgrwt>
</event>
<event>
 7    0  0.4685107E-002  0.4506146E+03  0.7546771E-02  0.1027539E+00
         21   -1    0    0  502  501  0.00000000000E+00  0.00000000000E+00  0.50848036930E+03  0.50848036930E+03  0.00000000000E+00 0. -1.
         21   -1    0    0  501  502 -0.00000000000E+00 -0.00000000000E+00 -0.99833530171E+02  0.99833530171E+02  0.00000000000E+00 0. -1.
      99926    2    1    2    0    0  0.00000000000E+00  0.00000000000E+00  0.40864683913E+03  0.60831389947E+03  0.45061464818E+03 0.  0.
      99925    2    3    3    0    0  0.10501440138E+03 -0.23473985594E+02  0.23470676646E+03  0.36856046471E+03  0.26300284681E+03 0.  0.
         25    1    4    4    0    0  0.83808009701E+02 -0.16050607415E+01  0.92447905149E+02  0.17669318599E+03  0.12509000000E+03 0.  0.
         25    1    3    3    0    0 -0.10501440138E+03  0.23473985594E+02  0.17394007267E+03  0.23975343476E+03  0.12509000000E+03 0.  0.
         25    1    4    4    0    0  0.21206391681E+02 -0.21868924853E+02  0.14225886131E+03  0.19186727872E+03  0.12509000000E+03 0.  0.
<mgrwt>
<rscale>  2 0.45061465E+03</rscale>
<asrwt>0</asrwt>
<pdfrwt beam="1">  1       21 0.74776524E-01 0.45061465E+03</pdfrwt>
<pdfrwt beam="2">  1       21 0.14681402E-01 0.45061465E+03</pdfrwt>
<totfact> 0.60228821E+04</totfact>
</mgrwt>
</event>
<event>
 7    0  0.4685107E-002  0.4569444E+03  0.7546771E-02  0.1025671E+00
         21   -1    0    0  502  501  0.00000000000E+00  0.00000000000E+00  0.26033582735E+03  0.26033582735E+03  0.00000000000E+00 0. -1.
         21   -1    0    0  501  502 -0.00000000000E+00 -0.00000000000E+00 -0.20050853519E+03  0.20050853519E+03  0.00000000000E+00 0. -1.
      99926    2    1    2    0    0  0.00000000000E+00  0.00000000000E+00  0.59827292160E+02  0.46084436255E+03  0.45694444039E+03 0.  0.
      99925    2    3    3    0    0  0.33526365207E+02  0.38794338150E+02 -0.66273603752E+02  0.27597153629E+03  0.26294311258E+03 0.  0.
         25    1    3    3    0    0 -0.33526365207E+02 -0.38794338150E+02  0.12610089591E+03  0.18487282625E+03  0.12509000000E+03 0.  0.
         25    1    4    4    0    0  0.54597575317E+02  0.76977413719E+01 -0.42998072727E+02  0.14330559239E+03  0.12509000000E+03 0.  0.
         25    1    4    4    0    0 -0.21071210110E+02  0.31096596778E+02 -0.23275531025E+02  0.13266594390E+03  0.12509000000E+03 0.  0.
<mgrwt>
<rscale>  2 0.45694444E+03</rscale>
<asrwt>0</asrwt>
<pdfrwt beam="1">  1       21 0.38284680E-01 0.45694444E+03</pdfrwt>
<pdfrwt beam="2">  1       21 0.29486549E-01 0.45694444E+03</pdfrwt>
<totfact> 0.67072943E+04</totfact>
</mgrwt>
</event>
<event>
 7    0  0.4685107E-002  0.4545816E+03  0.7546771E-02  0.1026365E+00
         21   -1    0    0  502  501  0.00000000000E+00  0.00000000000E+00  0.61688493283E+03  0.61688493283E+03  0.00000000000E+00 0.  1.
         21   -1    0    0  501  502 -0.00000000000E+00 -0.00000000000E+00 -0.83745129165E+02  0.83745129165E+02  0.00000000000E+00 0.  1.
      99926    2    1    2    0    0  0.00000000000E+00  0.00000000000E+00  0.53313980367E+03  0.70063006200E+03  0.45458160271E+03 0.  0.
      99925    2    3    3    0    0 -0.10311415053E+03 -0.45257709141E+02  0.32621081917E+03  0.43389442321E+03  0.26300206020E+03 0.  0.
         25    1    4    4    0    0 -0.92616217192E+02 -0.26397463497E+02  0.16020119028E+03  0.22491447093E+03  0.12509000000E+03 0.  0.
         25    1    4    4    0    0 -0.10497933336E+02 -0.18860245644E+02  0.16600962890E+03  0.20897995228E+03  0.12509000000E+03 0.  0.
         25    1    3    3    0    0  0.10311415053E+03  0.45257709141E+02  0.20692898449E+03  0.26673563879E+03  0.12509000000E+03 0.  0.
<mgrwt>
<rscale>  2 0.45458160E+03</rscale>
<asrwt>0</asrwt>
<pdfrwt beam="1">  1       21 0.90718370E-01 0.45458160E+03</pdfrwt>
<pdfrwt beam="2">  1       21 0.12315460E-01 0.45458160E+03</pdfrwt>
<totfact> 0.53043197E+04</totfact>
</mgrwt>
</event>
<event>
 7    0  0.4685107E-002  0.4594249E+03  0.7546771E-02  0.1024948E+00
         21   -1    0    0  502  501  0.00000000000E+00  0.00000000000E+00  0.37456340236E+02  0.37456340236E+02  0.00000000000E+00 0.  1.
         21   -1    0    0  501  502 -0.00000000000E+00 -0.00000000000E+00 -0.14087815236E+04  0.14087815236E+04  0.00000000000E+00 0.  1.
      99926    2    1    2    0    0  0.00000000000E+00  0.00000000000E+00 -0.13713251834E+04  0.14462378639E+04  0.45942485813E+03 0.  0.
      99925    2    3    3    0    0  0.16034287598E+02  0.72361404517E+01 -0.12243131940E+04  0.12524093489E+04  0.26320509109E+03 0.  0.
         25    1    3    3    0    0 -0.16034287598E+02 -0.72361404517E+01 -0.14701198939E+03  0.19382851501E+03  0.12509000000E+03 0.  0.
         25    1    4    4    0    0  0.42172589368E+02 -0.73469889213E+01 -0.71392083635E+03  0.72605989713E+03  0.12509000000E+03 0.  0.
         25    1    4    4    0    0 -0.26138301771E+02  0.14583129373E+02 -0.51039235765E+03  0.52634945173E+03  0.12509000000E+03 0.  0.
<mgrwt>
<rscale>  2 0.45942486E+03</rscale>
<asrwt>0</asrwt>
<pdfrwt beam="1">  1       21 0.55082862E-02 0.45942486E+03</pdfrwt>
<pdfrwt beam="2">  1       21 0.20717372E+00 0.45942486E+03</pdfrwt>
<totfact> 0.24279954E+04</totfact>
</mgrwt>
</event>
<event>
 7    0  0.4685107E-002  0.4628117E+03  0.7546771E-02  0.1023969E+00
         21   -1    0    0  502  501  0.00000000000E+00  0.00000000000E+00  0.34167533904E+03  0.34167533904E+03  0.00000000000E+00 0. -1.
         21   -1    0    0  501  502 -0.00000000000E+00 -0.00000000000E+00 -0.15672384447E+03  0.15672384447E+03  0.00000000000E+00 0. -1.
      99926    2    1    2    0    0  0.35527136788E-14  0.00000000000E+00  0.18495149456E+03  0.49839918351E+03  0.46281172282E+03 0.  0.
      99925    2    3    3    0    0 -0.31776456062E+02 -0.86722995992E+02  0.19879302014E+03  0.34229115321E+03  0.26289531665E+03 0.  0.
         25    1    4    4    0    0 -0.33866504553E+02 -0.32869231121E+02  0.14106748013E+03  0.19435757905E+03  0.12509000000E+03 0.  0.
         25    1    3    3    0    0  0.31776456062E+02  0.86722995992E+02 -0.13841525575E+02  0.15610803030E+03  0.12509000000E+03 0.  0.
         25    1    4    4    0    0  0.20900484911E+01 -0.53853764871E+02  0.57725540008E+02  0.14793357416E+03  0.12509000000E+03 0.  0.
<mgrwt>
<rscale>  2 0.46281172E+03</rscale>
<asrwt>0</asrwt>
<pdfrwt beam="1">  1       21 0.50246373E-01 0.46281172E+03</pdfrwt>
<pdfrwt beam="2">  1       21 0.23047624E-01 0.46281172E+03</pdfrwt>
<totfact> 0.61481210E+04</totfact>
</mgrwt>
</event>
<event>
 7    0  0.4685107E-002  0.4518756E+03  0.7546771E-02  0.1027164E+00
         21   -1    0    0  502  501  0.00000000000E+00  0.00000000000E+00  0.50724157893E+03  0.50724157893E+03  0.00000000000E+00 0. -1.
         21   -1    0    0  501  502 -0.00000000000E+00 -0.00000000000E+00 -0.10063822511E+03  0.10063822511E+03  0.00000000000E+00 0. -1.
      99926    2    1    2    0    0 -0.35527136788E-14  0.71054273576E-14  0.40660335382E+03  0.60787980404E+03  0.45187561211E+03 0.  0.
      99925    2    3    3    0    0 -0.22949685092E+02  0.48446827400E+02  0.12700809558E+03  0.29692192962E+03  0.26297869271E+03 0.  0.
         25    1    4    4    0    0  0.16978533577E+02  0.15769208883E+02  0.92459848197E+02  0.15726814738E+03  0.12509000000E+03 0.  0.
         25    1    3    3    0    0  0.22949685092E+02 -0.48446827400E+02  0.27959525824E+03  0.31095787442E+03  0.12509000000E+03 0.  0.
         25    1    4    4    0    0 -0.39928218669E+02  0.32677618517E+02  0.34548247384E+02  0.13965378224E+03  0.12509000000E+03 0.  0.
<mgrwt>
<rscale>  2 0.45187561E+03</rscale>
<asrwt>0</asrwt>
<pdfrwt beam="1">  1       21 0.74594349E-01 0.45187561E+03</pdfrwt>
<pdfrwt beam="2">  1       21 0.14799739E-01 0.45187561E+03</pdfrwt>
<totfact> 0.59654575E+04</totfact>
</mgrwt>
</event>
<event>
 7    0  0.4685107E-002  0.4621852E+03  0.7546771E-02  0.1024149E+00
         21   -1    0    0  502  501  0.00000000000E+00  0.00000000000E+00  0.74954920140E+02  0.74954920140E+02  0.00000000000E+00 0.  1.
         21   -1    0    0  501  502 -0.00000000000E+00 -0.00000000000E+00 -0.71247872738E+03  0.71247872738E+03  0.00000000000E+00 0.  1.
      99926    2    1    2    0    0  0.00000000000E+00  0.00000000000E+00 -0.63752380724E+03  0.78743364752E+03  0.46218518415E+03 0.  0.
      99925    2    3    3    0    0 -0.16080021802E+02  0.29570149805E+02 -0.20382964554E+03  0.33480676492E+03  0.26346932378E+03 0.  0.
         25    1    4    4    0    0 -0.71111647595E+01 -0.80698054156E+01 -0.56434583492E+02  0.13765195508E+03  0.12509000000E+03 0.  0.
         25    1    3    3    0    0  0.16080021802E+02 -0.29570149805E+02 -0.43369416171E+03  0.45262688261E+03  0.12509000000E+03 0.  0.
         25    1    4    4    0    0 -0.89688570422E+01  0.37639955221E+02 -0.14739506205E+03  0.19715480983E+03  0.12509000000E+03 0.  0.
<mgrwt>
<rscale>  2 0.46218518E+03</rscale>
<asrwt>0</asrwt>
<pdfrwt beam="1">  1       21 0.11022783E-01 0.46218518E+03</pdfrwt>
<pdfrwt beam="2">  1       21 0.10477628E+00 0.46218518E+03</pdfrwt>
<totfact> 0.45743942E+04</totfact>
</mgrwt>
</event>
<event>
 7    0  0.4685107E-002  0.4363693E+03  0.7546771E-02  0.1031867E+00
         21   -1    0    0  502  501  0.00000000000E+00  0.00000000000E+00  0.69635526746E+03  0.69635526746E+03  0.00000000000E+00 0.  1.
         21   -1    0    0  501  502 -0.00000000000E+00 -0.00000000000E+00 -0.68362446358E+02  0.68362446358E+02  0.00000000000E+00 0.  1.
      99926    2    1    2    0    0 -0.71054273576E-14  0.00000000000E+00  0.62799282110E+03  0.76471771382E+03  0.43636933723E+03 0.  0.
      99925    2    3    3    0    0  0.36316873144E+02 -0.81709308100E+02  0.34800393168E+03  0.44528601125E+03  0.26301629046E+03 0.  0.
         25    1    4    4    0    0 -0.86004875365E+01 -0.60947801900E+02  0.14001997240E+03  0.19758973585E+03  0.12509000000E+03 0.  0.
         25    1    3    3    0    0 -0.36316873144E+02  0.81709308100E+02  0.27998888942E+03  0.31943170256E+03  0.12509000000E+03 0.  0.
         25    1    4    4    0    0  0.44917360681E+02 -0.20761506200E+02  0.20798395928E+03  0.24769627540E+03  0.12509000000E+03 0.  0.
<mgrwt>
<rscale>  2 0.43636934E+03</rscale>
<asrwt>0</asrwt>
<pdfrwt beam="1">  1       21 0.10240518E+00 0.43636934E+03</pdfrwt>
<pdfrwt beam="2">  1       21 0.10053301E-01 0.43636934E+03</pdfrwt>
<totfact> 0.57475527E+04</totfact>
</mgrwt>
</event>
<event>
 7    0  0.4685107E-002  0.3989773E+03  0.7546771E-02  0.1044134E+00
         21   -1    0    0  502  501  0.00000000000E+00  0.00000000000E+00  0.18649969968E+03  0.18649969968E+03  0.00000000000E+00 0.  1.
         21   -1    0    0  501  502 -0.00000000000E+00 -0.00000000000E+00 -0.21338223706E+03  0.21338223706E+03  0.00000000000E+00 0.  1.
      99926    2    1    2    0    0 -0.35527136788E-14  0.00000000000E+00 -0.26882537379E+02  0.39988193673E+03  0.39897730827E+03 0.  0.
      99925    2    3    3    0    0  0.29910986342E+02  0.17591500891E+02 -0.44217984467E+02  0.26891570508E+03  0.26297585114E+03 0.  0.
         25    1    3    3    0    0 -0.29910986342E+02 -0.17591500891E+02  0.17335447088E+02  0.13096623165E+03  0.12509000000E+03 0.  0.
         25    1    4    4    0    0 -0.20180689587E+02  0.26650416696E+02 -0.11715691720E+02  0.13000873230E+03  0.12509000000E+03 0.  0.
         25    1    4    4    0    0  0.50091675930E+02 -0.90589158057E+01 -0.32502292747E+02  0.13890697278E+03  0.12509000000E+03 0.  0.
<mgrwt>
<rscale>  2 0.39897731E+03</rscale>
<asrwt>0</asrwt>
<pdfrwt beam="1">  1       21 0.27426426E-01 0.39897731E+03</pdfrwt>
<pdfrwt beam="2">  1       21 0.31379741E-01 0.39897731E+03</pdfrwt>
<totfact> 0.11695852E+05</totfact>
</mgrwt>
</event>
<event>
 7    0  0.4685107E-002  0.4541683E+03  0.7546771E-02  0.1026486E+00
         21   -1    0    0  502  501  0.00000000000E+00  0.00000000000E+00  0.12535311842E+03  0.12535311842E+03  0.00000000000E+00 0. -1.
         21   -1    0    0  501  502 -0.00000000000E+00 -0.00000000000E+00 -0.41137552707E+03  0.41137552707E+03  0.00000000000E+00 0. -1.
      99926    2    1    2    0    0  0.00000000000E+00  0.00000000000E+00 -0.28602240866E+03  0.53672864549E+03  0.45416827348E+03 0.  0.
      99925    2    3    3    0    0  0.95223531848E+02 -0.22230466227E+02 -0.24546703303E+03  0.37285686257E+03  0.26307120902E+03 0.  0.
         25    1    4    4    0    0  0.13374649920E+02 -0.30828687902E+02 -0.13246284326E+03  0.18526522124E+03  0.12509000000E+03 0.  0.
         25    1    4    4    0    0  0.81848881928E+02  0.85982216748E+01 -0.11300418977E+03  0.18759164132E+03  0.12509000000E+03 0.  0.
         25    1    3    3    0    0 -0.95223531848E+02  0.22230466227E+02 -0.40555375630E+02  0.16387178292E+03  0.12509000000E+03 0.  0.
<mgrwt>
<rscale>  2 0.45416827E+03</rscale>
<asrwt>0</asrwt>
<pdfrwt beam="1">  1       21 0.18434283E-01 0.45416827E+03</pdfrwt>
<pdfrwt beam="2">  1       21 0.60496399E-01 0.45416827E+03</pdfrwt>
<totfact> 0.63166892E+04</totfact>
</mgrwt>
</event>
<event>
 7    0  0.4685107E-002  0.4597914E+03  0.7546771E-02  0.1024842E+00
         21   -1    0    0  502  501  0.00000000000E+00  0.00000000000E+00  0.36907591502E+03  0.36907591502E+03  0.00000000000E+00 0. -1.
         21   -1    0    0  501  502 -0.00000000000E+00 -0.00000000000E+00 -0.14320101104E+03  0.14320101104E+03  0.00000000000E+00 0. -1.
      99926    2    1    2    0    0  0.00000000000E+00  0.00000000000E+00  0.22587490398E+03  0.51227692605E+03  0.45979144916E+03 0.  0.
      99925    2    3    3    0    0 -0.46470301300E+02  0.10788471514E+03  0.15457171954E+03  0.32645374969E+03  0.26245196425E+03 0.  0.
         25    1    4    4    0    0 -0.25481244857E+02  0.93787147963E+02  0.68886610565E+02  0.17273736185E+03  0.12509000000E+03 0.  0.
         25    1    3    3    0    0  0.46470301300E+02 -0.10788471514E+03  0.71303184437E+02  0.18582317636E+03  0.12509000000E+03 0.  0.
         25    1    4    4    0    0 -0.20989056443E+02  0.14097567174E+02  0.85685108976E+02  0.15371638784E+03  0.12509000000E+03 0.  0.
<mgrwt>
<rscale>  2 0.45979145E+03</rscale>
<asrwt>0</asrwt>
<pdfrwt beam="1">  1       21 0.54275870E-01 0.45979145E+03</pdfrwt>
<pdfrwt beam="2">  1       21 0.21058972E-01 0.45979145E+03</pdfrwt>
<totfact> 0.62024142E+04</totfact>
</mgrwt>
</event>
<event>
 7    0  0.4685107E-002  0.4449964E+03  0.7546771E-02  0.1029225E+00
         21   -1    0    0  502  501  0.00000000000E+00  0.00000000000E+00  0.40129705694E+02  0.40129705694E+02  0.00000000000E+00 0. -1.
         21   -1    0    0  501  502 -0.00000000000E+00 -0.00000000000E+00 -0.12336360179E+04  0.12336360179E+04  0.00000000000E+00 0. -1.
      99926    2    1    2    0    0  0.00000000000E+00 -0.17763568394E-14 -0.11935063122E+04  0.12737657236E+04  0.44499640597E+03 0.  0.
      99925    2    3    3    0    0 -0.69422635658E+02  0.15923079977E+02 -0.54312238733E+03  0.60764275848E+03  0.26301092657E+03 0.  0.
         25    1    3    3    0    0  0.69422635658E+02 -0.15923079977E+02 -0.65038392487E+03  0.66612296511E+03  0.12509000000E+03 0.  0.
         25    1    4    4    0    0 -0.66907021828E+02  0.34018438315E+02 -0.30214873741E+03  0.33552223672E+03  0.12509000000E+03 0.  0.
         25    1    4    4    0    0 -0.25156138299E+01 -0.18095358338E+02 -0.24097364992E+03  0.27212052176E+03  0.12509000000E+03 0.  0.
<mgrwt>
<rscale>  2 0.44499641E+03</rscale>
<asrwt>0</asrwt>
<pdfrwt beam="1">  1       21 0.59014270E-02 0.44499641E+03</pdfrwt>
<pdfrwt beam="2">  1       21 0.18141707E+00 0.44499641E+03</pdfrwt>
<totfact> 0.32329889E+04</totfact>
</mgrwt>
</event>
<event>
 7    0  0.4685107E-002  0.4442884E+03  0.7546771E-02  0.1029439E+00
         21   -1    0    0  502  501  0.00000000000E+00  0.00000000000E+00  0.10404778290E+03  0.10404778290E+03  0.00000000000E+00 0.  1.
         21   -1    0    0  501  502 -0.00000000000E+00 -0.00000000000E+00 -0.47428245773E+03  0.47428245773E+03  0.00000000000E+00 0.  1.
      99926    2    1    2    0    0  0.00000000000E+00  0.00000000000E+00 -0.37023467483E+03  0.57833024064E+03  0.44428836670E+03 0.  0.
      99925    2    3    3    0    0  0.82260234679E+02 -0.28542247343E+02 -0.16360437429E+03  0.32157160827E+03  0.26279364883E+03 0.  0.
         25    1    4    4    0    0  0.51302654935E+02  0.24551520109E+02 -0.77958374489E+02  0.15798656840E+03  0.12509000000E+03 0.  0.
         25    1    3    3    0    0 -0.82260234679E+02  0.28542247343E+02 -0.20663030054E+03  0.25675863237E+03  0.12509000000E+03 0.  0.
         25    1    4    4    0    0  0.30957579743E+02 -0.53093767452E+02 -0.85645999797E+02  0.16358503986E+03  0.12509000000E+03 0.  0.
<mgrwt>
<rscale>  2 0.44428837E+03</rscale>
<asrwt>0</asrwt>
<pdfrwt beam="1">  1       21 0.15301144E-01 0.44428837E+03</pdfrwt>
<pdfrwt beam="2">  1       21 0.69747422E-01 0.44428837E+03</pdfrwt>
<totfact> 0.65396935E+04</totfact>
</mgrwt>
</event>
<event>
 7    0  0.4685107E-002  0.4389992E+03  0.7546771E-02  0.1031054E+00
         21   -1    0    0  502  501  0.00000000000E+00  0.00000000000E+00  0.51046544758E+02  0.51046544758E+02  0.00000000000E+00 0.  1.
         21   -1    0    0  501  502 -0.00000000000E+00 -0.00000000000E+00 -0.94384579874E+03  0.94384579874E+03  0.00000000000E+00 0.  1.
      99926    2    1    2    0    0  0.00000000000E+00  0.00000000000E+00 -0.89279925398E+03  0.99489234350E+03  0.43899916542E+03 0.  0.
      99925    2    3    3    0    0  0.33922860512E+02  0.84322098935E+02 -0.64860233745E+03  0.70585840262E+03  0.26323015703E+03 0.  0.
         25    1    3    3    0    0 -0.33922860512E+02 -0.84322098935E+02 -0.24419691653E+03  0.28903394087E+03  0.12509000000E+03 0.  0.
         25    1    4    4    0    0  0.24740419632E+02  0.33223364064E+02 -0.22081060462E+03  0.25713947868E+03  0.12509000000E+03 0.  0.
         25    1    4    4    0    0  0.91824408797E+01  0.51098734871E+02 -0.42779173283E+03  0.44871892394E+03  0.12509000000E+03 0.  0.
<mgrwt>
<rscale>  2 0.43899917E+03</rscale>
<asrwt>0</asrwt>
<pdfrwt beam="1">  1       21 0.75068446E-02 0.43899917E+03</pdfrwt>
<pdfrwt beam="2">  1       21 0.13880086E+00 0.43899917E+03</pdfrwt>
<totfact> 0.44695833E+04</totfact>
</mgrwt>
</event>
<event>
 7    0  0.4685107E-002  0.4553420E+03  0.7546771E-02  0.1026141E+00
         21   -1    0    0  502  501  0.00000000000E+00  0.00000000000E+00  0.58881186600E+02  0.58881186600E+02  0.00000000000E+00 0. -1.
         21   -1    0    0  501  502 -0.00000000000E+00 -0.00000000000E+00 -0.88031672065E+03  0.88031672065E+03  0.00000000000E+00 0. -1.
      99926    2    1    2    0    0 -0.35527136788E-14  0.00000000000E+00 -0.82143553405E+03  0.93919790725E+03  0.45534203889E+03 0.  0.
      99925    2    3    3    0    0  0.25823219302E+02  0.51961406054E+02 -0.31539408003E+03  0.41470549772E+03  0.26294561746E+03 0.  0.
         25    1    4    4    0    0 -0.15526215256E+02  0.49850152899E+02 -0.18485790625E+03  0.22922926233E+03  0.12509000000E+03 0.  0.
         25    1    4    4    0    0  0.41349434557E+02  0.21112531543E+01 -0.13053617378E+03  0.18547623539E+03  0.12509000000E+03 0.  0.
         25    1    3    3    0    0 -0.25823219302E+02 -0.51961406054E+02 -0.50604145402E+03  0.52449240954E+03  0.12509000000E+03 0.  0.
<mgrwt>
<rscale>  2 0.45534204E+03</rscale>
<asrwt>0</asrwt>
<pdfrwt beam="1">  1       21 0.86589986E-02 0.45534204E+03</pdfrwt>
<pdfrwt beam="2">  1       21 0.12945833E+00 0.45534204E+03</pdfrwt>
<totfact> 0.41470291E+04</totfact>
</mgrwt>
</event>
<event>
 7    0  0.4685107E-002  0.4565631E+03  0.7546771E-02  0.1025783E+00
         21   -1    0    0  502  501  0.00000000000E+00  0.00000000000E+00  0.18183811328E+03  0.18183811328E+03  0.00000000000E+00 0.  1.
         21   -1    0    0  501  502 -0.00000000000E+00 -0.00000000000E+00 -0.28658717193E+03  0.28658717193E+03  0.00000000000E+00 0.  1.
      99926    2    1    2    0    0  0.00000000000E+00  0.00000000000E+00 -0.10474905865E+03  0.46842528522E+03  0.45656312000E+03 0.  0.
      99925    2    3    3    0    0  0.89787057163E+02 -0.27111268589E+02 -0.13343440158E+03  0.30946902231E+03  0.26300114016E+03 0.  0.
         25    1    3    3    0    0 -0.89787057163E+02  0.27111268589E+02  0.28685342930E+02  0.15895626291E+03  0.12509000000E+03 0.  0.
         25    1    4    4    0    0  0.71339548782E+02  0.12719633139E+02 -0.50670189205E+02  0.15318647611E+03  0.12509000000E+03 0.  0.
         25    1    4    4    0    0  0.18447508380E+02 -0.39830901728E+02 -0.82764212372E+02  0.15628254620E+03  0.12509000000E+03 0.  0.
<mgrwt>
<rscale>  2 0.45656312E+03</rscale>
<asrwt>0</asrwt>
<pdfrwt beam="1">  1       21 0.26740900E-01 0.45656312E+03</pdfrwt>
<pdfrwt beam="2">  1       21 0.42145172E-01 0.45656312E+03</pdfrwt>
<totfact> 0.66722125E+04</totfact>
</mgrwt>
</event>
<event>
 7    0  0.4685107E-002  0.4588074E+03  0.7546771E-02  0.1025128E+00
         21   -1    0    0  502  501  0.00000000000E+00  0.00000000000E+00  0.25278003777E+03  0.25278003777E+03  0.00000000000E+00 0.  1.
         21   -1    0    0  501  502 -0.00000000000E+00 -0.00000000000E+00 -0.20818911072E+03  0.20818911072E+03  0.00000000000E+00 0.  1.
      99926    2    1    2    0    0  0.00000000000E+00 -0.71054273576E-14  0.44590927051E+02  0.46096914849E+03  0.45880737253E+03 0.  0.
      99925    2    3    3    0    0  0.97229994738E+02  0.47912690200E+02 -0.15654304744E+02  0.28482632629E+03  0.26292904201E+03 0.  0.
         25    1    4    4    0    0  0.58997619190E+02  0.48052819641E+02  0.23501730419E+02  0.14828901503E+03  0.12509000000E+03 0.  0.
         25    1    4    4    0    0  0.38232375548E+02 -0.14012944077E+00 -0.39156035163E+02  0.13653731126E+03  0.12509000000E+03 0.  0.
         25    1    3    3    0    0 -0.97229994738E+02 -0.47912690200E+02  0.60245231795E+02  0.17614282220E+03  0.12509000000E+03 0.  0.
<mgrwt>
<rscale>  2 0.45880737E+03</rscale>
<asrwt>0</asrwt>
<pdfrwt beam="1">  1       21 0.37173535E-01 0.45880737E+03</pdfrwt>
<pdfrwt beam="2">  1       21 0.30616045E-01 0.45880737E+03</pdfrwt>
<totfact> 0.66080407E+04</totfact>
</mgrwt>
</event>
<event>
 7    0  0.4685107E-002  0.4870978E+03  0.7546771E-02  0.1017203E+00
         21   -1    0    0  502  501  0.00000000000E+00  0.00000000000E+00  0.68939644336E+03  0.68939644336E+03  0.00000000000E+00 0.  1.
         21   -1    0    0  501  502 -0.00000000000E+00 -0.00000000000E+00 -0.86040581265E+02  0.86040581265E+02  0.00000000000E+00 0.  1.
      99926    2    1    2    0    0  0.00000000000E+00  0.00000000000E+00  0.60335586210E+03  0.77543702463E+03  0.48709781650E+03 0.  0.
      99925    2    3    3    0    0 -0.78623577302E+02  0.10866355002E+03  0.29986051425E+03  0.42082968083E+03  0.26304345315E+03 0.  0.
         25    1    4    4    0    0 -0.51002150547E+02  0.47460551153E+02  0.95935442198E+02  0.17235092238E+03  0.12509000000E+03 0.  0.
         25    1    3    3    0    0  0.78623577302E+02 -0.10866355002E+03  0.30349534785E+03  0.35460734380E+03  0.12509000000E+03 0.  0.
         25    1    4    4    0    0 -0.27621426754E+02  0.61202998872E+02  0.20392507205E+03  0.24847875844E+03  0.12509000000E+03 0.  0.
<mgrwt>
<rscale>  2 0.48709782E+03</rscale>
<asrwt>0</asrwt>
<pdfrwt beam="1">  1       21 0.10138183E+00 0.48709782E+03</pdfrwt>
<pdfrwt beam="2">  1       21 0.12653027E-01 0.48709782E+03</pdfrwt>
<totfact> 0.38358858E+04</totfact>
</mgrwt>
</event>
<event>
 7    0  0.4685107E-002  0.4612401E+03  0.7546771E-02  0.1024422E+00
         21   -1    0    0  502  501  0.00000000000E+00  0.00000000000E+00  0.10488163059E+03  0.10488163059E+03  0.00000000000E+00 0. -1.
         21   -1    0    0  501  502 -0.00000000000E+00 -0.00000000000E+00 -0.50710129798E+03  0.50710129798E+03  0.00000000000E+00 0. -1.
      99926    2    1    2    0    0  0.00000000000E+00  0.00000000000E+00 -0.40221966739E+03  0.61198292856E+03  0.46124011536E+03 0.  0.
      99925    2    3    3    0    0  0.23870880819E+02 -0.10147114413E+03 -0.17589501117E+03  0.33317014163E+03  0.26305337154E+03 0.  0.
         25    1    4    4    0    0  0.11647666700E+02 -0.93263776787E+02 -0.87223542164E+02  0.17913473870E+03  0.12509000000E+03 0.  0.
         25    1    3    3    0    0 -0.23870880819E+02  0.10147114413E+03 -0.22632465622E+03  0.27881278693E+03  0.12509000000E+03 0.  0.
         25    1    4    4    0    0  0.12223214118E+02 -0.82073673426E+01 -0.88671469007E+02  0.15403540294E+03  0.12509000000E+03 0.  0.
<mgrwt>
<rscale>  2 0.46124012E+03</rscale>
<asrwt>0</asrwt>
<pdfrwt beam="1">  1       21 0.15423769E-01 0.46124012E+03</pdfrwt>
<pdfrwt beam="2">  1       21 0.74573721E-01 0.46124012E+03</pdfrwt>
<totfact> 0.55176386E+04</totfact>
</mgrwt>
</event>
<event>
 7    0  0.4685107E-002  0.4553171E+03  0.7546771E-02  0.1026148E+00
         21   -1    0    0  502  501  0.00000000000E+00  0.00000000000E+00  0.11328082723E+04  0.11328082723E+04  0.00000000000E+00 0. -1.
         21   -1    0    0  501  502 -0.00000000000E+00 -0.00000000000E+00 -0.45752160814E+02  0.45752160814E+02  0.00000000000E+00 0. -1.
      99926    2    1    2    0    0  0.00000000000E+00  0.00000000000E+00  0.10870561114E+04  0.11785604331E+04  0.45531714769E+03 0.  0.
      99925    2    3    3    0    0 -0.19896812162E+02 -0.11025455414E+03  0.64317653948E+03  0.70397795094E+03  0.26335706678E+03 0.  0.
         25    1    4    4    0    0  0.96207213932E+01 -0.93715984964E+02  0.34838701140E+03  0.38196369190E+03  0.12509000000E+03 0.  0.
         25    1    4    4    0    0 -0.29517533555E+02 -0.16538569177E+02  0.29478952807E+03  0.32201425903E+03  0.12509000000E+03 0.  0.
         25    1    3    3    0    0  0.19896812162E+02  0.11025455414E+03  0.44387957197E+03  0.47458248214E+03  0.12509000000E+03 0.  0.
<mgrwt>
<rscale>  2 0.45531715E+03</rscale>
<asrwt>0</asrwt>
<pdfrwt beam="1">  1       21 0.16658943E+00 0.45531715E+03</pdfrwt>
<pdfrwt beam="2">  1       21 0.67282597E-02 0.45531715E+03</pdfrwt>
<totfact> 0.32761940E+04</totfact>
</mgrwt>
</event>
<event>
 7    0  0.4685107E-002  0.4535187E+03  0.7546771E-02  0.1026678E+00
         21   -1    0    0  502  501  0.00000000000E+00  0.00000000000E+00  0.94858353440E+03  0.94858353440E+03  0.00000000000E+00 0.  1.
         21   -1    0    0  501  502 -0.00000000000E+00 -0.00000000000E+00 -0.54206923019E+02  0.54206923019E+02  0.00000000000E+00 0.  1.
      99926    2    1    2    0    0  0.35527136788E-14 -0.14210854715E-13  0.89437661138E+03  0.10027904574E+04  0.45351866390E+03 0.  0.
      99925    2    3    3    0    0 -0.16623132935E+02  0.65596479942E+02  0.37073532279E+03  0.46017923937E+03  0.26408526286E+03 0.  0.
         25    1    4    4    0    0  0.12326050719E+02  0.39776826791E+02  0.24711256851E+03  0.28008258977E+03  0.12509000000E+03 0.  0.
         25    1    3    3    0    0  0.16623132935E+02 -0.65596479942E+02  0.52364128859E+03  0.54261121805E+03  0.12509000000E+03 0.  0.
         25    1    4    4    0    0 -0.28949183655E+02  0.25819653151E+02  0.12362275427E+03  0.18009664960E+03  0.12509000000E+03 0.  0.
<mgrwt>
<rscale>  2 0.45351866E+03</rscale>
<asrwt>0</asrwt>
<pdfrwt beam="1">  1       21 0.13949757E+00 0.45351866E+03</pdfrwt>
<pdfrwt beam="2">  1       21 0.79716069E-02 0.45351866E+03</pdfrwt>
<totfact> 0.39513573E+04</totfact>
</mgrwt>
</event>
<event>
 7    0  0.4685107E-002  0.4512060E+03  0.7546771E-02  0.1027363E+00
         21   -1    0    0  502  501  0.00000000000E+00  0.00000000000E+00  0.38834753487E+02  0.38834753487E+02  0.00000000000E+00 0. -1.
         21   -1    0    0  501  502 -0.00000000000E+00 -0.00000000000E+00 -0.13105970482E+04  0.13105970482E+04  0.00000000000E+00 0. -1.
      99926    2    1    2    0    0  0.35527136788E-14  0.00000000000E+00 -0.12717622947E+04  0.13494318017E+04  0.45120599858E+03 0.  0.
      99925    2    3    3    0    0  0.25344946010E+02  0.61894964118E+01 -0.11222012684E+04  0.11527170721E+04  0.26218368624E+03 0.  0.
         25    1    4    4    0    0 -0.26111621238E+02  0.42588928097E+01 -0.51574568658E+03  0.53135776672E+03  0.12509000000E+03 0.  0.
         25    1    4    4    0    0  0.51456567248E+02  0.19306036021E+01 -0.60645558179E+03  0.62135930534E+03  0.12509000000E+03 0.  0.
         25    1    3    3    0    0 -0.25344946010E+02 -0.61894964118E+01 -0.14956102637E+03  0.19671472965E+03  0.12509000000E+03 0.  0.
<mgrwt>
<rscale>  2 0.45120600E+03</rscale>
<asrwt>0</asrwt>
<pdfrwt beam="1">  1       21 0.57109934E-02 0.45120600E+03</pdfrwt>
<pdfrwt beam="2">  1       21 0.19273485E+00 0.45120600E+03</pdfrwt>
<totfact> 0.28543830E+04</totfact>
</mgrwt>
</event>
<event>
 7    0  0.4685107E-002  0.4597369E+03  0.7546771E-02  0.1024858E+00
         21   -1    0    0  502  501  0.00000000000E+00  0.00000000000E+00  0.47395772979E+02  0.47395772979E+02  0.00000000000E+00 0.  1.
         21   -1    0    0  501  502 -0.00000000000E+00 -0.00000000000E+00 -0.11148569677E+04  0.11148569677E+04  0.00000000000E+00 0.  1.
      99926    2    1    2    0    0  0.00000000000E+00  0.00000000000E+00 -0.10674611947E+04  0.11622527406E+04  0.45973691495E+03 0.  0.
      99925    2    3    3    0    0  0.98937609643E+02 -0.61108671181E+02 -0.71040082010E+03  0.76644655134E+03  0.26315028132E+03 0.  0.
         25    1    4    4    0    0  0.36860217384E+02 -0.28646198516E+02 -0.44750614799E+03  0.46699950846E+03  0.12509000000E+03 0.  0.
         25    1    3    3    0    0 -0.98937609643E+02  0.61108671181E+02 -0.35706037457E+03  0.39580618930E+03  0.12509000000E+03 0.  0.
         25    1    4    4    0    0  0.62077392260E+02 -0.32462472664E+02 -0.26289467211E+03  0.29944704287E+03  0.12509000000E+03 0.  0.
<mgrwt>
<rscale>  2 0.45973691E+03</rscale>
<asrwt>0</asrwt>
<pdfrwt beam="1">  1       21 0.69699657E-02 0.45973691E+03</pdfrwt>
<pdfrwt beam="2">  1       21 0.16394957E+00 0.45973691E+03</pdfrwt>
<totfact> 0.32171807E+04</totfact>
</mgrwt>
</event>
<event>
 7    0  0.4685107E-002  0.4556871E+03  0.7546771E-02  0.1026040E+00
         21   -1    0    0  502  501  0.00000000000E+00  0.00000000000E+00  0.13326874640E+04  0.13326874640E+04  0.00000000000E+00 0. -1.
         21   -1    0    0  501  502 -0.00000000000E+00 -0.00000000000E+00 -0.38953386688E+02  0.38953386688E+02  0.00000000000E+00 0. -1.
      99926    2    1    2    0    0 -0.17763568394E-14  0.00000000000E+00  0.12937340773E+04  0.13716408507E+04  0.45568713004E+03 0.  0.
      99925    2    3    3    0    0  0.10404072269E+02 -0.11332741234E+03  0.80275759905E+03  0.85235599879E+03  0.26294417418E+03 0.  0.
         25    1    3    3    0    0 -0.10404072269E+02  0.11332741234E+03  0.49097647828E+03  0.51928485192E+03  0.12509000000E+03 0.  0.
         25    1    4    4    0    0  0.30520284982E+02 -0.28313559668E+02  0.32112779492E+03  0.34713644900E+03  0.12509000000E+03 0.  0.
         25    1    4    4    0    0 -0.20116212713E+02 -0.85013852670E+02  0.48162980413E+03  0.50521954979E+03  0.12509000000E+03 0.  0.
<mgrwt>
<rscale>  2 0.45568713E+03</rscale>
<asrwt>0</asrwt>
<pdfrwt beam="1">  1       21 0.19598342E+00 0.45568713E+03</pdfrwt>
<pdfrwt beam="2">  1       21 0.57284401E-02 0.45568713E+03</pdfrwt>
<totfact> 0.26953402E+04</totfact>
</mgrwt>
</event>
<event>
 7    0  0.4685107E-002  0.4538800E+03  0.7546771E-02  0.1026571E+00
         21   -1    0    0  502  501  0.00000000000E+00  0.00000000000E+00  0.26502226393E+03  0.26502226393E+03  0.00000000000E+00 0.  1.
         21   -1    0    0  501  502 -0.00000000000E+00 -0.00000000000E+00 -0.19432994031E+03  0.19432994031E+03  0.00000000000E+00 0.  1.
      99926    2    1    2    0    0  0.00000000000E+00  0.00000000000E+00  0.70692323625E+02  0.45935220424E+03  0.45387998736E+03 0.  0.
      99925    2    3    3    0    0 -0.22163236547E+02 -0.10032147897E+03 -0.93880792947E+00  0.28233769832E+03  0.26297925077E+03 0.  0.
         25    1    4    4    0    0 -0.34080650253E+02 -0.25836209718E+02 -0.24282274734E+02  0.13441033227E+03  0.12509000000E+03 0.  0.
         25    1    3    3    0    0  0.22163236547E+02  0.10032147897E+03  0.71631131554E+02  0.17701450592E+03  0.12509000000E+03 0.  0.
         25    1    4    4    0    0  0.11917413706E+02 -0.74485269256E+02  0.23343466805E+02  0.14792736605E+03  0.12509000000E+03 0.  0.
<mgrwt>
<rscale>  2 0.45387999E+03</rscale>
<asrwt>0</asrwt>
<pdfrwt beam="1">  1       21 0.38973862E-01 0.45387999E+03</pdfrwt>
<pdfrwt beam="2">  1       21 0.28577932E-01 0.45387999E+03</pdfrwt>
<totfact> 0.68840594E+04</totfact>
</mgrwt>
</event>
<event>
 6    0  0.4685107E-002  0.4653495E+03  0.7546771E-02  0.1023241E+00
         21   -1    0    0  502  501  0.00000000000E+00  0.00000000000E+00  0.20153623702E+03  0.20153623702E+03  0.00000000000E+00 0.  1.
         21   -1    0    0  501  502 -0.00000000000E+00 -0.00000000000E+00 -0.26862437422E+03  0.26862437422E+03  0.00000000000E+00 0.  1.
      99926    2    1    2    0    0  0.17763568394E-14 -0.44408920985E-15 -0.67088137203E+02  0.47016061124E+03  0.46534952693E+03 0.  0.
         25    1    3    3    0    0  0.21428803847E+02 -0.32072230838E+02 -0.82122402948E+02  0.15452966961E+03  0.12509000000E+03 0.  0.
         25    1    3    3    0    0 -0.10123925726E+02 -0.18485236951E+01  0.99799230850E+02  0.16035368873E+03  0.12509000000E+03 0.  0.
         25    1    3    3    0    0 -0.11304878121E+02  0.33920754533E+02 -0.84764965104E+02  0.15527725289E+03  0.12509000000E+03 0.  0.
<mgrwt>
<rscale>  2 0.46534953E+03</rscale>
<asrwt>0</asrwt>
<pdfrwt beam="1">  1       21 0.29637682E-01 0.46534953E+03</pdfrwt>
<pdfrwt beam="2">  1       21 0.39503584E-01 0.46534953E+03</pdfrwt>
<totfact> 0.62155531E+04</totfact>
</mgrwt>
</event>
<event>
 7    0  0.4685107E-002  0.4545704E+03  0.7546771E-02  0.1026368E+00
         21   -1    0    0  502  501  0.00000000000E+00  0.00000000000E+00  0.53045056958E+03  0.53045056958E+03  0.00000000000E+00 0.  1.
         21   -1    0    0  501  502 -0.00000000000E+00 -0.00000000000E+00 -0.97386201336E+02  0.97386201336E+02  0.00000000000E+00 0.  1.
      99926    2    1    2    0    0  0.00000000000E+00  0.00000000000E+00  0.43306436825E+03  0.62783677092E+03  0.45457041685E+03 0.  0.
      99925    2    3    3    0    0  0.65574994735E+02  0.35895284307E+02  0.15581958226E+03  0.31462640898E+03  0.26290964920E+03 0.  0.
         25    1    4    4    0    0  0.69590442676E+02  0.27572416546E+02  0.10318625765E+03  0.17860005524E+03  0.12509000000E+03 0.  0.
         25    1    4    4    0    0 -0.40154479408E+01  0.83228677614E+01  0.52633324611E+02  0.13602635373E+03  0.12509000000E+03 0.  0.
         25    1    3    3    0    0 -0.65574994735E+02 -0.35895284307E+02  0.27724478599E+03  0.31321036194E+03  0.12509000000E+03 0.  0.
<mgrwt>
<rscale>  2 0.45457042E+03</rscale>
<asrwt>0</asrwt>
<pdfrwt beam="1">  1       21 0.78007435E-01 0.45457042E+03</pdfrwt>
<pdfrwt beam="2">  1       21 0.14321500E-01 0.45457042E+03</pdfrwt>
<totfact> 0.57190446E+04</totfact>
</mgrwt>
</event>
<event>
 7    0  0.4685107E-002  0.4548964E+03  0.7546771E-02  0.1026272E+00
         21   -1    0    0  502  501  0.00000000000E+00  0.00000000000E+00  0.49891890618E+03  0.49891890618E+03  0.00000000000E+00 0. -1.
         21   -1    0    0  501  502 -0.00000000000E+00 -0.00000000000E+00 -0.10368956240E+03  0.10368956240E+03  0.00000000000E+00 0. -1.
      99926    2    1    2    0    0  0.00000000000E+00  0.00000000000E+00  0.39522934377E+03  0.60260846858E+03  0.45489639725E+03 0.  0.
      99925    2    3    3    0    0  0.45822944321E+02  0.88721236244E+02  0.17942674849E+03  0.33392749006E+03  0.26332947150E+03 0.  0.
         25    1    4    4    0    0 -0.65989197365E+01  0.55248599259E+02  0.57455997797E+02  0.14847441950E+03  0.12509000000E+03 0.  0.
         25    1    4    4    0    0  0.52421864058E+02  0.33472636985E+02  0.12197075069E+03  0.18545307057E+03  0.12509000000E+03 0.  0.
         25    1    3    3    0    0 -0.45822944321E+02 -0.88721236244E+02  0.21580259529E+03  0.26868097852E+03  0.12509000000E+03 0.  0.
<mgrwt>
<rscale>  2 0.45489640E+03</rscale>
<asrwt>0</asrwt>
<pdfrwt beam="1">  1       21 0.73370426E-01 0.45489640E+03</pdfrwt>
<pdfrwt beam="2">  1       21 0.15248465E-01 0.45489640E+03</pdfrwt>
<totfact> 0.58565920E+04</totfact>
</mgrwt>
</event>
<event>
 7    0  0.4685107E-002  0.4549243E+03  0.7546771E-02  0.1026264E+00
         21   -1    0    0  502  501  0.00000000000E+00  0.00000000000E+00  0.11325442405E+03  0.11325442405E+03  0.00000000000E+00 0.  1.
         21   -1    0    0  501  502 -0.00000000000E+00 -0.00000000000E+00 -0.45683885361E+03  0.45683885361E+03  0.00000000000E+00 0.  1.
      99926    2    1    2    0    0 -0.14210854715E-13 -0.14210854715E-13 -0.34358442956E+03  0.57009327766E+03  0.45492426293E+03 0.  0.
      99925    2    3    3    0    0 -0.66799276821E+02 -0.81632947361E+02 -0.26729729148E+03  0.38955708458E+03  0.26302242991E+03 0.  0.
         25    1    4    4    0    0 -0.71542959709E+02 -0.36821920220E+02 -0.11982367545E+03  0.19099599522E+03  0.12509000000E+03 0.  0.
         25    1    3    3    0    0  0.66799276821E+02  0.81632947361E+02 -0.76287138077E+02  0.18053619309E+03  0.12509000000E+03 0.  0.
         25    1    4    4    0    0  0.47436828876E+01 -0.44811027142E+02 -0.14747361603E+03  0.19856108936E+03  0.12509000000E+03 0.  0.
<mgrwt>
<rscale>  2 0.45492426E+03</rscale>
<asrwt>0</asrwt>
<pdfrwt beam="1">  1       21 0.16655062E-01 0.45492426E+03</pdfrwt>
<pdfrwt beam="2">  1       21 0.67182185E-01 0.45492426E+03</pdfrwt>
<totfact> 0.60594216E+04</totfact>
</mgrwt>
</event>
<event>
 7    0  0.4685107E-002  0.4449449E+03  0.7546771E-02  0.1029240E+00
         21   -1    0    0  502  501  0.00000000000E+00  0.00000000000E+00  0.57672563198E+02  0.57672563198E+02  0.00000000000E+00 0. -1.
         21   -1    0    0  501  502 -0.00000000000E+00 -0.00000000000E+00 -0.85818969655E+03  0.85818969655E+03  0.00000000000E+00 0. -1.
      99926    2    1    2    0    0  0.00000000000E+00  0.00000000000E+00 -0.80051713335E+03  0.91586225975E+03  0.44494493821E+03 0.  0.
      99925    2    3    3    0    0  0.76310919053E+02 -0.64424520710E+02 -0.45085244259E+03  0.53130175826E+03  0.26275417810E+03 0.  0.
         25    1    3    3    0    0 -0.76310919053E+02  0.64424520710E+02 -0.34966469076E+03  0.38456050149E+03  0.12509000000E+03 0.  0.
         25    1    4    4    0    0  0.54416455341E+02 -0.54311823154E+02 -0.29887237833E+03  0.33299118813E+03  0.12509000000E+03 0.  0.
         25    1    4    4    0    0  0.21894463712E+02 -0.10112697556E+02 -0.15198006426E+03  0.19831057013E+03  0.12509000000E+03 0.  0.
<mgrwt>
<rscale>  2 0.44494494E+03</rscale>
<asrwt>0</asrwt>
<pdfrwt beam="1">  1       21 0.84812590E-02 0.44494494E+03</pdfrwt>
<pdfrwt beam="2">  1       21 0.12620437E+00 0.44494494E+03</pdfrwt>
<totfact> 0.46073711E+04</totfact>
</mgrwt>
</event>
<event>
 7    0  0.4685107E-002  0.4605278E+03  0.7546771E-02  0.1024628E+00
         21   -1    0    0  502  501  0.00000000000E+00  0.00000000000E+00  0.27657420298E+04  0.27657420298E+04  0.00000000000E+00 0.  1.
         21   -1    0    0  501  502 -0.00000000000E+00 -0.00000000000E+00 -0.19170790650E+02  0.19170790650E+02  0.00000000000E+00 0.  1.
      99926    2    1    2    0    0  0.14210854715E-13  0.35527136788E-14  0.27465712391E+04  0.27849128204E+04  0.46052779045E+03 0.  0.
      99925    2    3    3    0    0 -0.10396423561E+03  0.29555313390E+02  0.20102217254E+04  0.20302339528E+04  0.26301414188E+03 0.  0.
         25    1    4    4    0    0 -0.40082410030E+02 -0.24694848536E+02  0.97595968595E+03  0.98506916094E+03  0.12509000000E+03 0.  0.
         25    1    3    3    0    0  0.10396423561E+03 -0.29555313390E+02  0.73634951368E+03  0.75467886762E+03  0.12509000000E+03 0.  0.
         25    1    4    4    0    0 -0.63881825580E+02  0.54250161927E+02  0.10342620395E+04  0.10451647918E+04  0.12509000000E+03 0.  0.
<mgrwt>
<rscale>  2 0.46052779E+03</rscale>
<asrwt>0</asrwt>
<pdfrwt beam="1">  1       21 0.40672649E+00 0.46052779E+03</pdfrwt>
<pdfrwt beam="2">  1       21 0.28192358E-02 0.46052779E+03</pdfrwt>
<totfact> 0.44401371E+03</totfact>
</mgrwt>
</event>
<event>
 7    0  0.4685107E-002  0.4549904E+03  0.7546771E-02  0.1026244E+00
         21   -1    0    0  502  501  0.00000000000E+00  0.00000000000E+00  0.33601273610E+03  0.33601273610E+03  0.00000000000E+00 0.  1.
         21   -1    0    0  501  502 -0.00000000000E+00 -0.00000000000E+00 -0.15402413331E+03  0.15402413331E+03  0.00000000000E+00 0.  1.
      99926    2    1    2    0    0 -0.35527136788E-14  0.00000000000E+00  0.18198860279E+03  0.49003686941E+03  0.45499041950E+03 0.  0.
      99925    2    3    3    0    0  0.29211723316E+02 -0.92464185853E+02  0.17727171322E+03  0.33169323174E+03  0.26304408230E+03 0.  0.
         25    1    4    4    0    0  0.17514024063E+02 -0.38906835942E+01  0.87089640187E+02  0.15347309857E+03  0.12509000000E+03 0.  0.
         25    1    4    4    0    0  0.11697699253E+02 -0.88573502259E+02  0.90182073029E+02  0.17822013317E+03  0.12509000000E+03 0.  0.
         25    1    3    3    0    0 -0.29211723316E+02  0.92464185853E+02  0.47168895720E+01  0.15834363767E+03  0.12509000000E+03 0.  0.
<mgrwt>
<rscale>  2 0.45499042E+03</rscale>
<asrwt>0</asrwt>
<pdfrwt beam="1">  1       21 0.49413638E-01 0.45499042E+03</pdfrwt>
<pdfrwt beam="2">  1       21 0.22650608E-01 0.45499042E+03</pdfrwt>
<totfact> 0.65981445E+04</totfact>
</mgrwt>
</event>
<event>
 7    0  0.4685107E-002  0.4625744E+03  0.7546771E-02  0.1024037E+00
         21   -1    0    0  502  501  0.00000000000E+00  0.00000000000E+00  0.10838608855E+04  0.10838608855E+04  0.00000000000E+00 0. -1.
         21   -1    0    0  501  502 -0.00000000000E+00 -0.00000000000E+00 -0.49354821852E+02  0.49354821852E+02  0.00000000000E+00 0. -1.
      99926    2    1    2    0    0  0.44408920985E-15  0.00000000000E+00  0.10345060636E+04  0.11332157073E+04  0.46257436554E+03 0.  0.
      99925    2    3    3    0    0  0.38988203197E+01  0.37164941027E+02  0.36574442049E+03  0.45183029724E+03  0.26265034314E+03 0.  0.
         25    1    3    3    0    0 -0.38988203197E+01 -0.37164941027E+02  0.66876164313E+03  0.68138541007E+03  0.12509000000E+03 0.  0.
         25    1    4    4    0    0 -0.97148878709E+01 -0.17380834181E+02  0.19956533619E+03  0.23636899956E+03  0.12509000000E+03 0.  0.
         25    1    4    4    0    0  0.13613708191E+02  0.54545775207E+02  0.16617908430E+03  0.21546129769E+03  0.12509000000E+03 0.  0.
<mgrwt>
<rscale>  2 0.46257437E+03</rscale>
<asrwt>0</asrwt>
<pdfrwt beam="1">  1       21 0.15939129E+00 0.46257437E+03</pdfrwt>
<pdfrwt beam="2">  1       21 0.72580628E-02 0.46257437E+03</pdfrwt>
<totfact> 0.32392512E+04</totfact>
</mgrwt>
</event>
<event>
 7    0  0.4685107E-002  0.4605221E+03  0.7546771E-02  0.1024630E+00
         21   -1    0    0  502  501  0.00000000000E+00  0.00000000000E+00  0.97235326281E+03  0.97235326281E+03  0.00000000000E+00 0.  1.
         21   -1    0    0  501  502 -0.00000000000E+00 -0.00000000000E+00 -0.54527666282E+02  0.54527666282E+02  0.00000000000E+00 0.  1.
      99926    2    1    2    0    0  0.00000000000E+00  0.00000000000E+00  0.91782559652E+03  0.10268809291E+04  0.46052211336E+03 0.  0.
      99925    2    3    3    0    0 -0.38912892977E+02 -0.10152903642E+03  0.67831225624E+03  0.73561385791E+03  0.26305488498E+03 0.  0.
         25    1    3    3    0    0  0.38912892977E+02  0.10152903642E+03  0.23951334028E+03  0.29126707117E+03  0.12509000000E+03 0.  0.
         25    1    4    4    0    0 -0.48444553248E+01 -0.13979887247E+02  0.25734016020E+03  0.28651417443E+03  0.12509000000E+03 0.  0.
         25    1    4    4    0    0 -0.34068437652E+02 -0.87549149174E+02  0.42097209604E+03  0.44909968349E+03  0.12509000000E+03 0.  0.
<mgrwt>
<rscale>  2 0.46052211E+03</rscale>
<asrwt>0</asrwt>
<pdfrwt beam="1">  1       21 0.14299312E+00 0.46052211E+03</pdfrwt>
<pdfrwt beam="2">  1       21 0.80187751E-02 0.46052211E+03</pdfrwt>
<totfact> 0.36536523E+04</totfact>
</mgrwt>
</event>
<event>
 7    0  0.4685107E-002  0.4590552E+03  0.7546771E-02  0.1025056E+00
         21   -1    0    0  502  501  0.00000000000E+00  0.00000000000E+00  0.46205184469E+02  0.46205184469E+02  0.00000000000E+00 0.  1.
         21   -1    0    0  501  502 -0.00000000000E+00 -0.00000000000E+00 -0.11401948068E+04  0.11401948068E+04  0.00000000000E+00 0.  1.
      99926    2    1    2    0    0  0.00000000000E+00 -0.17763568394E-14 -0.10939896223E+04  0.11863999912E+04  0.45905516608E+03 0.  0.
      99925    2    3    3    0    0 -0.41682561976E+02 -0.13793085588E+02 -0.40645922267E+03  0.48620484437E+03  0.26316984214E+03 0.  0.
         25    1    4    4    0    0 -0.16630141868E+02  0.58438562409E+01 -0.27153686548E+03  0.29948370521E+03  0.12509000000E+03 0.  0.
         25    1    4    4    0    0 -0.25052420108E+02 -0.19636941829E+02 -0.13492235719E+03  0.18672113916E+03  0.12509000000E+03 0.  0.
         25    1    3    3    0    0  0.41682561976E+02  0.13793085588E+02 -0.68753039964E+03  0.70019514687E+03  0.12509000000E+03 0.  0.
<mgrwt>
<rscale>  2 0.45905517E+03</rscale>
<asrwt>0</asrwt>
<pdfrwt beam="1">  1       21 0.67948819E-02 0.45905517E+03</pdfrwt>
<pdfrwt beam="2">  1       21 0.16767566E+00 0.45905517E+03</pdfrwt>
<totfact> 0.31580396E+04</totfact>
</mgrwt>
</event>
<event>
 7    0  0.4685107E-002  0.4570313E+03  0.7546771E-02  0.1025646E+00
         21   -1    0    0  502  501  0.00000000000E+00  0.00000000000E+00  0.22823686433E+02  0.22823686433E+02  0.00000000000E+00 0. -1.
         21   -1    0    0  501  502 -0.00000000000E+00 -0.00000000000E+00 -0.22879479792E+04  0.22879479792E+04  0.00000000000E+00 0. -1.
      99926    2    1    2    0    0  0.00000000000E+00  0.00000000000E+00 -0.22651242928E+04  0.23107716657E+04  0.45703132169E+03 0.  0.
      99925    2    3    3    0    0  0.76857424764E+02  0.81747050762E+02 -0.15516546957E+04  0.15777805210E+04  0.26300082463E+03 0.  0.
         25    1    3    3    0    0 -0.76857424764E+02 -0.81747050762E+02 -0.71346959707E+03  0.73299114462E+03  0.12509000000E+03 0.  0.
         25    1    4    4    0    0 -0.35805241741E+01  0.39081300561E+02 -0.68956105455E+03  0.70191318854E+03  0.12509000000E+03 0.  0.
         25    1    4    4    0    0  0.80437948938E+02  0.42665750201E+02 -0.86209364118E+03  0.87586733249E+03  0.12509000000E+03 0.  0.
<mgrwt>
<rscale>  2 0.45703132E+03</rscale>
<asrwt>0</asrwt>
<pdfrwt beam="1">  1       21 0.33564253E-02 0.45703132E+03</pdfrwt>
<pdfrwt beam="2">  1       21 0.33646286E+00 0.45703132E+03</pdfrwt>
<totfact> 0.91223160E+03</totfact>
</mgrwt>
</event>
<event>
 7    0  0.4685107E-002  0.4550342E+03  0.7546771E-02  0.1026231E+00
         21   -1    0    0  502  501  0.00000000000E+00  0.00000000000E+00  0.81596503081E+03  0.81596503081E+03  0.00000000000E+00 0. -1.
         21   -1    0    0  501  502 -0.00000000000E+00 -0.00000000000E+00 -0.63439019367E+02  0.63439019367E+02  0.00000000000E+00 0. -1.
      99926    2    1    2    0    0  0.00000000000E+00 -0.14210854715E-13  0.75252601144E+03  0.87940405017E+03  0.45503415868E+03 0.  0.
      99925    2    3    3    0    0 -0.14817623790E+02  0.65140317166E+02  0.29703499071E+03  0.40234807761E+03  0.26304251929E+03 0.  0.
         25    1    4    4    0    0 -0.57967063642E+01 -0.81686414525E+01  0.12401651707E+03  0.17643110019E+03  0.12509000000E+03 0.  0.
         25    1    4    4    0    0 -0.90209174259E+01  0.73308958619E+02  0.17301847364E+03  0.22591697741E+03  0.12509000000E+03 0.  0.
         25    1    3    3    0    0  0.14817623790E+02 -0.65140317166E+02  0.45549102073E+03  0.47705597257E+03  0.12509000000E+03 0.  0.
<mgrwt>
<rscale>  2 0.45503416E+03</rscale>
<asrwt>0</asrwt>
<pdfrwt beam="1">  1       21 0.11999485E+00 0.45503416E+03</pdfrwt>
<pdfrwt beam="2">  1       21 0.93292680E-02 0.45503416E+03</pdfrwt>
<totfact> 0.44124393E+04</totfact>
</mgrwt>
</event>
<event>
 7    0  0.4685107E-002  0.4498934E+03  0.7546771E-02  0.1027754E+00
         21   -1    0    0  502  501  0.00000000000E+00  0.00000000000E+00  0.68625520319E+03  0.68625520319E+03  0.00000000000E+00 0.  1.
         21   -1    0    0  501  502 -0.00000000000E+00 -0.00000000000E+00 -0.73734999271E+02  0.73734999271E+02  0.00000000000E+00 0.  1.
      99926    2    1    2    0    0  0.00000000000E+00  0.00000000000E+00  0.61252020392E+03  0.75999020246E+03  0.44989344030E+03 0.  0.
      99925    2    3    3    0    0 -0.37498183187E+02 -0.69800472596E+02  0.51209914586E+03  0.58107648941E+03  0.26291848857E+03 0.  0.
         25    1    3    3    0    0  0.37498183187E+02  0.69800472596E+02  0.10042105805E+03  0.17891371305E+03  0.12509000000E+03 0.  0.
         25    1    4    4    0    0 -0.45943933736E+02 -0.58105215228E+01  0.23254994980E+03  0.26808878093E+03  0.12509000000E+03 0.  0.
         25    1    4    4    0    0  0.84457505487E+01 -0.63989951073E+02  0.27954919606E+03  0.31298770848E+03  0.12509000000E+03 0.  0.
<mgrwt>
<rscale>  2 0.44989344E+03</rscale>
<asrwt>0</asrwt>
<pdfrwt beam="1">  1       21 0.10091988E+00 0.44989344E+03</pdfrwt>
<pdfrwt beam="2">  1       21 0.10843383E-01 0.44989344E+03</pdfrwt>
<totfact> 0.51806553E+04</totfact>
</mgrwt>
</event>
<event>
 7    0  0.4685107E-002  0.4493882E+03  0.7546771E-02  0.1027905E+00
         21   -1    0    0  502  501  0.00000000000E+00  0.00000000000E+00  0.69504963071E+03  0.69504963071E+03  0.00000000000E+00 0. -1.
         21   -1    0    0  501  502 -0.00000000000E+00 -0.00000000000E+00 -0.72638608942E+02  0.72638608942E+02  0.00000000000E+00 0. -1.
      99926    2    1    2    0    0  0.00000000000E+00  0.00000000000E+00  0.62241102176E+03  0.76768823965E+03  0.44938819887E+03 0.  0.
      99925    2    3    3    0    0 -0.81968369968E+02 -0.55363930924E+02  0.32059618453E+03  0.42633258553E+03  0.26304672860E+03 0.  0.
         25    1    3    3    0    0  0.81968369968E+02  0.55363930924E+02  0.30181483724E+03  0.34135565412E+03  0.12509000000E+03 0.  0.
         25    1    4    4    0    0 -0.78718471028E+02 -0.46202369623E+02  0.19209226942E+03  0.24673509015E+03  0.12509000000E+03 0.  0.
         25    1    4    4    0    0 -0.32498989400E+01 -0.91615613006E+01  0.12850391510E+03  0.17959749538E+03  0.12509000000E+03 0.  0.
<mgrwt>
<rscale>  2 0.44938820E+03</rscale>
<asrwt>0</asrwt>
<pdfrwt beam="1">  1       21 0.10221318E+00 0.44938820E+03</pdfrwt>
<pdfrwt beam="2">  1       21 0.10682149E-01 0.44938820E+03</pdfrwt>
<totfact> 0.51603409E+04</totfact>
</mgrwt>
</event>
<event>
 7    0  0.4685107E-002  0.4531368E+03  0.7546771E-02  0.1026791E+00
         21   -1    0    0  502  501  0.00000000000E+00  0.00000000000E+00  0.13365560138E+03  0.13365560138E+03  0.00000000000E+00 0.  1.
         21   -1    0    0  501  502 -0.00000000000E+00 -0.00000000000E+00 -0.38407093356E+03  0.38407093356E+03  0.00000000000E+00 0.  1.
      99926    2    1    2    0    0  0.00000000000E+00  0.00000000000E+00 -0.25041533218E+03  0.51772653493E+03  0.45313676344E+03 0.  0.
      99925    2    3    3    0    0  0.43420433304E+02 -0.36612877020E+02 -0.48308813337E+02  0.27334897899E+03  0.26298305283E+03 0.  0.
         25    1    4    4    0    0 -0.14557510356E+02 -0.21129878694E+02 -0.41893491500E+01  0.12776326400E+03  0.12509000000E+03 0.  0.
         25    1    4    4    0    0  0.57977943661E+02 -0.15482998326E+02 -0.44119464187E+02  0.14558571499E+03  0.12509000000E+03 0.  0.
         25    1    3    3    0    0 -0.43420433304E+02  0.36612877020E+02 -0.20210651884E+03  0.24437755595E+03  0.12509000000E+03 0.  0.
<mgrwt>
<rscale>  2 0.45313676E+03</rscale>
<asrwt>0</asrwt>
<pdfrwt beam="1">  1       21 0.19655236E-01 0.45313676E+03</pdfrwt>
<pdfrwt beam="2">  1       21 0.56481019E-01 0.45313676E+03</pdfrwt>
<totfact> 0.64997999E+04</totfact>
</mgrwt>
</event>
<event>
 7    0  0.4685107E-002  0.4445677E+03  0.7546771E-02  0.1029354E+00
         21   -1    0    0  502  501  0.00000000000E+00  0.00000000000E+00  0.38409472708E+03  0.38409472708E+03  0.00000000000E+00 0. -1.
         21   -1    0    0  501  502 -0.00000000000E+00 -0.00000000000E+00 -0.12864042937E+03  0.12864042937E+03  0.00000000000E+00 0. -1.
      99926    2    1    2    0    0  0.00000000000E+00  0.00000000000E+00  0.25545429771E+03  0.51273515646E+03  0.44456770288E+03 0.  0.
      99925    2    3    3    0    0  0.95020554612E+02 -0.28433895585E+02  0.19462340617E+03  0.34189810637E+03  0.26301835048E+03 0.  0.
         25    1    4    4    0    0  0.35700498982E+02  0.22555614022E+02  0.10980398151E+03  0.17171984104E+03  0.12509000000E+03 0.  0.
         25    1    4    4    0    0  0.59320055630E+02 -0.50989509608E+02  0.84819424666E+02  0.17017826533E+03  0.12509000000E+03 0.  0.
         25    1    3    3    0    0 -0.95020554612E+02  0.28433895585E+02  0.60830891538E+02  0.17083705009E+03  0.12509000000E+03 0.  0.
<mgrwt>
<rscale>  2 0.44456770E+03</rscale>
<asrwt>0</asrwt>
<pdfrwt beam="1">  1       21 0.56484518E-01 0.44456770E+03</pdfrwt>
<pdfrwt beam="2">  1       21 0.18917710E-01 0.44456770E+03</pdfrwt>
<totfact> 0.70002024E+04</totfact>
</mgrwt>
</event>
<event>
 7    0  0.4685107E-002  0.4476746E+03  0.7546771E-02  0.1028418E+00
         21   -1    0    0  502  501  0.00000000000E+00  0.00000000000E+00  0.30047500611E+02  0.30047500611E+02  0.00000000000E+00 0.  1.
         21   -1    0    0  501  502 -0.00000000000E+00 -0.00000000000E+00 -0.16674644634E+04  0.16674644634E+04  0.00000000000E+00 0.  1.
      99926    2    1    2    0    0  0.00000000000E+00  0.14210854715E-13 -0.16374169628E+04  0.16975119640E+04  0.44767461166E+03 0.  0.
      99925    2    3    3    0    0 -0.44752907043E+02 -0.80902704548E+02 -0.12349078332E+04  0.12659923494E+04  0.26304220564E+03 0.  0.
         25    1    3    3    0    0  0.44752907043E+02  0.80902704548E+02 -0.40250912960E+03  0.43151961463E+03  0.12509000000E+03 0.  0.
         25    1    4    4    0    0 -0.31644459252E+02 -0.70682711200E+01 -0.68440086325E+03  0.69649363383E+03  0.12509000000E+03 0.  0.
         25    1    4    4    0    0 -0.13108447790E+02 -0.73834433428E+02 -0.55050696991E+03  0.56949871552E+03  0.12509000000E+03 0.  0.
<mgrwt>
<rscale>  2 0.44767461E+03</rscale>
<asrwt>0</asrwt>
<pdfrwt beam="1">  1       21 0.44187494E-02 0.44767461E+03</pdfrwt>
<pdfrwt beam="2">  1       21 0.24521540E+00 0.44767461E+03</pdfrwt>
<totfact> 0.20452171E+04</totfact>
</mgrwt>
</event>
<event>
 7    0  0.4685107E-002  0.4512642E+03  0.7546771E-02  0.1027346E+00
         21   -1    0    0  502  501  0.00000000000E+00  0.00000000000E+00  0.14069879150E+04  0.14069879150E+04  0.00000000000E+00 0.  1.
         21   -1    0    0  501  502 -0.00000000000E+00 -0.00000000000E+00 -0.36183566846E+02  0.36183566846E+02  0.00000000000E+00 0.  1.
      99926    2    1    2    0    0  0.00000000000E+00  0.00000000000E+00  0.13708043481E+04  0.14431714818E+04  0.45126418547E+03 0.  0.
      99925    2    3    3    0    0 -0.73592868984E+02 -0.43471058990E+02  0.64601443129E+03  0.70271650346E+03  0.26300227272E+03 0.  0.
         25    1    3    3    0    0  0.73592868984E+02  0.43471058990E+02  0.72478991682E+03  0.74045497835E+03  0.12509000000E+03 0.  0.
         25    1    4    4    0    0 -0.48591837495E+01 -0.24528562416E+02  0.37054978105E+03  0.39189272815E+03  0.12509000000E+03 0.  0.
         25    1    4    4    0    0 -0.68733685235E+02 -0.18942496575E+02  0.27546465024E+03  0.31082377531E+03  0.12509000000E+03 0.  0.
<mgrwt>
<rscale>  2 0.45126419E+03</rscale>
<asrwt>0</asrwt>
<pdfrwt beam="1">  1       21 0.20690995E+00 0.45126419E+03</pdfrwt>
<pdfrwt beam="2">  1       21 0.53211137E-02 0.45126419E+03</pdfrwt>
<totfact> 0.25949016E+04</totfact>
</mgrwt>
</event>
<event>
 7    0  0.4685107E-002  0.4532744E+03  0.7546771E-02  0.1026750E+00
         21   -1    0    0  502  501  0.00000000000E+00  0.00000000000E+00  0.22801354528E+03  0.22801354528E+03  0.00000000000E+00 0.  1.
         21   -1    0    0  501  502 -0.00000000000E+00 -0.00000000000E+00 -0.22526916060E+03  0.22526916060E+03  0.00000000000E+00 0.  1.
      99926    2    1    2    0    0  0.00000000000E+00 -0.14210854715E-13  0.27443846852E+01  0.45328270588E+03  0.45327439791E+03 0.  0.
      99925    2    3    3    0    0 -0.98103509019E+01 -0.48485967959E+02  0.10187691604E+03  0.28618423507E+03  0.26282195172E+03 0.  0.
         25    1    4    4    0    0  0.21806608052E+01 -0.13025880051E+02  0.93086262963E+01  0.12612924901E+03  0.12509000000E+03 0.  0.
         25    1    4    4    0    0 -0.11991011707E+02 -0.35460087908E+02  0.92568289747E+02  0.16005498606E+03  0.12509000000E+03 0.  0.
         25    1    3    3    0    0  0.98103509019E+01  0.48485967959E+02 -0.99132531358E+02  0.16709847081E+03  0.12509000000E+03 0.  0.
<mgrwt>
<rscale>  2 0.45327440E+03</rscale>
<asrwt>0</asrwt>
<pdfrwt beam="1">  1       21 0.33531404E-01 0.45327440E+03</pdfrwt>
<pdfrwt beam="2">  1       21 0.33127818E-01 0.45327440E+03</pdfrwt>
<totfact> 0.69625493E+04</totfact>
</mgrwt>
</event>
<event>
 7    0  0.4685107E-002  0.4472558E+03  0.7546771E-02  0.1028544E+00
         21   -1    0    0  502  501  0.00000000000E+00  0.00000000000E+00  0.64167028644E+03  0.64167028644E+03  0.00000000000E+00 0.  1.
         21   -1    0    0  501  502 -0.00000000000E+00 -0.00000000000E+00 -0.77936348536E+02  0.77936348536E+02  0.00000000000E+00 0.  1.
      99926    2    1    2    0    0  0.35527136788E-14  0.14210854715E-13  0.56373393790E+03  0.71960663497E+03  0.44725580640E+03 0.  0.
      99925    2    3    3    0    0  0.17051409451E+02  0.10302730575E+03  0.32965498859E+03  0.43439471568E+03  0.26290869369E+03 0.  0.
         25    1    4    4    0    0 -0.24426269736E+01  0.91472560714E+02  0.16500609994E+03  0.22637958589E+03  0.12509000000E+03 0.  0.
         25    1    4    4    0    0  0.19494036424E+02  0.11554745039E+02  0.16464888865E+03  0.20801512980E+03  0.12509000000E+03 0.  0.
         25    1    3    3    0    0 -0.17051409451E+02 -0.10302730575E+03  0.23407894931E+03  0.28521191929E+03  0.12509000000E+03 0.  0.
<mgrwt>
<rscale>  2 0.44725581E+03</rscale>
<asrwt>0</asrwt>
<pdfrwt beam="1">  1       21 0.94363274E-01 0.44725581E+03</pdfrwt>
<pdfrwt beam="2">  1       21 0.11461228E-01 0.44725581E+03</pdfrwt>
<totfact> 0.55133743E+04</totfact>
</mgrwt>
</event>
<event>
 7    0  0.4685107E-002  0.4429071E+03  0.7546771E-02  0.1029859E+00
         21   -1    0    0  502  501  0.00000000000E+00  0.00000000000E+00  0.13034481692E+03  0.13034481692E+03  0.00000000000E+00 0.  1.
         21   -1    0    0  501  502 -0.00000000000E+00 -0.00000000000E+00 -0.37624561614E+03  0.37624561614E+03  0.00000000000E+00 0.  1.
      99926    2    1    2    0    0  0.35527136788E-14  0.88817841970E-15 -0.24590079922E+03  0.50659043305E+03  0.44290706001E+03 0.  0.
      99925    2    3    3    0    0 -0.30305010893E+02  0.20250920069E+01 -0.45887366005E+02  0.26873464429E+03  0.26304023266E+03 0.  0.
         25    1    4    4    0    0  0.13127459795E+02 -0.15425774723E+02  0.23194401854E+01  0.12674057215E+03  0.12509000000E+03 0.  0.
         25    1    4    4    0    0 -0.43432470689E+02  0.17450866730E+02 -0.48206806190E+02  0.14199407214E+03  0.12509000000E+03 0.  0.
         25    1    3    3    0    0  0.30305010893E+02 -0.20250920069E+01 -0.20001343321E+03  0.23785578876E+03  0.12509000000E+03 0.  0.
<mgrwt>
<rscale>  2 0.44290706E+03</rscale>
<asrwt>0</asrwt>
<pdfrwt beam="1">  1       21 0.19168356E-01 0.44290706E+03</pdfrwt>
<pdfrwt beam="2">  1       21 0.55330237E-01 0.44290706E+03</pdfrwt>
<totfact> 0.71421715E+04</totfact>
</mgrwt>
</event>
<event>
 7    0  0.4685107E-002  0.4647553E+03  0.7546771E-02  0.1023411E+00
         21   -1    0    0  502  501  0.00000000000E+00  0.00000000000E+00  0.99200391523E+03  0.99200391523E+03  0.00000000000E+00 0.  1.
         21   -1    0    0  501  502 -0.00000000000E+00 -0.00000000000E+00 -0.54434647268E+02  0.54434647268E+02  0.00000000000E+00 0.  1.
      99926    2    1    2    0    0 -0.71054273576E-14  0.00000000000E+00  0.93756926796E+03  0.10464385625E+04  0.46475534731E+03 0.  0.
      99925    2    3    3    0    0  0.38079922849E+02  0.11382588564E+03  0.53480440846E+03  0.60794859350E+03  0.26301962714E+03 0.  0.
         25    1    3    3    0    0 -0.38079922849E+02 -0.11382588564E+03  0.40276485950E+03  0.43848996900E+03  0.12509000000E+03 0.  0.
         25    1    4    4    0    0 -0.64304284603E+01  0.20876259335E+02  0.22912096750E+03  0.26195628349E+03  0.12509000000E+03 0.  0.
         25    1    4    4    0    0  0.44510351309E+02  0.92949626302E+02  0.30568344097E+03  0.34599231001E+03  0.12509000000E+03 0.  0.
<mgrwt>
<rscale>  2 0.46475535E+03</rscale>
<asrwt>0</asrwt>
<pdfrwt beam="1">  1       21 0.14588292E+00 0.46475535E+03</pdfrwt>
<pdfrwt beam="2">  1       21 0.80050958E-02 0.46475535E+03</pdfrwt>
<totfact> 0.34690522E+04</totfact>
</mgrwt>
</event>
<event>
 7    0  0.4685107E-002  0.4539887E+03  0.7546771E-02  0.1026539E+00
         21   -1    0    0  502  501  0.00000000000E+00  0.00000000000E+00  0.39318602910E+03  0.39318602910E+03  0.00000000000E+00 0.  1.
         21   -1    0    0  501  502 -0.00000000000E+00 -0.00000000000E+00 -0.13104850622E+03  0.13104850622E+03  0.00000000000E+00 0.  1.
      99926    2    1    2    0    0  0.00000000000E+00 -0.71054273576E-14  0.26213752289E+03  0.52423453532E+03  0.45398873016E+03 0.  0.
      99925    2    3    3    0    0  0.76225112946E+02 -0.51413515486E+02  0.90047242251E+02  0.29246700048E+03  0.26263058297E+03 0.  0.
         25    1    4    4    0    0  0.32177804299E+02 -0.54173068515E+02  0.75248575519E+02  0.15899681965E+03  0.12509000000E+03 0.  0.
         25    1    4    4    0    0  0.44047308648E+02  0.27595530289E+01  0.14798666731E+02  0.13347018082E+03  0.12509000000E+03 0.  0.
         25    1    3    3    0    0 -0.76225112946E+02  0.51413515486E+02  0.17209028064E+03  0.23176753484E+03  0.12509000000E+03 0.  0.
<mgrwt>
<rscale>  2 0.45398873E+03</rscale>
<asrwt>0</asrwt>
<pdfrwt beam="1">  1       21 0.57821475E-01 0.45398873E+03</pdfrwt>
<pdfrwt beam="2">  1       21 0.19271839E-01 0.45398873E+03</pdfrwt>
<totfact> 0.64110902E+04</totfact>
</mgrwt>
</event>
<event>
 7    0  0.4685107E-002  0.4506421E+03  0.7546771E-02  0.1027531E+00
         21   -1    0    0  502  501  0.00000000000E+00  0.00000000000E+00  0.14438678938E+02  0.14438678938E+02  0.00000000000E+00 0.  1.
         21   -1    0    0  501  502 -0.00000000000E+00 -0.00000000000E+00 -0.35162206722E+04  0.35162206722E+04  0.00000000000E+00 0.  1.
      99926    2    1    2    0    0  0.00000000000E+00  0.00000000000E+00 -0.35017819932E+04  0.35306593511E+04  0.45064212569E+03 0.  0.
      99925    2    3    3    0    0 -0.10090563683E+03  0.30344950687E+02 -0.24491344640E+04  0.24653814097E+04  0.26218907092E+03 0.  0.
         25    1    3    3    0    0  0.10090563683E+03 -0.30344950687E+02 -0.10526475292E+04  0.10652779414E+04  0.12509000000E+03 0.  0.
         25    1    4    4    0    0 -0.79052303795E+02  0.31083715302E+02 -0.15432587333E+04  0.15506484096E+04  0.12509000000E+03 0.  0.
         25    1    4    4    0    0 -0.21853333034E+02 -0.73876461415E+00 -0.90587573075E+03  0.91473300017E+03  0.12509000000E+03 0.  0.
<mgrwt>
<rscale>  2 0.45064213E+03</rscale>
<asrwt>0</asrwt>
<pdfrwt beam="1">  1       21 0.21233332E-02 0.45064213E+03</pdfrwt>
<pdfrwt beam="2">  1       21 0.51709176E+00 0.45064213E+03</pdfrwt>
<totfact> 0.12540231E+03</totfact>
</mgrwt>
</event>
<event>
 7    0  0.4685107E-002  0.4404807E+03  0.7546771E-02  0.1030599E+00
         21   -1    0    0  502  501  0.00000000000E+00  0.00000000000E+00  0.10159544855E+04  0.10159544855E+04  0.00000000000E+00 0. -1.
         21   -1    0    0  501  502 -0.00000000000E+00 -0.00000000000E+00 -0.47744083715E+02  0.47744083715E+02  0.00000000000E+00 0. -1.
      99926    2    1    2    0    0  0.00000000000E+00  0.00000000000E+00  0.96821040181E+03  0.10636985692E+04  0.44048071925E+03 0.  0.
      99925    2    3    3    0    0 -0.36636542916E+02  0.91337710084E+02  0.59068819491E+03  0.65399704573E+03  0.26289689740E+03 0.  0.
         25    1    4    4    0    0  0.13857642434E+02  0.18065298403E+02  0.26115240906E+03  0.29045908166E+03  0.12509000000E+03 0.  0.
         25    1    4    4    0    0 -0.50494185350E+02  0.73272411682E+02  0.32953578585E+03  0.36353796407E+03  0.12509000000E+03 0.  0.
         25    1    3    3    0    0  0.36636542916E+02 -0.91337710084E+02  0.37752220690E+03  0.40970152351E+03  0.12509000000E+03 0.  0.
<mgrwt>
<rscale>  2 0.44048072E+03</rscale>
<asrwt>0</asrwt>
<pdfrwt beam="1">  1       21 0.14940506E+00 0.44048072E+03</pdfrwt>
<pdfrwt beam="2">  1       21 0.70211894E-02 0.44048072E+03</pdfrwt>
<totfact> 0.41259247E+04</totfact>
</mgrwt>
</event>
<event>
 7    0  0.4685107E-002  0.4440474E+03  0.7546771E-02  0.1029512E+00
         21   -1    0    0  502  501  0.00000000000E+00  0.00000000000E+00  0.31345589976E+02  0.31345589976E+02  0.00000000000E+00 0. -1.
         21   -1    0    0  501  502 -0.00000000000E+00 -0.00000000000E+00 -0.15726139935E+04  0.15726139935E+04  0.00000000000E+00 0. -1.
      99926    2    1    2    0    0  0.00000000000E+00  0.00000000000E+00 -0.15412684035E+04  0.16039595835E+04  0.44404735527E+03 0.  0.
      99925    2    3    3    0    0 -0.11526689374E+02 -0.97331552843E+02 -0.10878348188E+04  0.11234850060E+04  0.26311151620E+03 0.  0.
         25    1    4    4    0    0 -0.13316386719E+02 -0.90791528959E+02 -0.63004340243E+03  0.64886256244E+03  0.12509000000E+03 0.  0.
         25    1    4    4    0    0  0.17896973446E+01 -0.65400238838E+01 -0.45779141642E+03  0.47462244361E+03  0.12509000000E+03 0.  0.
         25    1    3    3    0    0  0.11526689374E+02  0.97331552843E+02 -0.45343358467E+03  0.48047457743E+03  0.12509000000E+03 0.  0.
<mgrwt>
<rscale>  2 0.44404736E+03</rscale>
<asrwt>0</asrwt>
<pdfrwt beam="1">  1       21 0.46096458E-02 0.44404736E+03</pdfrwt>
<pdfrwt beam="2">  1       21 0.23126675E+00 0.44404736E+03</pdfrwt>
<totfact> 0.23256380E+04</totfact>
</mgrwt>
</event>
<event>
 7    0  0.4685107E-002  0.4685396E+03  0.7546771E-02  0.1022333E+00
         21   -1    0    0  502  501  0.00000000000E+00  0.00000000000E+00  0.28424256340E+03  0.28424256340E+03  0.00000000000E+00 0.  1.
         21   -1    0    0  501  502 -0.00000000000E+00 -0.00000000000E+00 -0.19308274289E+03  0.19308274289E+03  0.00000000000E+00 0.  1.
      99926    2    1    2    0    0  0.14210854715E-13  0.00000000000E+00  0.91159820504E+02  0.47732530629E+03  0.46853957693E+03 0.  0.
      99925    2    3    3    0    0  0.11438007565E+03  0.47658157400E+02  0.36866557841E+02  0.29307176320E+03  0.26301675541E+03 0.  0.
         25    1    4    4    0    0  0.64786583132E+02 -0.48082733423E+01 -0.97912582092E+01  0.14129330375E+03  0.12509000000E+03 0.  0.
         25    1    3    3    0    0 -0.11438007565E+03 -0.47658157400E+02  0.54293262662E+02  0.18425354309E+03  0.12509000000E+03 0.  0.
         25    1    4    4    0    0  0.49593492516E+02  0.52466430742E+02  0.46657816051E+02  0.15177845945E+03  0.12509000000E+03 0.  0.
<mgrwt>
<rscale>  2 0.46853958E+03</rscale>
<asrwt>0</asrwt>
<pdfrwt beam="1">  1       21 0.41800377E-01 0.46853958E+03</pdfrwt>
<pdfrwt beam="2">  1       21 0.28394521E-01 0.46853958E+03</pdfrwt>
<totfact> 0.60164106E+04</totfact>
</mgrwt>
</event>
<event>
 7    0  0.4685107E-002  0.4490575E+03  0.7546771E-02  0.1028003E+00
         21   -1    0    0  502  501  0.00000000000E+00  0.00000000000E+00  0.10073312128E+03  0.10073312128E+03  0.00000000000E+00 0. -1.
         21   -1    0    0  501  502 -0.00000000000E+00 -0.00000000000E+00 -0.50046261877E+03  0.50046261877E+03  0.00000000000E+00 0. -1.
      99926    2    1    2    0    0  0.14210854715E-13 -0.17763568394E-14 -0.39972949749E+03  0.60119574005E+03  0.44905750933E+03 0.  0.
      99925    2    3    3    0    0  0.10634419373E+03 -0.76805454021E+01 -0.25603506319E+03  0.38287561531E+03  0.26395398254E+03 0.  0.
         25    1    3    3    0    0 -0.10634419373E+03  0.76805454021E+01 -0.14369443430E+03  0.21832012474E+03  0.12509000000E+03 0.  0.
         25    1    4    4    0    0  0.19383787540E+02  0.15895604179E+02 -0.88876600884E+02  0.15548298858E+03  0.12509000000E+03 0.  0.
         25    1    4    4    0    0  0.86960406185E+02 -0.23576149582E+02 -0.16715846231E+03  0.22739262674E+03  0.12509000000E+03 0.  0.
<mgrwt>
<rscale>  2 0.44905751E+03</rscale>
<asrwt>0</asrwt>
<pdfrwt beam="1">  1       21 0.14813694E-01 0.44905751E+03</pdfrwt>
<pdfrwt beam="2">  1       21 0.73597444E-01 0.44905751E+03</pdfrwt>
<totfact> 0.61438879E+04</totfact>
</mgrwt>
</event>
<event>
 7    0  0.4685107E-002  0.4582308E+03  0.7546771E-02  0.1025296E+00
         21   -1    0    0  502  501  0.00000000000E+00  0.00000000000E+00  0.66648127712E+02  0.66648127712E+02  0.00000000000E+00 0. -1.
         21   -1    0    0  501  502 -0.00000000000E+00 -0.00000000000E+00 -0.78762696867E+03  0.78762696867E+03  0.00000000000E+00 0. -1.
      99926    2    1    2    0    0  0.00000000000E+00 -0.14210854715E-13 -0.72097884096E+03  0.85427509638E+03  0.45823078376E+03 0.  0.
      99925    2    3    3    0    0  0.61762146767E+02  0.90387268557E+02 -0.52464227197E+03  0.59702040252E+03  0.26305783851E+03 0.  0.
         25    1    3    3    0    0 -0.61762146767E+02 -0.90387268557E+02 -0.19633656899E+03  0.25725469386E+03  0.12509000000E+03 0.  0.
         25    1    4    4    0    0  0.70371606160E+01  0.77579433354E+02 -0.25535101571E+03  0.29482153828E+03  0.12509000000E+03 0.  0.
         25    1    4    4    0    0  0.54724986151E+02  0.12807835203E+02 -0.26929125626E+03  0.30219886424E+03  0.12509000000E+03 0.  0.
<mgrwt>
<rscale>  2 0.45823078E+03</rscale>
<asrwt>0</asrwt>
<pdfrwt beam="1">  1       21 0.98011954E-02 0.45823078E+03</pdfrwt>
<pdfrwt beam="2">  1       21 0.11582749E+00 0.45823078E+03</pdfrwt>
<totfact> 0.44119931E+04</totfact>
</mgrwt>
</event>
<event>
 7    0  0.4685107E-002  0.4612907E+03  0.7546771E-02  0.1024408E+00
         21   -1    0    0  502  501  0.00000000000E+00  0.00000000000E+00  0.10212050621E+04  0.10212050621E+04  0.00000000000E+00 0.  1.
         21   -1    0    0  501  502 -0.00000000000E+00 -0.00000000000E+00 -0.52092659954E+02  0.52092659954E+02  0.00000000000E+00 0.  1.
      99926    2    1    2    0    0  0.00000000000E+00 -0.71054273576E-14  0.96911240212E+03  0.10732977220E+04  0.46129074581E+03 0.  0.
      99925    2    3    3    0    0 -0.55922202502E+02 -0.26652348993E+02  0.37038178854E+03  0.45851036352E+03  0.26308067914E+03 0.  0.
         25    1    4    4    0    0  0.24014568969E+01  0.12554709267E+02  0.15289055738E+03  0.19795559693E+03  0.12509000000E+03 0.  0.
         25    1    4    4    0    0 -0.58323659399E+02 -0.39207058261E+02  0.21749123116E+03  0.26055476659E+03  0.12509000000E+03 0.  0.
         25    1    3    3    0    0  0.55922202502E+02  0.26652348993E+02  0.59873061359E+03  0.61478735851E+03  0.12509000000E+03 0.  0.
<mgrwt>
<rscale>  2 0.46129075E+03</rscale>
<asrwt>0</asrwt>
<pdfrwt beam="1">  1       21 0.15017720E+00 0.46129075E+03</pdfrwt>
<pdfrwt beam="2">  1       21 0.76606859E-02 0.46129075E+03</pdfrwt>
<totfact> 0.34699075E+04</totfact>
</mgrwt>
</event>
<event>
 7    0  0.4685107E-002  0.4511548E+03  0.7546771E-02  0.1027378E+00
         21   -1    0    0  502  501  0.00000000000E+00  0.00000000000E+00  0.83069005464E+02  0.83069005464E+02  0.00000000000E+00 0. -1.
         21   -1    0    0  501  502 -0.00000000000E+00 -0.00000000000E+00 -0.61256509919E+03  0.61256509919E+03  0.00000000000E+00 0. -1.
      99926    2    1    2    0    0 -0.71054273576E-14 -0.71054273576E-14 -0.52949609373E+03  0.69563410466E+03  0.45115484513E+03 0.  0.
      99925    2    3    3    0    0  0.45404988095E+02 -0.56266107028E+02 -0.20726248315E+03  0.34249178826E+03  0.26289807980E+03 0.  0.
         25    1    3    3    0    0 -0.45404988095E+02  0.56266107028E+02 -0.32223361057E+03  0.35314231639E+03  0.12509000000E+03 0.  0.
         25    1    4    4    0    0 -0.93447863665E+01 -0.48302498929E+02 -0.85023721245E+02  0.15905029931E+03  0.12509000000E+03 0.  0.
         25    1    4    4    0    0  0.54749774462E+02 -0.79636080989E+01 -0.12223876191E+03  0.18344148896E+03  0.12509000000E+03 0.  0.
<mgrwt>
<rscale>  2 0.45115485E+03</rscale>
<asrwt>0</asrwt>
<pdfrwt beam="1">  1       21 0.12216031E-01 0.45115485E+03</pdfrwt>
<pdfrwt beam="2">  1       21 0.90083099E-01 0.45115485E+03</pdfrwt>
<totfact> 0.54779783E+04</totfact>
</mgrwt>
</event>
<event>
 7    0  0.4685107E-002  0.4191376E+03  0.7546771E-02  0.1037347E+00
         21   -1    0    0  502  501  0.00000000000E+00  0.00000000000E+00  0.42480766105E+03  0.42480766105E+03  0.00000000000E+00 0. -1.
         21   -1    0    0  501  502 -0.00000000000E+00 -0.00000000000E+00 -0.10338582038E+03  0.10338582038E+03  0.00000000000E+00 0. -1.
      99926    2    1    2    0    0  0.00000000000E+00  0.00000000000E+00  0.32142184066E+03  0.52819348143E+03  0.41913763153E+03 0.  0.
      99925    2    3    3    0    0  0.69626393933E+02  0.26722659539E+02  0.21745657129E+03  0.34925712235E+03  0.26292820664E+03 0.  0.
         25    1    4    4    0    0  0.68353235201E+02  0.90840970351E+01  0.85004074366E+02  0.16621638409E+03  0.12509000000E+03 0.  0.
         25    1    3    3    0    0 -0.69626393933E+02 -0.26722659539E+02  0.10396526938E+03  0.17893635908E+03  0.12509000000E+03 0.  0.
         25    1    4    4    0    0  0.12731587329E+01  0.17638562504E+02  0.13245249692E+03  0.18304073826E+03  0.12509000000E+03 0.  0.
<mgrwt>
<rscale>  2 0.41913763E+03</rscale>
<asrwt>0</asrwt>
<pdfrwt beam="1">  1       21 0.62471714E-01 0.41913763E+03</pdfrwt>
<pdfrwt beam="2">  1       21 0.15203797E-01 0.41913763E+03</pdfrwt>
<totfact> 0.85016301E+04</totfact>
</mgrwt>
</event>
<event>
 7    0  0.4685107E-002  0.4655512E+03  0.7546771E-02  0.1023183E+00
         21   -1    0    0  502  501  0.00000000000E+00  0.00000000000E+00  0.91456653971E+02  0.91456653971E+02  0.00000000000E+00 0. -1.
         21   -1    0    0  501  502 -0.00000000000E+00 -0.00000000000E+00 -0.59246080565E+03  0.59246080565E+03  0.00000000000E+00 0. -1.
      99926    2    1    2    0    0  0.00000000000E+00  0.00000000000E+00 -0.50100415168E+03  0.68391745962E+03  0.46555121262E+03 0.  0.
      99925    2    3    3    0    0  0.46670849406E+02 -0.89417076098E+02 -0.20948121045E+03  0.35104103353E+03  0.26300921659E+03 0.  0.
         25    1    4    4    0    0  0.20538736462E+02 -0.25135185628E+02 -0.14470116013E+03  0.19400915209E+03  0.12509000000E+03 0.  0.
         25    1    4    4    0    0  0.26132112944E+02 -0.64281890470E+02 -0.64780050317E+02  0.15703188144E+03  0.12509000000E+03 0.  0.
         25    1    3    3    0    0 -0.46670849406E+02  0.89417076098E+02 -0.29152294123E+03  0.33287642609E+03  0.12509000000E+03 0.  0.
<mgrwt>
<rscale>  2 0.46555121E+03</rscale>
<asrwt>0</asrwt>
<pdfrwt beam="1">  1       21 0.13449508E-01 0.46555121E+03</pdfrwt>
<pdfrwt beam="2">  1       21 0.87126591E-01 0.46555121E+03</pdfrwt>
<totfact> 0.49536891E+04</totfact>
</mgrwt>
</event>
<event>
 7    0  0.4685107E-002  0.4439101E+03  0.7546771E-02  0.1029554E+00
         21   -1    0    0  502  501  0.00000000000E+00  0.00000000000E+00  0.93578708530E+02  0.93578708530E+02  0.00000000000E+00 0. -1.
         21   -1    0    0  501  502 -0.00000000000E+00 -0.00000000000E+00 -0.52644498767E+03  0.52644498767E+03  0.00000000000E+00 0. -1.
      99926    2    1    2    0    0 -0.14210854715E-13  0.00000000000E+00 -0.43286627914E+03  0.62002369620E+03  0.44391009026E+03 0.  0.
      99925    2    3    3    0    0  0.72507178945E+02  0.57453734788E+02 -0.21367327565E+03  0.35122767034E+03  0.26295700227E+03 0.  0.
         25    1    4    4    0    0  0.73913356530E+02  0.24095206693E+02 -0.13460439743E+03  0.19952347022E+03  0.12509000000E+03 0.  0.
         25    1    3    3    0    0 -0.72507178945E+02 -0.57453734788E+02 -0.21919300349E+03  0.26879602586E+03  0.12509000000E+03 0.  0.
         25    1    4    4    0    0 -0.14061775855E+01  0.33358528095E+02 -0.79068878217E+02  0.15170420012E+03  0.12509000000E+03 0.  0.
<mgrwt>
<rscale>  2 0.44391009E+03</rscale>
<asrwt>0</asrwt>
<pdfrwt beam="1">  1       21 0.13761575E-01 0.44391009E+03</pdfrwt>
<pdfrwt beam="2">  1       21 0.77418381E-01 0.44391009E+03</pdfrwt>
<totfact> 0.62781931E+04</totfact>
</mgrwt>
</event>
<event>
 7    0  0.4685107E-002  0.4668018E+03  0.7546771E-02  0.1022827E+00
         21   -1    0    0  502  501  0.00000000000E+00  0.00000000000E+00  0.48801570374E+03  0.48801570374E+03  0.00000000000E+00 0.  1.
         21   -1    0    0  501  502 -0.00000000000E+00 -0.00000000000E+00 -0.11162753494E+03  0.11162753494E+03  0.00000000000E+00 0.  1.
      99926    2    1    2    0    0  0.00000000000E+00  0.14210854715E-13  0.37638816880E+03  0.59964323869E+03  0.46680184242E+03 0.  0.
      99925    2    3    3    0    0  0.30892038587E+02 -0.78220143456E+02  0.35128733715E+03  0.44683529144E+03  0.26303284120E+03 0.  0.
         25    1    3    3    0    0 -0.30892038587E+02  0.78220143456E+02  0.25100831656E+02  0.15280794724E+03  0.12509000000E+03 0.  0.
         25    1    4    4    0    0  0.86313725510E+01 -0.61164312990E+02  0.12783656648E+03  0.18922280413E+03  0.12509000000E+03 0.  0.
         25    1    4    4    0    0  0.22260666036E+02 -0.17055830467E+02  0.22345077067E+03  0.25761248731E+03  0.12509000000E+03 0.  0.
<mgrwt>
<rscale>  2 0.46680184E+03</rscale>
<asrwt>0</asrwt>
<pdfrwt beam="1">  1       21 0.71767014E-01 0.46680184E+03</pdfrwt>
<pdfrwt beam="2">  1       21 0.16415814E-01 0.46680184E+03</pdfrwt>
<totfact> 0.53530772E+04</totfact>
</mgrwt>
</event>
<event>
 7    0  0.4685107E-002  0.4570137E+03  0.7546771E-02  0.1025651E+00
         21   -1    0    0  502  501  0.00000000000E+00  0.00000000000E+00  0.41365114860E+03  0.41365114860E+03  0.00000000000E+00 0.  1.
         21   -1    0    0  501  502 -0.00000000000E+00 -0.00000000000E+00 -0.12623045006E+03  0.12623045006E+03  0.00000000000E+00 0.  1.
      99926    2    1    2    0    0  0.71054273576E-14  0.00000000000E+00  0.28742069854E+03  0.53988159866E+03  0.45701365694E+03 0.  0.
      99925    2    3    3    0    0  0.58243763144E+02  0.93881490241E+02  0.21815664204E+03  0.35918547868E+03  0.26308899154E+03 0.  0.
         25    1    4    4    0    0  0.73108126413E+01  0.13729469543E+02  0.75006418727E+02  0.14668134600E+03  0.12509000000E+03 0.  0.
         25    1    4    4    0    0  0.50932950502E+02  0.80152020698E+02  0.14315022332E+03  0.21250413268E+03  0.12509000000E+03 0.  0.
         25    1    3    3    0    0 -0.58243763144E+02 -0.93881490241E+02  0.69264056498E+02  0.18069611998E+03  0.12509000000E+03 0.  0.
<mgrwt>
<rscale>  2 0.45701366E+03</rscale>
<asrwt>0</asrwt>
<pdfrwt beam="1">  1       21 0.60831051E-01 0.45701366E+03</pdfrwt>
<pdfrwt beam="2">  1       21 0.18563302E-01 0.45701366E+03</pdfrwt>
<totfact> 0.61553339E+04</totfact>
</mgrwt>
</event>
<event>
 7    0  0.4685107E-002  0.4539808E+03  0.7546771E-02  0.1026542E+00
         21   -1    0    0  502  501  0.00000000000E+00  0.00000000000E+00  0.23464786229E+04  0.23464786229E+04  0.00000000000E+00 0.  1.
         21   -1    0    0  501  502 -0.00000000000E+00 -0.00000000000E+00 -0.21958283222E+02  0.21958283222E+02  0.00000000000E+00 0.  1.
      99926    2    1    2    0    0  0.00000000000E+00 -0.14210854715E-13  0.23245203397E+04  0.23684369062E+04  0.45398080214E+03 0.  0.
      99925    2    3    3    0    0  0.42980920387E+02 -0.65541422252E+02  0.18826543974E+04  0.19025656186E+04  0.26310704145E+03 0.  0.
         25    1    3    3    0    0 -0.42980920387E+02  0.65541422252E+02  0.44186594230E+03  0.46587128761E+03  0.12509000000E+03 0.  0.
         25    1    4    4    0    0  0.10172177012E+02 -0.72186230988E+02  0.10349814797E+04  0.10450590876E+04  0.12509000000E+03 0.  0.
         25    1    4    4    0    0  0.32808743375E+02  0.66448087359E+01  0.84767291769E+03  0.85750653095E+03  0.12509000000E+03 0.  0.
<mgrwt>
<rscale>  2 0.45398080E+03</rscale>
<asrwt>0</asrwt>
<pdfrwt beam="1">  1       21 0.34507021E+00 0.45398080E+03</pdfrwt>
<pdfrwt beam="2">  1       21 0.32291609E-02 0.45398080E+03</pdfrwt>
<totfact> 0.86415175E+03</totfact>
</mgrwt>
</event>
<event>
 7    0  0.4685107E-002  0.4546892E+03  0.7546771E-02  0.1026333E+00
         21   -1    0    0  502  501  0.00000000000E+00  0.00000000000E+00  0.49528636777E+03  0.49528636777E+03  0.00000000000E+00 0.  1.
         21   -1    0    0  501  502 -0.00000000000E+00 -0.00000000000E+00 -0.10435493762E+03  0.10435493762E+03  0.00000000000E+00 0.  1.
      99926    2    1    2    0    0  0.00000000000E+00  0.17763568394E-14  0.39093143015E+03  0.59964130539E+03  0.45468924778E+03 0.  0.
      99925    2    3    3    0    0  0.96766157176E+01 -0.82428999564E+01  0.39393579983E+03  0.47387121106E+03  0.26307209657E+03 0.  0.
         25    1    3    3    0    0 -0.96766157176E+01  0.82428999564E+01 -0.30043696726E+01  0.12577009433E+03  0.12509000000E+03 0.  0.
         25    1    4    4    0    0 -0.34923185627E+02  0.45500507910E+01  0.19622347949E+03  0.23535397566E+03  0.12509000000E+03 0.  0.
         25    1    4    4    0    0  0.44599801345E+02 -0.12792950747E+02  0.19771232034E+03  0.23851723540E+03  0.12509000000E+03 0.  0.
<mgrwt>
<rscale>  2 0.45468925E+03</rscale>
<asrwt>0</asrwt>
<pdfrwt beam="1">  1       21 0.72836230E-01 0.45468925E+03</pdfrwt>
<pdfrwt beam="2">  1       21 0.15346315E-01 0.45468925E+03</pdfrwt>
<totfact> 0.58844703E+04</totfact>
</mgrwt>
</event>
<event>
 7    0  0.4685107E-002  0.4505753E+03  0.7546771E-02  0.1027551E+00
         21   -1    0    0  502  501  0.00000000000E+00  0.00000000000E+00  0.88005122362E+02  0.88005122362E+02  0.00000000000E+00 0. -1.
         21   -1    0    0  501  502 -0.00000000000E+00 -0.00000000000E+00 -0.57672242876E+03  0.57672242876E+03  0.00000000000E+00 0. -1.
      99926    2    1    2    0    0 -0.14210854715E-13  0.35527136788E-14 -0.48871730640E+03  0.66472755112E+03  0.45057531185E+03 0.  0.
      99925    2    3    3    0    0 -0.10200009037E+03  0.30409060633E+02 -0.34170175170E+03  0.44429658500E+03  0.26326913781E+03 0.  0.
         25    1    4    4    0    0 -0.32439100711E+02  0.16002196916E+02 -0.10484486002E+03  0.16717750547E+03  0.12509000000E+03 0.  0.
         25    1    3    3    0    0  0.10200009037E+03 -0.30409060633E+02 -0.14701555469E+03  0.22043096612E+03  0.12509000000E+03 0.  0.
         25    1    4    4    0    0 -0.69560989655E+02  0.14406863717E+02 -0.23685689168E+03  0.27711907953E+03  0.12509000000E+03 0.  0.
<mgrwt>
<rscale>  2 0.45057531E+03</rscale>
<asrwt>0</asrwt>
<pdfrwt beam="1">  1       21 0.12941930E-01 0.45057531E+03</pdfrwt>
<pdfrwt beam="2">  1       21 0.84812120E-01 0.45057531E+03</pdfrwt>
<totfact> 0.56816194E+04</totfact>
</mgrwt>
</event>
<event>
 7    0  0.4685107E-002  0.4517542E+03  0.7546771E-02  0.1027200E+00
         21   -1    0    0  502  501  0.00000000000E+00  0.00000000000E+00  0.16923711638E+03  0.16923711638E+03  0.00000000000E+00 0.  1.
         21   -1    0    0  501  502 -0.00000000000E+00 -0.00000000000E+00 -0.30147319298E+03  0.30147319298E+03  0.00000000000E+00 0.  1.
      99926    2    1    2    0    0  0.00000000000E+00  0.00000000000E+00 -0.13223607660E+03  0.47071030936E+03  0.45175415369E+03 0.  0.
      99925    2    3    3    0    0  0.18240917458E+02 -0.10731257738E+03 -0.66231498994E+02  0.29223669030E+03  0.26299610523E+03 0.  0.
         25    1    3    3    0    0 -0.18240917458E+02  0.10731257738E+03 -0.66004577609E+02  0.17847361905E+03  0.12509000000E+03 0.  0.
         25    1    4    4    0    0  0.48329167664E+01 -0.54278754183E+02  0.82876821424E+01  0.13669577175E+03  0.12509000000E+03 0.  0.
         25    1    4    4    0    0  0.13408000692E+02 -0.53033823195E+02 -0.74519181137E+02  0.15554091855E+03  0.12509000000E+03 0.  0.
<mgrwt>
<rscale>  2 0.45175415E+03</rscale>
<asrwt>0</asrwt>
<pdfrwt beam="1">  1       21 0.24887812E-01 0.45175415E+03</pdfrwt>
<pdfrwt beam="2">  1       21 0.44334292E-01 0.45175415E+03</pdfrwt>
<totfact> 0.69146633E+04</totfact>
</mgrwt>
</event>
<event>
 7    0  0.4685107E-002  0.4613666E+03  0.7546771E-02  0.1024386E+00
         21   -1    0    0  502  501  0.00000000000E+00  0.00000000000E+00  0.16938574861E+03  0.16938574861E+03  0.00000000000E+00 0.  1.
         21   -1    0    0  501  502 -0.00000000000E+00 -0.00000000000E+00 -0.31416325334E+03  0.31416325334E+03  0.00000000000E+00 0.  1.
      99926    2    1    2    0    0 -0.71054273576E-14  0.00000000000E+00 -0.14477750473E+03  0.48354900194E+03  0.46136656945E+03 0.  0.
      99925    2    3    3    0    0  0.36149116053E+02 -0.10507095020E+03 -0.13543712591E+03  0.31597390253E+03  0.26296317012E+03 0.  0.
         25    1    4    4    0    0  0.20500270495E+02 -0.95605331014E+02 -0.82396083055E+02  0.17887778792E+03  0.12509000000E+03 0.  0.
         25    1    3    3    0    0 -0.36149116053E+02  0.10507095020E+03 -0.93403788187E+01  0.16757509941E+03  0.12509000000E+03 0.  0.
         25    1    4    4    0    0  0.15648845559E+02 -0.94656191820E+01 -0.53041042856E+02  0.13709611461E+03  0.12509000000E+03 0.  0.
<mgrwt>
<rscale>  2 0.46136657E+03</rscale>
<asrwt>0</asrwt>
<pdfrwt beam="1">  1       21 0.24909669E-01 0.46136657E+03</pdfrwt>
<pdfrwt beam="2">  1       21 0.46200478E-01 0.46136657E+03</pdfrwt>
<totfact> 0.63188606E+04</totfact>
</mgrwt>
</event>
<event>
 7    0  0.4685107E-002  0.4500976E+03  0.7546771E-02  0.1027693E+00
         21   -1    0    0  502  501  0.00000000000E+00  0.00000000000E+00  0.21495427597E+03  0.21495427597E+03  0.00000000000E+00 0. -1.
         21   -1    0    0  501  502 -0.00000000000E+00 -0.00000000000E+00 -0.23561736710E+03  0.23561736710E+03  0.00000000000E+00 0. -1.
      99926    2    1    2    0    0  0.00000000000E+00  0.35527136788E-14 -0.20663091135E+02  0.45057164307E+03  0.45009759186E+03 0.  0.
      99925    2    3    3    0    0 -0.61049185632E+02  0.17957139905E+02 -0.10102503549E+03  0.28884653017E+03  0.26301482516E+03 0.  0.
         25    1    4    4    0    0 -0.18284662181E+02  0.44549616790E+02 -0.66612026271E+02  0.14967854680E+03  0.12509000000E+03 0.  0.
         25    1    3    3    0    0  0.61049185632E+02 -0.17957139905E+02  0.80361944357E+02  0.16172511289E+03  0.12509000000E+03 0.  0.
         25    1    4    4    0    0 -0.42764523452E+02 -0.26592476885E+02 -0.34413009221E+02  0.13916798337E+03  0.12509000000E+03 0.  0.
<mgrwt>
<rscale>  2 0.45009759E+03</rscale>
<asrwt>0</asrwt>
<pdfrwt beam="1">  1       21 0.31610923E-01 0.45009759E+03</pdfrwt>
<pdfrwt beam="2">  1       21 0.34649613E-01 0.45009759E+03</pdfrwt>
<totfact> 0.71632683E+04</totfact>
</mgrwt>
</event>
<event>
 7    0  0.4685107E-002  0.4631345E+03  0.7546771E-02  0.1023876E+00
         21   -1    0    0  502  501  0.00000000000E+00  0.00000000000E+00  0.10417831693E+04  0.10417831693E+04  0.00000000000E+00 0.  1.
         21   -1    0    0  501  502 -0.00000000000E+00 -0.00000000000E+00 -0.51472702731E+02  0.51472702731E+02  0.00000000000E+00 0.  1.
      99926    2    1    2    0    0  0.00000000000E+00  0.14210854715E-13  0.99031046658E+03  0.10932558720E+04  0.46313451776E+03 0.  0.
      99925    2    3    3    0    0 -0.62407707040E+02 -0.95514817134E+02  0.71139384100E+03  0.76697410069E+03  0.26296439289E+03 0.  0.
         25    1    4    4    0    0 -0.21388121327E+02 -0.87633393759E+02  0.35974684652E+03  0.39141073710E+03  0.12509000000E+03 0.  0.
         25    1    3    3    0    0  0.62407707040E+02  0.95514817134E+02  0.27891662558E+03  0.32628177135E+03  0.12509000000E+03 0.  0.
         25    1    4    4    0    0 -0.41019585713E+02 -0.78814233754E+01  0.35164699448E+03  0.37556336360E+03  0.12509000000E+03 0.  0.
<mgrwt>
<rscale>  2 0.46313452E+03</rscale>
<asrwt>0</asrwt>
<pdfrwt beam="1">  1       21 0.15320339E+00 0.46313452E+03</pdfrwt>
<pdfrwt beam="2">  1       21 0.75695158E-02 0.46313452E+03</pdfrwt>
<totfact> 0.33548780E+04</totfact>
</mgrwt>
</event>
<event>
 7    0  0.4685107E-002  0.4519469E+03  0.7546771E-02  0.1027143E+00
         21   -1    0    0  502  501  0.00000000000E+00  0.00000000000E+00  0.95790314687E+03  0.95790314687E+03  0.00000000000E+00 0.  1.
         21   -1    0    0  501  502 -0.00000000000E+00 -0.00000000000E+00 -0.53308100819E+02  0.53308100819E+02  0.00000000000E+00 0.  1.
      99926    2    1    2    0    0  0.00000000000E+00  0.00000000000E+00  0.90459504605E+03  0.10112112477E+04  0.45194688860E+03 0.  0.
      99925    2    3    3    0    0  0.27353868104E+02  0.16442527113E+02  0.80701696673E+03  0.84938547576E+03  0.26298424103E+03 0.  0.
         25    1    3    3    0    0 -0.27353868104E+02 -0.16442527113E+02  0.97578079315E+02  0.16182577193E+03  0.12509000000E+03 0.  0.
         25    1    4    4    0    0  0.59868837227E+01  0.15887442283E+02  0.52774238822E+03  0.54263043595E+03  0.12509000000E+03 0.  0.
         25    1    4    4    0    0  0.21366984381E+02  0.55508483003E+00  0.27927457852E+03  0.30675503981E+03  0.12509000000E+03 0.  0.
<mgrwt>
<rscale>  2 0.45194689E+03</rscale>
<asrwt>0</asrwt>
<pdfrwt beam="1">  1       21 0.14086810E+00 0.45194689E+03</pdfrwt>
<pdfrwt beam="2">  1       21 0.78394272E-02 0.45194689E+03</pdfrwt>
<totfact> 0.39670899E+04</totfact>
</mgrwt>
</event>
<event>
 7    0  0.4685107E-002  0.4545261E+03  0.7546771E-02  0.1026381E+00
         21   -1    0    0  502  501  0.00000000000E+00  0.00000000000E+00  0.44162634973E+03  0.44162634973E+03  0.00000000000E+00 0.  1.
         21   -1    0    0  501  502 -0.00000000000E+00 -0.00000000000E+00 -0.11695068729E+03  0.11695068729E+03  0.00000000000E+00 0.  1.
      99926    2    1    2    0    0  0.00000000000E+00 -0.71054273576E-14  0.32467566244E+03  0.55857703702E+03  0.45452614942E+03 0.  0.
      99925    2    3    3    0    0 -0.66917295865E+02  0.51862989976E+02  0.29581569756E+03  0.40479764995E+03  0.26303329878E+03 0.  0.
         25    1    3    3    0    0  0.66917295865E+02 -0.51862989976E+02  0.28859964875E+02  0.15377938707E+03  0.12509000000E+03 0.  0.
         25    1    4    4    0    0 -0.31107920247E+02 -0.14822879938E+02  0.14949102083E+03  0.19794568417E+03  0.12509000000E+03 0.  0.
         25    1    4    4    0    0 -0.35809375618E+02  0.66685869914E+02  0.14632467673E+03  0.20685196578E+03  0.12509000000E+03 0.  0.
<mgrwt>
<rscale>  2 0.45452615E+03</rscale>
<asrwt>0</asrwt>
<pdfrwt beam="1">  1       21 0.64945051E-01 0.45452615E+03</pdfrwt>
<pdfrwt beam="2">  1       21 0.17198631E-01 0.45452615E+03</pdfrwt>
<totfact> 0.61533586E+04</totfact>
</mgrwt>
</event>
<event>
 7    0  0.4685107E-002  0.4715661E+03  0.7546771E-02  0.1021479E+00
         21   -1    0    0  502  501  0.00000000000E+00  0.00000000000E+00  0.73242130987E+02  0.73242130987E+02  0.00000000000E+00 0. -1.
         21   -1    0    0  501  502 -0.00000000000E+00 -0.00000000000E+00 -0.75903917229E+03  0.75903917229E+03  0.00000000000E+00 0. -1.
      99926    2    1    2    0    0  0.00000000000E+00 -0.15543122345E-14 -0.68579704130E+03  0.83228130327E+03  0.47156609921E+03 0.  0.
      99925    2    3    3    0    0 -0.10091135808E+03 -0.17977353531E+01 -0.56471567943E+03  0.63104875538E+03  0.26293040719E+03 0.  0.
         25    1    3    3    0    0  0.10091135808E+03  0.17977353531E+01 -0.12108136187E+03  0.20123254790E+03  0.12509000000E+03 0.  0.
         25    1    4    4    0    0 -0.15075513003E+02 -0.22487342873E+02 -0.23781058556E+03  0.27006357471E+03  0.12509000000E+03 0.  0.
         25    1    4    4    0    0 -0.85835845076E+02  0.20689607520E+02 -0.32690509387E+03  0.36098518066E+03  0.12509000000E+03 0.  0.
<mgrwt>
<rscale>  2 0.47156610E+03</rscale>
<asrwt>0</asrwt>
<pdfrwt beam="1">  1       21 0.10770902E-01 0.47156610E+03</pdfrwt>
<pdfrwt beam="2">  1       21 0.11162340E+00 0.47156610E+03</pdfrwt>
<totfact> 0.40690308E+04</totfact>
</mgrwt>
</event>
<event>
 7    0  0.4685107E-002  0.4514116E+03  0.7546771E-02  0.1027302E+00
         21   -1    0    0  502  501  0.00000000000E+00  0.00000000000E+00  0.10957897930E+04  0.10957897930E+04  0.00000000000E+00 0.  1.
         21   -1    0    0  501  502 -0.00000000000E+00 -0.00000000000E+00 -0.46489855591E+02  0.46489855591E+02  0.00000000000E+00 0.  1.
      99926    2    1    2    0    0 -0.17763568394E-14  0.00000000000E+00  0.10492999374E+04  0.11422796486E+04  0.45141160479E+03 0.  0.
      99925    2    3    3    0    0 -0.99453198718E+01 -0.10603255616E+03  0.59488346928E+03  0.65907819271E+03  0.26297511239E+03 0.  0.
         25    1    3    3    0    0  0.99453198718E+01  0.10603255616E+03  0.45441646811E+03  0.48320145586E+03  0.12509000000E+03 0.  0.
         25    1    4    4    0    0  0.21487529906E+02 -0.23932069901E+02  0.23712647590E+03  0.27002024291E+03  0.12509000000E+03 0.  0.
         25    1    4    4    0    0 -0.31432849778E+02 -0.82100486261E+02  0.35775699338E+03  0.38905794980E+03  0.12509000000E+03 0.  0.
<mgrwt>
<rscale>  2 0.45141160E+03</rscale>
<asrwt>0</asrwt>
<pdfrwt beam="1">  1       21 0.16114554E+00 0.45141160E+03</pdfrwt>
<pdfrwt beam="2">  1       21 0.68367442E-02 0.45141160E+03</pdfrwt>
<totfact> 0.35010180E+04</totfact>
</mgrwt>
</event>
<event>
 7    0  0.4685107E-002  0.4501289E+03  0.7546771E-02  0.1027684E+00
         21   -1    0    0  502  501  0.00000000000E+00  0.00000000000E+00  0.14884136266E+03  0.14884136266E+03  0.00000000000E+00 0. -1.
         21   -1    0    0  501  502 -0.00000000000E+00 -0.00000000000E+00 -0.34032207413E+03  0.34032207413E+03  0.00000000000E+00 0. -1.
      99926    2    1    2    0    0  0.00000000000E+00  0.88817841970E-15 -0.19148071147E+03  0.48916343680E+03  0.45012887603E+03 0.  0.
      99925    2    3    3    0    0 -0.94730721846E+02  0.34283605121E+01 -0.17826247902E+03  0.33165822074E+03  0.26312354634E+03 0.  0.
         25    1    4    4    0    0 -0.40712682294E+02 -0.38085591634E+02 -0.79862796709E+02  0.15853582935E+03  0.12509000000E+03 0.  0.
         25    1    4    4    0    0 -0.54018039552E+02  0.41513952146E+02 -0.98399682312E+02  0.17312239139E+03  0.12509000000E+03 0.  0.
         25    1    3    3    0    0  0.94730721846E+02 -0.34283605121E+01 -0.13218232453E+02  0.15750521606E+03  0.12509000000E+03 0.  0.
<mgrwt>
<rscale>  2 0.45012888E+03</rscale>
<asrwt>0</asrwt>
<pdfrwt beam="1">  1       21 0.21888436E-01 0.45012888E+03</pdfrwt>
<pdfrwt beam="2">  1       21 0.50047363E-01 0.45012888E+03</pdfrwt>
<totfact> 0.68655640E+04</totfact>
</mgrwt>
</event>
<event>
 7    0  0.4685107E-002  0.4516649E+03  0.7546771E-02  0.1027227E+00
         21   -1    0    0  502  501  0.00000000000E+00  0.00000000000E+00  0.50316668923E+02  0.50316668923E+02  0.00000000000E+00 0. -1.
         21   -1    0    0  501  502 -0.00000000000E+00 -0.00000000000E+00 -0.10135865884E+04  0.10135865884E+04  0.00000000000E+00 0. -1.
      99926    2    1    2    0    0  0.00000000000E+00  0.00000000000E+00 -0.96326991948E+03  0.10639032573E+04  0.45166492356E+03 0.  0.
      99925    2    3    3    0    0 -0.56250984411E+01  0.10863594794E+03 -0.64679799314E+03  0.70664228944E+03  0.26298720572E+03 0.  0.
         25    1    4    4    0    0  0.18586883271E+02  0.91349263521E+02 -0.35119393013E+03  0.38428484857E+03  0.12509000000E+03 0.  0.
         25    1    3    3    0    0  0.56250984411E+01 -0.10863594794E+03 -0.31647192634E+03  0.35726096789E+03  0.12509000000E+03 0.  0.
         25    1    4    4    0    0 -0.24211981712E+02  0.17286684419E+02 -0.29560406301E+03  0.32235744087E+03  0.12509000000E+03 0.  0.
<mgrwt>
<rscale>  2 0.45166492E+03</rscale>
<asrwt>0</asrwt>
<pdfrwt beam="1">  1       21 0.73995095E-02 0.45166492E+03</pdfrwt>
<pdfrwt beam="2">  1       21 0.14905686E+00 0.45166492E+03</pdfrwt>
<totfact> 0.37744183E+04</totfact>
</mgrwt>
</event>
<event>
 7    0  0.4685107E-002  0.4555523E+03  0.7546771E-02  0.1026079E+00
         21   -1    0    0  502  501  0.00000000000E+00  0.00000000000E+00  0.48209446117E+02  0.48209446117E+02  0.00000000000E+00 0. -1.
         21   -1    0    0  501  502 -0.00000000000E+00 -0.00000000000E+00 -0.10761786919E+04  0.10761786919E+04  0.00000000000E+00 0. -1.
      99926    2    1    2    0    0  0.00000000000E+00  0.00000000000E+00 -0.10279692457E+04  0.11243881380E+04  0.45555231822E+03 0.  0.
      99925    2    3    3    0    0 -0.80082239295E+02 -0.76613218883E+02 -0.58421089749E+03  0.65020280490E+03  0.26301818264E+03 0.  0.
         25    1    4    4    0    0 -0.59568734988E+02 -0.44962428759E+02 -0.38829959191E+03  0.41472175656E+03  0.12509000000E+03 0.  0.
         25    1    4    4    0    0 -0.20513504307E+02 -0.31650790124E+02 -0.19591130558E+03  0.23548104834E+03  0.12509000000E+03 0.  0.
         25    1    3    3    0    0  0.80082239295E+02  0.76613218883E+02 -0.44375834826E+03  0.47418533308E+03  0.12509000000E+03 0.  0.
<mgrwt>
<rscale>  2 0.45555232E+03</rscale>
<asrwt>0</asrwt>
<pdfrwt beam="1">  1       21 0.70896254E-02 0.45555232E+03</pdfrwt>
<pdfrwt beam="2">  1       21 0.15826155E+00 0.45555232E+03</pdfrwt>
<totfact> 0.34500299E+04</totfact>
</mgrwt>
</event>
<event>
 7    0  0.4685107E-002  0.4592244E+03  0.7546771E-02  0.1025006E+00
         21   -1    0    0  502  501  0.00000000000E+00  0.00000000000E+00  0.75158467213E+02  0.75158467213E+02  0.00000000000E+00 0.  1.
         21   -1    0    0  501  502 -0.00000000000E+00 -0.00000000000E+00 -0.70147483785E+03  0.70147483785E+03  0.00000000000E+00 0.  1.
      99926    2    1    2    0    0 -0.71054273576E-14 -0.17763568394E-14 -0.62631637063E+03  0.77663330506E+03  0.45922444883E+03 0.  0.
      99925    2    3    3    0    0  0.32572431655E+02  0.14374314153E+02 -0.58129295856E+03  0.63900264007E+03  0.26297392671E+03 0.  0.
         25    1    4    4    0    0  0.54220259920E+02 -0.42186684668E+01 -0.32214950537E+03  0.34983631266E+03  0.12509000000E+03 0.  0.
         25    1    4    4    0    0 -0.21647828265E+02  0.18592982620E+02 -0.25914345319E+03  0.28916632740E+03  0.12509000000E+03 0.  0.
         25    1    3    3    0    0 -0.32572431655E+02 -0.14374314153E+02 -0.45023412072E+02  0.13763066499E+03  0.12509000000E+03 0.  0.
<mgrwt>
<rscale>  2 0.45922445E+03</rscale>
<asrwt>0</asrwt>
<pdfrwt beam="1">  1       21 0.11052715E-01 0.45922445E+03</pdfrwt>
<pdfrwt beam="2">  1       21 0.10315807E+00 0.45922445E+03</pdfrwt>
<totfact> 0.47326861E+04</totfact>
</mgrwt>
</event>
<event>
 7    0  0.4685107E-002  0.4570884E+03  0.7546771E-02  0.1025629E+00
         21   -1    0    0  502  501  0.00000000000E+00  0.00000000000E+00  0.20258227750E+03  0.20258227750E+03  0.00000000000E+00 0.  1.
         21   -1    0    0  501  502 -0.00000000000E+00 -0.00000000000E+00 -0.25783328921E+03  0.25783328921E+03  0.00000000000E+00 0.  1.
      99926    2    1    2    0    0  0.71054273576E-14 -0.14210854715E-13 -0.55251011706E+02  0.46041556671E+03  0.45708841570E+03 0.  0.
      99925    2    3    3    0    0  0.58785356431E+02 -0.92315199173E+02  0.18608238963E+01  0.28466835053E+03  0.26278278672E+03 0.  0.
         25    1    4    4    0    0  0.56388758955E+02 -0.76168548851E+02 -0.13837975098E+02  0.15754471627E+03  0.12509000000E+03 0.  0.
         25    1    3    3    0    0 -0.58785356431E+02  0.92315199173E+02 -0.57111835603E+02  0.17574721618E+03  0.12509000000E+03 0.  0.
         25    1    4    4    0    0  0.23965974754E+01 -0.16146650322E+02  0.15698798995E+02  0.12712363425E+03  0.12509000000E+03 0.  0.
<mgrwt>
<rscale>  2 0.45708842E+03</rscale>
<asrwt>0</asrwt>
<pdfrwt beam="1">  1       21 0.29791511E-01 0.45708842E+03</pdfrwt>
<pdfrwt beam="2">  1       21 0.37916660E-01 0.45708842E+03</pdfrwt>
<totfact> 0.67026936E+04</totfact>
</mgrwt>
</event>
<event>
 7    0  0.4685107E-002  0.4585916E+03  0.7546771E-02  0.1025190E+00
         21   -1    0    0  502  501  0.00000000000E+00  0.00000000000E+00  0.46965169155E+02  0.46965169155E+02  0.00000000000E+00 0.  1.
         21   -1    0    0  501  502 -0.00000000000E+00 -0.00000000000E+00 -0.11194798336E+04  0.11194798336E+04  0.00000000000E+00 0.  1.
      99926    2    1    2    0    0  0.00000000000E+00  0.00000000000E+00 -0.10725146645E+04  0.11664450028E+04  0.45859158192E+03 0.  0.
      99925    2    3    3    0    0 -0.10413850771E+03 -0.43337780009E+02 -0.74679157118E+03  0.79974889759E+03  0.26301645660E+03 0.  0.
         25    1    4    4    0    0 -0.61100625626E+02 -0.15903402635E+02 -0.27010169147E+03  0.30428380914E+03  0.12509000000E+03 0.  0.
         25    1    4    4    0    0 -0.43037882080E+02 -0.27434377374E+02 -0.47668987971E+03  0.49546508845E+03  0.12509000000E+03 0.  0.
         25    1    3    3    0    0  0.10413850771E+03  0.43337780009E+02 -0.32572309331E+03  0.36669610521E+03  0.12509000000E+03 0.  0.
<mgrwt>
<rscale>  2 0.45859158E+03</rscale>
<asrwt>0</asrwt>
<pdfrwt beam="1">  1       21 0.69066427E-02 0.45859158E+03</pdfrwt>
<pdfrwt beam="2">  1       21 0.16462938E+00 0.45859158E+03</pdfrwt>
<totfact> 0.32323852E+04</totfact>
</mgrwt>
</event>
<event>
 7    0  0.4685107E-002  0.4616351E+03  0.7546771E-02  0.1024308E+00
         21   -1    0    0  502  501  0.00000000000E+00  0.00000000000E+00  0.47440512691E+03  0.47440512691E+03  0.00000000000E+00 0. -1.
         21   -1    0    0  501  502 -0.00000000000E+00 -0.00000000000E+00 -0.11230219758E+03  0.11230219758E+03  0.00000000000E+00 0. -1.
      99926    2    1    2    0    0  0.17763568394E-14 -0.71054273576E-14  0.36210292933E+03  0.58670732449E+03  0.46163508659E+03 0.  0.
      99925    2    3    3    0    0  0.11661214016E+02  0.57738688639E+02  0.94632996971E+02  0.28561362994E+03  0.26296387853E+03 0.  0.
         25    1    4    4    0    0  0.18110001820E+02  0.55183719632E+02  0.18859914090E+02  0.13919920811E+03  0.12509000000E+03 0.  0.
         25    1    4    4    0    0 -0.64487878038E+01  0.25549690066E+01  0.75773082881E+02  0.14641442183E+03  0.12509000000E+03 0.  0.
         25    1    3    3    0    0 -0.11661214016E+02 -0.57738688639E+02  0.26746993236E+03  0.30109369455E+03  0.12509000000E+03 0.  0.
<mgrwt>
<rscale>  2 0.46163509E+03</rscale>
<asrwt>0</asrwt>
<pdfrwt beam="1">  1       21 0.69765459E-01 0.46163509E+03</pdfrwt>
<pdfrwt beam="2">  1       21 0.16515029E-01 0.46163509E+03</pdfrwt>
<totfact> 0.56482871E+04</totfact>
</mgrwt>
</event>
<event>
 7    0  0.4685107E-002  0.4588413E+03  0.7546771E-02  0.1025118E+00
         21   -1    0    0  502  501  0.00000000000E+00  0.00000000000E+00  0.23637408016E+03  0.23637408016E+03  0.00000000000E+00 0.  1.
         21   -1    0    0  501  502 -0.00000000000E+00 -0.00000000000E+00 -0.22267179299E+03  0.22267179299E+03  0.00000000000E+00 0.  1.
      99926    2    1    2    0    0 -0.35527136788E-14  0.00000000000E+00  0.13702287179E+02  0.45904587315E+03  0.45884132441E+03 0.  0.
      99925    2    3    3    0    0  0.12041830600E+02  0.11384243188E+03  0.32392209569E+02  0.28845300613E+03  0.26277514441E+03 0.  0.
         25    1    4    4    0    0 -0.51208297682E+01  0.43162813304E+02  0.52322727976E+02  0.14238829767E+03  0.12509000000E+03 0.  0.
         25    1    3    3    0    0 -0.12041830600E+02 -0.11384243188E+03 -0.18689922390E+02  0.17059286702E+03  0.12509000000E+03 0.  0.
         25    1    4    4    0    0  0.17162660368E+02  0.70679618576E+02 -0.19930518407E+02  0.14606470846E+03  0.12509000000E+03 0.  0.
<mgrwt>
<rscale>  2 0.45884132E+03</rscale>
<asrwt>0</asrwt>
<pdfrwt beam="1">  1       21 0.34760894E-01 0.45884132E+03</pdfrwt>
<pdfrwt beam="2">  1       21 0.32745852E-01 0.45884132E+03</pdfrwt>
<totfact> 0.66198084E+04</totfact>
</mgrwt>
</event>
<event>
 7    0  0.4685107E-002  0.4604204E+03  0.7546771E-02  0.1024659E+00
         21   -1    0    0  502  501  0.00000000000E+00  0.00000000000E+00  0.11205332352E+04  0.11205332352E+04  0.00000000000E+00 0. -1.
         21   -1    0    0  501  502 -0.00000000000E+00 -0.00000000000E+00 -0.47296002572E+02  0.47296002572E+02  0.00000000000E+00 0. -1.
      99926    2    1    2    0    0 -0.35527136788E-14  0.00000000000E+00  0.10732372326E+04  0.11678292377E+04  0.46042042862E+03 0.  0.
      99925    2    3    3    0    0 -0.27962398312E+02  0.10559482064E+03  0.78661416523E+03  0.83657034698E+03  0.26297516733E+03 0.  0.
         25    1    4    4    0    0  0.21615793760E+02  0.45641070783E+02  0.32050758390E+03  0.34773980118E+03  0.12509000000E+03 0.  0.
         25    1    3    3    0    0  0.27962398312E+02 -0.10559482064E+03  0.28662306736E+03  0.33125889076E+03  0.12509000000E+03 0.  0.
         25    1    4    4    0    0 -0.49578192072E+02  0.59953749856E+02  0.46610658133E+03  0.48883054580E+03  0.12509000000E+03 0.  0.
<mgrwt>
<rscale>  2 0.46042043E+03</rscale>
<asrwt>0</asrwt>
<pdfrwt beam="1">  1       21 0.16478428E+00 0.46042043E+03</pdfrwt>
<pdfrwt beam="2">  1       21 0.69552953E-02 0.46042043E+03</pdfrwt>
<totfact> 0.31826935E+04</totfact>
</mgrwt>
</event>
<event>
 7    0  0.4685107E-002  0.4589813E+03  0.7546771E-02  0.1025077E+00
         21   -1    0    0  502  501  0.00000000000E+00  0.00000000000E+00  0.60348430496E+02  0.60348430496E+02  0.00000000000E+00 0. -1.
         21   -1    0    0  501  502 -0.00000000000E+00 -0.00000000000E+00 -0.87269809993E+03  0.87269809993E+03  0.00000000000E+00 0. -1.
      99926    2    1    2    0    0  0.00000000000E+00  0.00000000000E+00 -0.81234966943E+03  0.93304653042E+03  0.45898130954E+03 0.  0.
      99925    2    3    3    0    0  0.10845526618E+03  0.53004917459E+01 -0.59691145394E+03  0.66128970388E+03  0.26307821774E+03 0.  0.
         25    1    4    4    0    0  0.42550461687E+02  0.35238822793E+01 -0.38026668980E+03  0.40258318769E+03  0.12509000000E+03 0.  0.
         25    1    4    4    0    0  0.65904804491E+02  0.17766094666E+01 -0.21664476413E+03  0.25870651620E+03  0.12509000000E+03 0.  0.
         25    1    3    3    0    0 -0.10845526618E+03 -0.53004917459E+01 -0.21543821550E+03  0.27175682654E+03  0.12509000000E+03 0.  0.
<mgrwt>
<rscale>  2 0.45898131E+03</rscale>
<asrwt>0</asrwt>
<pdfrwt beam="1">  1       21 0.88747693E-02 0.45898131E+03</pdfrwt>
<pdfrwt beam="2">  1       21 0.12833795E+00 0.45898131E+03</pdfrwt>
<totfact> 0.40557323E+04</totfact>
</mgrwt>
</event>
<event>
 7    0  0.4685107E-002  0.4628067E+03  0.7546771E-02  0.1023970E+00
         21   -1    0    0  502  501  0.00000000000E+00  0.00000000000E+00  0.43899903668E+02  0.43899903668E+02  0.00000000000E+00 0. -1.
         21   -1    0    0  501  502 -0.00000000000E+00 -0.00000000000E+00 -0.12197637637E+04  0.12197637637E+04  0.00000000000E+00 0. -1.
      99926    2    1    2    0    0  0.17763568394E-14  0.71054273576E-14 -0.11758638600E+04  0.12636636673E+04  0.46280670575E+03 0.  0.
      99925    2    3    3    0    0  0.13890183156E+02  0.32525671495E+02 -0.10489763148E+04  0.10820079112E+04  0.26294287308E+03 0.  0.
         25    1    4    4    0    0 -0.47778961668E+01  0.55178664129E+02 -0.54755339162E+03  0.56438438855E+03  0.12509000000E+03 0.  0.
         25    1    4    4    0    0  0.18668079323E+02 -0.22652992634E+02 -0.50142292313E+03  0.51762352265E+03  0.12509000000E+03 0.  0.
         25    1    3    3    0    0 -0.13890183156E+02 -0.32525671495E+02 -0.12688754523E+03  0.18165575611E+03  0.12509000000E+03 0.  0.
<mgrwt>
<rscale>  2 0.46280671E+03</rscale>
<asrwt>0</asrwt>
<pdfrwt beam="1">  1       21 0.64558689E-02 0.46280671E+03</pdfrwt>
<pdfrwt beam="2">  1       21 0.17937700E+00 0.46280671E+03</pdfrwt>
<totfact> 0.28421829E+04</totfact>
</mgrwt>
</event>
<event>
 7    0  0.4685107E-002  0.4754518E+03  0.7546771E-02  0.1020393E+00
         21   -1    0    0  502  501  0.00000000000E+00  0.00000000000E+00  0.16328803910E+03  0.16328803910E+03  0.00000000000E+00 0. -1.
         21   -1    0    0  501  502 -0.00000000000E+00 -0.00000000000E+00 -0.34609767278E+03  0.34609767278E+03  0.00000000000E+00 0. -1.
      99926    2    1    2    0    0 -0.14210854715E-13 -0.17763568394E-14 -0.18280963368E+03  0.50938571188E+03  0.47545182859E+03 0.  0.
      99925    2    3    3    0    0  0.94636108264E+02 -0.62931199414E+01 -0.21043396145E+03  0.34999246256E+03  0.26309062198E+03 0.  0.
         25    1    4    4    0    0  0.30223514542E+02 -0.39878265480E+02 -0.10938164540E+03  0.17353843764E+03  0.12509000000E+03 0.  0.
         25    1    4    4    0    0  0.64412593721E+02  0.33585145538E+02 -0.10105231605E+03  0.17645402492E+03  0.12509000000E+03 0.  0.
         25    1    3    3    0    0 -0.94636108264E+02  0.62931199414E+01  0.27624327766E+02  0.15939324933E+03  0.12509000000E+03 0.  0.
<mgrwt>
<rscale>  2 0.47545183E+03</rscale>
<asrwt>0</asrwt>
<pdfrwt beam="1">  1       21 0.24012947E-01 0.47545183E+03</pdfrwt>
<pdfrwt beam="2">  1       21 0.50896716E-01 0.47545183E+03</pdfrwt>
<totfact> 0.55110704E+04</totfact>
</mgrwt>
</event>
<event>
 7    0  0.4685107E-002  0.4557827E+03  0.7546771E-02  0.1026012E+00
         21   -1    0    0  502  501  0.00000000000E+00  0.00000000000E+00  0.21842439120E+03  0.21842439120E+03  0.00000000000E+00 0. -1.
         21   -1    0    0  501  502 -0.00000000000E+00 -0.00000000000E+00 -0.23776857608E+03  0.23776857608E+03  0.00000000000E+00 0. -1.
      99926    2    1    2    0    0  0.00000000000E+00  0.00000000000E+00 -0.19344184877E+02  0.45619296728E+03  0.45578265205E+03 0.  0.
      99925    2    3    3    0    0 -0.59470961786E+02  0.89989186341E+02 -0.48746409334E+02  0.28842274389E+03  0.26301448214E+03 0.  0.
         25    1    4    4    0    0 -0.36754446559E+02  0.84026905587E+02 -0.43259351903E+02  0.16102884782E+03  0.12509000000E+03 0.  0.
         25    1    4    4    0    0 -0.22716515227E+02  0.59622807535E+01 -0.54870574308E+01  0.12739389607E+03  0.12509000000E+03 0.  0.
         25    1    3    3    0    0  0.59470961786E+02 -0.89989186341E+02  0.29402224456E+02  0.16777022339E+03  0.12509000000E+03 0.  0.
<mgrwt>
<rscale>  2 0.45578265E+03</rscale>
<asrwt>0</asrwt>
<pdfrwt beam="1">  1       21 0.32121234E-01 0.45578265E+03</pdfrwt>
<pdfrwt beam="2">  1       21 0.34965967E-01 0.45578265E+03</pdfrwt>
<totfact> 0.68032669E+04</totfact>
</mgrwt>
</event>
<event>
 7    0  0.4685107E-002  0.4530577E+03  0.7546771E-02  0.1026814E+00
         21   -1    0    0  502  501  0.00000000000E+00  0.00000000000E+00  0.13081692585E+04  0.13081692585E+04  0.00000000000E+00 0.  1.
         21   -1    0    0  501  502 -0.00000000000E+00 -0.00000000000E+00 -0.39226818488E+02  0.39226818488E+02  0.00000000000E+00 0.  1.
      99926    2    1    2    0    0  0.00000000000E+00  0.00000000000E+00  0.12689424400E+04  0.13473960770E+04  0.45305769193E+03 0.  0.
      99925    2    3    3    0    0 -0.10389188859E+03 -0.20047821782E+02  0.90257123194E+03  0.94605979670E+03  0.26305678196E+03 0.  0.
         25    1    4    4    0    0 -0.55003417643E+02 -0.23382059612E+02  0.58572878447E+03  0.60191179896E+03  0.12509000000E+03 0.  0.
         25    1    3    3    0    0  0.10389188859E+03  0.20047821782E+02  0.36637120809E+03  0.40133628031E+03  0.12509000000E+03 0.  0.
         25    1    4    4    0    0 -0.48888470943E+02  0.33342378295E+01  0.31684244747E+03  0.34414799774E+03  0.12509000000E+03 0.  0.
<mgrwt>
<rscale>  2 0.45305769E+03</rscale>
<asrwt>0</asrwt>
<pdfrwt beam="1">  1       21 0.19237780E+00 0.45305769E+03</pdfrwt>
<pdfrwt beam="2">  1       21 0.57686506E-02 0.45305769E+03</pdfrwt>
<totfact> 0.28191366E+04</totfact>
</mgrwt>
</event>
<event>
 7    0  0.4685107E-002  0.4566232E+03  0.7546771E-02  0.1025765E+00
         21   -1    0    0  502  501  0.00000000000E+00  0.00000000000E+00  0.13574066606E+03  0.13574066606E+03  0.00000000000E+00 0. -1.
         21   -1    0    0  501  502 -0.00000000000E+00 -0.00000000000E+00 -0.38401308643E+03  0.38401308643E+03  0.00000000000E+00 0. -1.
      99926    2    1    2    0    0  0.00000000000E+00  0.00000000000E+00 -0.24827242037E+03  0.51975375250E+03  0.45662322381E+03 0.  0.
      99925    2    3    3    0    0 -0.95175259120E+02  0.64002888154E+02 -0.16170263700E+03  0.32923725680E+03  0.26285876210E+03 0.  0.
         25    1    3    3    0    0  0.95175259120E+02 -0.64002888154E+02 -0.86569783372E+02  0.19051649570E+03  0.12509000000E+03 0.  0.
         25    1    4    4    0    0 -0.84864195874E+02  0.21710463449E+02 -0.69037501450E+02  0.16759164857E+03  0.12509000000E+03 0.  0.
         25    1    4    4    0    0 -0.10311063246E+02  0.42292424705E+02 -0.92665135546E+02  0.16164560823E+03  0.12509000000E+03 0.  0.
<mgrwt>
<rscale>  2 0.45662322E+03</rscale>
<asrwt>0</asrwt>
<pdfrwt beam="1">  1       21 0.19961863E-01 0.45662322E+03</pdfrwt>
<pdfrwt beam="2">  1       21 0.56472512E-01 0.45662322E+03</pdfrwt>
<totfact> 0.63087633E+04</totfact>
</mgrwt>
</event>
<event>
 7    0  0.4685107E-002  0.4511176E+03  0.7546771E-02  0.1027389E+00
         21   -1    0    0  502  501  0.00000000000E+00  0.00000000000E+00  0.50095073416E+02  0.50095073416E+02  0.00000000000E+00 0.  1.
         21   -1    0    0  501  502 -0.00000000000E+00 -0.00000000000E+00 -0.10156045194E+04  0.10156045194E+04  0.00000000000E+00 0.  1.
      99926    2    1    2    0    0  0.00000000000E+00  0.35527136788E-14 -0.96550944600E+03  0.10656995928E+04  0.45111764746E+03 0.  0.
      99925    2    3    3    0    0 -0.70814944603E+01 -0.23205195452E+02 -0.86188944784E+03  0.90146427148E+03  0.26305091485E+03 0.  0.
         25    1    3    3    0    0  0.70814944603E+01  0.23205195452E+02 -0.10361999816E+03  0.16423532135E+03  0.12509000000E+03 0.  0.
         25    1    4    4    0    0 -0.61296455796E+01 -0.18929035014E+01 -0.56278397918E+03  0.57655396188E+03  0.12509000000E+03 0.  0.
         25    1    4    4    0    0 -0.95184888064E+00 -0.21312291951E+02 -0.29910546866E+03  0.32491030960E+03  0.12509000000E+03 0.  0.
<mgrwt>
<rscale>  2 0.45111765E+03</rscale>
<asrwt>0</asrwt>
<pdfrwt beam="1">  1       21 0.73669230E-02 0.45111765E+03</pdfrwt>
<pdfrwt beam="2">  1       21 0.14935360E+00 0.45111765E+03</pdfrwt>
<totfact> 0.37840080E+04</totfact>
</mgrwt>
</event>
<event>
 7    0  0.4685107E-002  0.4563799E+03  0.7546771E-02  0.1025836E+00
         21   -1    0    0  502  501  0.00000000000E+00  0.00000000000E+00  0.78096666534E+03  0.78096666534E+03  0.00000000000E+00 0. -1.
         21   -1    0    0  501  502 -0.00000000000E+00 -0.00000000000E+00 -0.66674615747E+02  0.66674615747E+02  0.00000000000E+00 0. -1.
      99926    2    1    2    0    0  0.00000000000E+00  0.00000000000E+00  0.71429204959E+03  0.84764128108E+03  0.45637989580E+03 0.  0.
      99925    2    3    3    0    0 -0.30412116980E+02 -0.10965967747E+03  0.48498525065E+03  0.56272154175E+03  0.26171491833E+03 0.  0.
         25    1    4    4    0    0 -0.35567533598E+02 -0.90607133577E+02  0.25789022825E+03  0.30270378264E+03  0.12509000000E+03 0.  0.
         25    1    4    4    0    0  0.51554166178E+01 -0.19052543896E+02  0.22709502240E+03  0.26001775910E+03  0.12509000000E+03 0.  0.
         25    1    3    3    0    0  0.30412116980E+02  0.10965967747E+03  0.22930679894E+03  0.28491973934E+03  0.12509000000E+03 0.  0.
<mgrwt>
<rscale>  2 0.45637990E+03</rscale>
<asrwt>0</asrwt>
<pdfrwt beam="1">  1       21 0.11484803E+00 0.45637990E+03</pdfrwt>
<pdfrwt beam="2">  1       21 0.98050910E-02 0.45637990E+03</pdfrwt>
<totfact> 0.45055370E+04</totfact>
</mgrwt>
</event>
<event>
 7    0  0.4685107E-002  0.4656799E+03  0.7546771E-02  0.1023147E+00
         21   -1    0    0  502  501  0.00000000000E+00  0.00000000000E+00  0.20806528726E+03  0.20806528726E+03  0.00000000000E+00 0.  1.
         21   -1    0    0  501  502 -0.00000000000E+00 -0.00000000000E+00 -0.26056453974E+03  0.26056453974E+03  0.00000000000E+00 0.  1.
      99926    2    1    2    0    0  0.00000000000E+00  0.00000000000E+00 -0.52499252473E+02  0.46862982700E+03  0.46567987206E+03 0.  0.
      99925    2    3    3    0    0  0.69036425387E+02  0.10024602083E+03 -0.49631121785E+02  0.29407030421E+03  0.26305665330E+03 0.  0.
         25    1    4    4    0    0  0.64270279963E+02  0.75927855841E+02 -0.46739104806E+02  0.16651654632E+03  0.12509000000E+03 0.  0.
         25    1    4    4    0    0  0.47661454246E+01  0.24318164991E+02 -0.28920169799E+01  0.12755375789E+03  0.12509000000E+03 0.  0.
         25    1    3    3    0    0 -0.69036425387E+02 -0.10024602083E+03 -0.28681306879E+01  0.17455952279E+03  0.12509000000E+03 0.  0.
<mgrwt>
<rscale>  2 0.46567987E+03</rscale>
<asrwt>0</asrwt>
<pdfrwt beam="1">  1       21 0.30597836E-01 0.46567987E+03</pdfrwt>
<pdfrwt beam="2">  1       21 0.38318315E-01 0.46567987E+03</pdfrwt>
<totfact> 0.62096265E+04</totfact>
</mgrwt>
</event>
<event>
 7    0  0.4685107E-002  0.4613947E+03  0.7546771E-02  0.1024378E+00
         21   -1    0    0  502  501  0.00000000000E+00  0.00000000000E+00  0.12451608688E+03  0.12451608688E+03  0.00000000000E+00 0. -1.
         21   -1    0    0  501  502 -0.00000000000E+00 -0.00000000000E+00 -0.42742475714E+03  0.42742475714E+03  0.00000000000E+00 0. -1.
      99926    2    1    2    0    0  0.00000000000E+00  0.00000000000E+00 -0.30290867026E+03  0.55194084402E+03  0.46139466054E+03 0.  0.
      99925    2    3    3    0    0  0.66301479919E+02 -0.90313696457E+02 -0.23876737735E+03  0.37217971484E+03  0.26259365880E+03 0.  0.
         25    1    4    4    0    0  0.59340022068E+02 -0.15288792663E+02 -0.12304754369E+03  0.18585798748E+03  0.12509000000E+03 0.  0.
         25    1    3    3    0    0 -0.66301479919E+02  0.90313696457E+02 -0.64141292907E+02  0.17976112918E+03  0.12509000000E+03 0.  0.
         25    1    4    4    0    0  0.69614578514E+01 -0.75024903794E+02 -0.11571983366E+03  0.18632172736E+03  0.12509000000E+03 0.  0.
<mgrwt>
<rscale>  2 0.46139466E+03</rscale>
<asrwt>0</asrwt>
<pdfrwt beam="1">  1       21 0.18311189E-01 0.46139466E+03</pdfrwt>
<pdfrwt beam="2">  1       21 0.62856582E-01 0.46139466E+03</pdfrwt>
<totfact> 0.58711245E+04</totfact>
</mgrwt>
</event>
<event>
 7    0  0.4685107E-002  0.4537957E+03  0.7546771E-02  0.1026596E+00
         21   -1    0    0  502  501  0.00000000000E+00  0.00000000000E+00  0.87774942677E+02  0.87774942677E+02  0.00000000000E+00 0. -1.
         21   -1    0    0  501  502 -0.00000000000E+00 -0.00000000000E+00 -0.58652986953E+03  0.58652986953E+03  0.00000000000E+00 0. -1.
      99926    2    1    2    0    0  0.17763568394E-14 -0.28421709430E-13 -0.49875492686E+03  0.67430481221E+03  0.45379566184E+03 0.  0.
      99925    2    3    3    0    0  0.20564061439E+01 -0.11218733906E+03 -0.31219710434E+03  0.42322403419E+03  0.26279521171E+03 0.  0.
         25    1    3    3    0    0 -0.20564061439E+01  0.11218733906E+03 -0.18655782251E+03  0.25108077802E+03  0.12509000000E+03 0.  0.
         25    1    4    4    0    0 -0.21880488233E+02 -0.26652686521E+02 -0.17153539297E+03  0.21508375254E+03  0.12509000000E+03 0.  0.
         25    1    4    4    0    0  0.23936894377E+02 -0.85534652544E+02 -0.14066171137E+03  0.20814028165E+03  0.12509000000E+03 0.  0.
<mgrwt>
<rscale>  2 0.45379566E+03</rscale>
<asrwt>0</asrwt>
<pdfrwt beam="1">  1       21 0.12908079E-01 0.45379566E+03</pdfrwt>
<pdfrwt beam="2">  1       21 0.86254397E-01 0.45379566E+03</pdfrwt>
<totfact> 0.54839387E+04</totfact>
</mgrwt>
</event>
<event>
 7    0  0.4685107E-002  0.4590083E+03  0.7546771E-02  0.1025069E+00
         21   -1    0    0  502  501  0.00000000000E+00  0.00000000000E+00  0.45792974414E+02  0.45792974414E+02  0.00000000000E+00 0.  1.
         21   -1    0    0  501  502 -0.00000000000E+00 -0.00000000000E+00 -0.11502237362E+04  0.11502237362E+04  0.00000000000E+00 0.  1.
      99926    2    1    2    0    0  0.71054273576E-14  0.88817841970E-15 -0.11044307618E+04  0.11960167106E+04  0.45900834905E+03 0.  0.
      99925    2    3    3    0    0 -0.35083099652E+02 -0.49149792375E+01 -0.98277998059E+03  0.10179678365E+04  0.26295825725E+03 0.  0.
         25    1    4    4    0    0 -0.31578300557E+02  0.23335161176E+02 -0.60356567596E+03  0.61764128109E+03  0.12509000000E+03 0.  0.
         25    1    4    4    0    0 -0.35047990943E+01 -0.28250140414E+02 -0.37921430462E+03  0.40032655543E+03  0.12509000000E+03 0.  0.
         25    1    3    3    0    0  0.35083099652E+02  0.49149792375E+01 -0.12165078123E+03  0.17804887412E+03  0.12509000000E+03 0.  0.
<mgrwt>
<rscale>  2 0.45900835E+03</rscale>
<asrwt>0</asrwt>
<pdfrwt beam="1">  1       21 0.67342614E-02 0.45900835E+03</pdfrwt>
<pdfrwt beam="2">  1       21 0.16915054E+00 0.45900835E+03</pdfrwt>
<totfact> 0.31293786E+04</totfact>
</mgrwt>
</event>
<event>
 7    0  0.4685107E-002  0.4558407E+03  0.7546771E-02  0.1025994E+00
         21   -1    0    0  502  501  0.00000000000E+00  0.00000000000E+00  0.43416767728E+03  0.43416767728E+03  0.00000000000E+00 0. -1.
         21   -1    0    0  501  502 -0.00000000000E+00 -0.00000000000E+00 -0.11964890456E+03  0.11964890456E+03  0.00000000000E+00 0. -1.
      99926    2    1    2    0    0 -0.14210854715E-13  0.00000000000E+00  0.31451877273E+03  0.55381658184E+03  0.45584070455E+03 0.  0.
      99925    2    3    3    0    0  0.80491548494E+02 -0.79720667285E+02  0.21350168108E+03  0.35712841474E+03  0.26291341279E+03 0.  0.
         25    1    4    4    0    0  0.13791999616E+02 -0.19965749532E+02  0.63921999894E+02  0.14255658728E+03  0.12509000000E+03 0.  0.
         25    1    4    4    0    0  0.66699548878E+02 -0.59754917753E+02  0.14957968118E+03  0.21457182746E+03  0.12509000000E+03 0.  0.
         25    1    3    3    0    0 -0.80491548494E+02  0.79720667285E+02  0.10101709165E+03  0.19668816710E+03  0.12509000000E+03 0.  0.
<mgrwt>
<rscale>  2 0.45584070E+03</rscale>
<asrwt>0</asrwt>
<pdfrwt beam="1">  1       21 0.63848187E-01 0.45584070E+03</pdfrwt>
<pdfrwt beam="2">  1       21 0.17595427E-01 0.45584070E+03</pdfrwt>
<totfact> 0.61206911E+04</totfact>
</mgrwt>
</event>
<event>
 7    0  0.4685107E-002  0.4551574E+03  0.7546771E-02  0.1026195E+00
         21   -1    0    0  502  501  0.00000000000E+00  0.00000000000E+00  0.14828630339E+03  0.14828630339E+03  0.00000000000E+00 0.  1.
         21   -1    0    0  501  502 -0.00000000000E+00 -0.00000000000E+00 -0.34927069855E+03  0.34927069855E+03  0.00000000000E+00 0.  1.
      99926    2    1    2    0    0  0.00000000000E+00  0.00000000000E+00 -0.20098439515E+03  0.49755700194E+03  0.45515738276E+03 0.  0.
      99925    2    3    3    0    0  0.26309806312E+02  0.42667205376E+02 -0.15327788465E+02  0.26814780415E+03  0.26297453764E+03 0.  0.
         25    1    4    4    0    0  0.10062861765E+02  0.34393256121E+02 -0.46096320589E+02  0.13804541327E+03  0.12509000000E+03 0.  0.
         25    1    3    3    0    0 -0.26309806312E+02 -0.42667205376E+02 -0.18565660669E+03  0.22940919779E+03  0.12509000000E+03 0.  0.
         25    1    4    4    0    0  0.16246944547E+02  0.82739492547E+01  0.30768532124E+02  0.13010239088E+03  0.12509000000E+03 0.  0.
<mgrwt>
<rscale>  2 0.45515738E+03</rscale>
<asrwt>0</asrwt>
<pdfrwt beam="1">  1       21 0.21806810E-01 0.45515738E+03</pdfrwt>
<pdfrwt beam="2">  1       21 0.51363337E-01 0.45515738E+03</pdfrwt>
<totfact> 0.65360932E+04</totfact>
</mgrwt>
</event>
<event>
 7    0  0.4685107E-002  0.4616571E+03  0.7546771E-02  0.1024302E+00
         21   -1    0    0  502  501  0.00000000000E+00  0.00000000000E+00  0.52921289166E+03  0.52921289166E+03  0.00000000000E+00 0. -1.
         21   -1    0    0  501  502 -0.00000000000E+00 -0.00000000000E+00 -0.10068126205E+03  0.10068126205E+03  0.00000000000E+00 0. -1.
      99926    2    1    2    0    0  0.00000000000E+00  0.00000000000E+00  0.42853162961E+03  0.62989415371E+03  0.46165711010E+03 0.  0.
      99925    2    3    3    0    0  0.10333065260E+03  0.56832801139E+02  0.24367374326E+03  0.37745180921E+03  0.26303190695E+03 0.  0.
         25    1    3    3    0    0 -0.10333065260E+03 -0.56832801139E+02  0.18485788635E+03  0.25244234450E+03  0.12509000000E+03 0.  0.
         25    1    4    4    0    0  0.23136506042E+02  0.52249677675E+02  0.94576233734E+02  0.16690565843E+03  0.12509000000E+03 0.  0.
         25    1    4    4    0    0  0.80194146553E+02  0.45831234647E+01  0.14909750952E+03  0.21054615078E+03  0.12509000000E+03 0.  0.
<mgrwt>
<rscale>  2 0.46165711E+03</rscale>
<asrwt>0</asrwt>
<pdfrwt beam="1">  1       21 0.77825424E-01 0.46165711E+03</pdfrwt>
<pdfrwt beam="2">  1       21 0.14806068E-01 0.46165711E+03</pdfrwt>
<totfact> 0.53981526E+04</totfact>
</mgrwt>
</event>
<event>
 7    0  0.4685107E-002  0.4431190E+03  0.7546771E-02  0.1029794E+00
         21   -1    0    0  502  501  0.00000000000E+00  0.00000000000E+00  0.10236146920E+03  0.10236146920E+03  0.00000000000E+00 0. -1.
         21   -1    0    0  501  502 -0.00000000000E+00 -0.00000000000E+00 -0.47956134514E+03  0.47956134514E+03  0.00000000000E+00 0. -1.
      99926    2    1    2    0    0  0.00000000000E+00  0.00000000000E+00 -0.37719987594E+03  0.58192281434E+03  0.44311896308E+03 0.  0.
      99925    2    3    3    0    0 -0.68449843613E+02 -0.71891109237E+02 -0.21136113346E+03  0.35169746977E+03  0.26299024474E+03 0.  0.
         25    1    4    4    0    0 -0.26881509654E+01 -0.38619584678E+02 -0.13330160695E+03  0.18685696399E+03  0.12509000000E+03 0.  0.
         25    1    4    4    0    0 -0.65761692647E+02 -0.33271524559E+02 -0.78059526515E+02  0.16484050578E+03  0.12509000000E+03 0.  0.
         25    1    3    3    0    0  0.68449843613E+02  0.71891109237E+02 -0.16583874247E+03  0.23022534457E+03  0.12509000000E+03 0.  0.
<mgrwt>
<rscale>  2 0.44311896E+03</rscale>
<asrwt>0</asrwt>
<pdfrwt beam="1">  1       21 0.15053157E-01 0.44311896E+03</pdfrwt>
<pdfrwt beam="2">  1       21 0.70523727E-01 0.44311896E+03</pdfrwt>
<totfact> 0.65767599E+04</totfact>
</mgrwt>
</event>
<event>
 7    0  0.4685107E-002  0.4538847E+03  0.7546771E-02  0.1026570E+00
         21   -1    0    0  502  501  0.00000000000E+00  0.00000000000E+00  0.55518765741E+02  0.55518765741E+02  0.00000000000E+00 0.  1.
         21   -1    0    0  501  502 -0.00000000000E+00 -0.00000000000E+00 -0.92766508809E+03  0.92766508809E+03  0.00000000000E+00 0.  1.
      99926    2    1    2    0    0  0.00000000000E+00  0.00000000000E+00 -0.87214632235E+03  0.98318385383E+03  0.45388465809E+03 0.  0.
      99925    2    3    3    0    0  0.52415508050E+02 -0.30453211363E+02 -0.34381486027E+03  0.43687219782E+03  0.26262877893E+03 0.  0.
         25    1    4    4    0    0  0.27530693298E+02  0.15202810043E+02 -0.21006601482E+03  0.24650416465E+03  0.12509000000E+03 0.  0.
         25    1    3    3    0    0 -0.52415508050E+02  0.30453211363E+02 -0.52833146208E+03  0.54631165600E+03  0.12509000000E+03 0.  0.
         25    1    4    4    0    0  0.24884814752E+02 -0.45656021406E+02 -0.13374884545E+03  0.19036803317E+03  0.12509000000E+03 0.  0.
<mgrwt>
<rscale>  2 0.45388466E+03</rscale>
<asrwt>0</asrwt>
<pdfrwt beam="1">  1       21 0.81645247E-02 0.45388466E+03</pdfrwt>
<pdfrwt beam="2">  1       21 0.13642133E+00 0.45388466E+03</pdfrwt>
<totfact> 0.40174386E+04</totfact>
</mgrwt>
</event>
<event>
 7    0  0.4685107E-002  0.4623527E+03  0.7546771E-02  0.1024101E+00
         21   -1    0    0  502  501  0.00000000000E+00  0.00000000000E+00  0.26507204085E+03  0.26507204085E+03  0.00000000000E+00 0.  1.
         21   -1    0    0  501  502 -0.00000000000E+00 -0.00000000000E+00 -0.20161504375E+03  0.20161504375E+03  0.00000000000E+00 0.  1.
      99926    2    1    2    0    0  0.00000000000E+00 -0.17763568394E-14  0.63456997098E+02  0.46668708460E+03  0.46235272731E+03 0.  0.
      99925    2    3    3    0    0  0.79868975515E+02  0.10771409649E+02 -0.49241616042E+02  0.28002278159E+03  0.26361514551E+03 0.  0.
         25    1    4    4    0    0  0.24318844705E+02  0.20604742464E+02  0.12221063989E+02  0.12966427467E+03  0.12509000000E+03 0.  0.
         25    1    3    3    0    0 -0.79868975515E+02 -0.10771409649E+02  0.11269861314E+03  0.18666430301E+03  0.12509000000E+03 0.  0.
         25    1    4    4    0    0  0.55550130810E+02 -0.98333328148E+01 -0.61462680031E+02  0.15035850692E+03  0.12509000000E+03 0.  0.
<mgrwt>
<rscale>  2 0.46235273E+03</rscale>
<asrwt>0</asrwt>
<pdfrwt beam="1">  1       21 0.38981183E-01 0.46235273E+03</pdfrwt>
<pdfrwt beam="2">  1       21 0.29649271E-01 0.46235273E+03</pdfrwt>
<totfact> 0.63867994E+04</totfact>
</mgrwt>
</event>
<event>
 7    0  0.4685107E-002  0.4585124E+03  0.7546771E-02  0.1025214E+00
         21   -1    0    0  502  501  0.00000000000E+00  0.00000000000E+00  0.32853171544E+02  0.32853171544E+02  0.00000000000E+00 0. -1.
         21   -1    0    0  501  502 -0.00000000000E+00 -0.00000000000E+00 -0.15997967921E+04  0.15997967921E+04  0.00000000000E+00 0. -1.
      99926    2    1    2    0    0  0.00000000000E+00  0.88817841970E-15 -0.15669436205E+04  0.16326499636E+04  0.45851237037E+03 0.  0.
      99925    2    3    3    0    0 -0.23826070985E+02 -0.55750609079E+01 -0.57649389880E+03  0.63403245810E+03  0.26277971688E+03 0.  0.
         25    1    3    3    0    0  0.23826070985E+02  0.55750609079E+01 -0.99044972171E+03  0.99861750550E+03  0.12509000000E+03 0.  0.
         25    1    4    4    0    0 -0.37394280291E+02 -0.25352715648E+02 -0.34611911209E+03  0.37079244901E+03  0.12509000000E+03 0.  0.
         25    1    4    4    0    0  0.13568209306E+02  0.19777654740E+02 -0.23037478671E+03  0.26324000908E+03  0.12509000000E+03 0.  0.
<mgrwt>
<rscale>  2 0.45851237E+03</rscale>
<asrwt>0</asrwt>
<pdfrwt beam="1">  1       21 0.48313487E-02 0.45851237E+03</pdfrwt>
<pdfrwt beam="2">  1       21 0.23526424E+00 0.45851237E+03</pdfrwt>
<totfact> 0.20146851E+04</totfact>
</mgrwt>
</event>
<event>
 7    0  0.4685107E-002  0.4212633E+03  0.7546771E-02  0.1036656E+00
         21   -1    0    0  502  501  0.00000000000E+00  0.00000000000E+00  0.90638334653E+03  0.90638334653E+03  0.00000000000E+00 0.  1.
         21   -1    0    0  501  502 -0.00000000000E+00 -0.00000000000E+00 -0.48948046327E+02  0.48948046327E+02  0.00000000000E+00 0.  1.
      99926    2    1    2    0    0  0.00000000000E+00  0.00000000000E+00  0.85743530020E+03  0.95533139285E+03  0.42126330975E+03 0.  0.
      99925    2    3    3    0    0  0.30634391067E+02  0.70787105330E+02  0.57604062826E+03  0.63787312836E+03  0.26288788920E+03 0.  0.
         25    1    4    4    0    0  0.51093350181E+02  0.20511139330E+02  0.31475013829E+03  0.34314194573E+03  0.12509000000E+03 0.  0.
         25    1    4    4    0    0 -0.20458959114E+02  0.50275965999E+02  0.26129048997E+03  0.29473118263E+03  0.12509000000E+03 0.  0.
         25    1    3    3    0    0 -0.30634391067E+02 -0.70787105330E+02  0.28139467194E+03  0.31745826449E+03  0.12509000000E+03 0.  0.
<mgrwt>
<rscale>  2 0.42126331E+03</rscale>
<asrwt>0</asrwt>
<pdfrwt beam="1">  1       21 0.13329166E+00 0.42126331E+03</pdfrwt>
<pdfrwt beam="2">  1       21 0.71982427E-02 0.42126331E+03</pdfrwt>
<totfact> 0.53769426E+04</totfact>
</mgrwt>
</event>
<event>
 7    0  0.4685107E-002  0.4542947E+03  0.7546771E-02  0.1026449E+00
         21   -1    0    0  502  501  0.00000000000E+00  0.00000000000E+00  0.93689068703E+03  0.93689068703E+03  0.00000000000E+00 0. -1.
         21   -1    0    0  501  502 -0.00000000000E+00 -0.00000000000E+00 -0.55071433313E+02  0.55071433313E+02  0.00000000000E+00 0. -1.
      99926    2    1    2    0    0  0.00000000000E+00  0.00000000000E+00  0.88181925372E+03  0.99196212034E+03  0.45429467526E+03 0.  0.
      99925    2    3    3    0    0  0.36985722461E+02 -0.15328561372E+02  0.78478361370E+03  0.82866382888E+03  0.26305039918E+03 0.  0.
         25    1    4    4    0    0  0.47470558379E+02 -0.31199628901E+02  0.35553493632E+03  0.38115544047E+03  0.12509000000E+03 0.  0.
         25    1    4    4    0    0 -0.10484835918E+02  0.15871067529E+02  0.42924867737E+03  0.44750838841E+03  0.12509000000E+03 0.  0.
         25    1    3    3    0    0 -0.36985722461E+02  0.15328561372E+02  0.97035640020E+02  0.16329829146E+03  0.12509000000E+03 0.  0.
<mgrwt>
<rscale>  2 0.45429468E+03</rscale>
<asrwt>0</asrwt>
<pdfrwt beam="1">  1       21 0.13777803E+00 0.45429468E+03</pdfrwt>
<pdfrwt beam="2">  1       21 0.80987408E-02 0.45429468E+03</pdfrwt>
<totfact> 0.39699115E+04</totfact>
</mgrwt>
</event>
<event>
 7    0  0.4685107E-002  0.4483177E+03  0.7546771E-02  0.1028225E+00
         21   -1    0    0  502  501  0.00000000000E+00  0.00000000000E+00  0.81457789969E+03  0.81457789969E+03  0.00000000000E+00 0. -1.
         21   -1    0    0  501  502 -0.00000000000E+00 -0.00000000000E+00 -0.61684937874E+02  0.61684937874E+02  0.00000000000E+00 0. -1.
      99926    2    1    2    0    0  0.00000000000E+00  0.00000000000E+00  0.75289296182E+03  0.87626283757E+03  0.44831768708E+03 0.  0.
      99925    2    3    3    0    0  0.16598885495E+02  0.83377832500E+02  0.35015169225E+03  0.44605890422E+03  0.26293526294E+03 0.  0.
         25    1    3    3    0    0 -0.16598885495E+02 -0.83377832500E+02  0.40274126957E+03  0.43020393334E+03  0.12509000000E+03 0.  0.
         25    1    4    4    0    0  0.57264842513E+01  0.14902641091E+02  0.21516961756E+03  0.24939998748E+03  0.12509000000E+03 0.  0.
         25    1    4    4    0    0  0.10872401243E+02  0.68475191409E+02  0.13498207469E+03  0.19665891675E+03  0.12509000000E+03 0.  0.
<mgrwt>
<rscale>  2 0.44831769E+03</rscale>
<asrwt>0</asrwt>
<pdfrwt beam="1">  1       21 0.11979086E+00 0.44831769E+03</pdfrwt>
<pdfrwt beam="2">  1       21 0.90713149E-02 0.44831769E+03</pdfrwt>
<totfact> 0.46671105E+04</totfact>
</mgrwt>
</event>
<event>
 7    0  0.4685107E-002  0.4586576E+03  0.7546771E-02  0.1025171E+00
         21   -1    0    0  502  501  0.00000000000E+00  0.00000000000E+00  0.89033920015E+02  0.89033920015E+02  0.00000000000E+00 0. -1.
         21   -1    0    0  501  502 -0.00000000000E+00 -0.00000000000E+00 -0.59069287985E+03  0.59069287985E+03  0.00000000000E+00 0. -1.
      99926    2    1    2    0    0 -0.14210854715E-13 -0.14210854715E-13 -0.50165895984E+03  0.67972679987E+03  0.45865761792E+03 0.  0.
      99925    2    3    3    0    0  0.69209222139E+02  0.86254881308E+02 -0.36878339257E+03  0.46634159547E+03  0.26314154376E+03 0.  0.
         25    1    4    4    0    0  0.51281092281E+02  0.96887592713E+01 -0.20503957721E+03  0.24578925689E+03  0.12509000000E+03 0.  0.
         25    1    4    4    0    0  0.17928129858E+02  0.76566122037E+02 -0.16374381536E+03  0.22055233858E+03  0.12509000000E+03 0.  0.
         25    1    3    3    0    0 -0.69209222139E+02 -0.86254881308E+02 -0.13287556727E+03  0.21338520440E+03  0.12509000000E+03 0.  0.
<mgrwt>
<rscale>  2 0.45865762E+03</rscale>
<asrwt>0</asrwt>
<pdfrwt beam="1">  1       21 0.13093224E-01 0.45865762E+03</pdfrwt>
<pdfrwt beam="2">  1       21 0.86866598E-01 0.45865762E+03</pdfrwt>
<totfact> 0.52488885E+04</totfact>
</mgrwt>
</event>
<event>
 7    0  0.4685107E-002  0.4526513E+03  0.7546771E-02  0.1026934E+00
         21   -1    0    0  502  501  0.00000000000E+00  0.00000000000E+00  0.61048975525E+02  0.61048975525E+02  0.00000000000E+00 0. -1.
         21   -1    0    0  501  502 -0.00000000000E+00 -0.00000000000E+00 -0.83905267955E+03  0.83905267955E+03  0.00000000000E+00 0. -1.
      99926    2    1    2    0    0 -0.71054273576E-14  0.00000000000E+00 -0.77800370403E+03  0.90010165508E+03  0.45265132938E+03 0.  0.
      99925    2    3    3    0    0  0.34866221080E+02  0.68570304092E+02 -0.33165783308E+03  0.43021902655E+03  0.26300941540E+03 0.  0.
         25    1    4    4    0    0  0.32734757724E+02  0.53179349849E+02 -0.12185128380E+03  0.18545848882E+03  0.12509000000E+03 0.  0.
         25    1    3    3    0    0 -0.34866221080E+02 -0.68570304092E+02 -0.44634587095E+03  0.46988262852E+03  0.12509000000E+03 0.  0.
         25    1    4    4    0    0  0.21314633560E+01  0.15390954244E+02 -0.20980654928E+03  0.24476053773E+03  0.12509000000E+03 0.  0.
<mgrwt>
<rscale>  2 0.45265133E+03</rscale>
<asrwt>0</asrwt>
<pdfrwt beam="1">  1       21 0.89777912E-02 0.45265133E+03</pdfrwt>
<pdfrwt beam="2">  1       21 0.12339009E+00 0.45265133E+03</pdfrwt>
<totfact> 0.44033449E+04</totfact>
</mgrwt>
</event>
<event>
 7    0  0.4685107E-002  0.4524698E+03  0.7546771E-02  0.1026988E+00
         21   -1    0    0  502  501  0.00000000000E+00  0.00000000000E+00  0.51357232822E+03  0.51357232822E+03  0.00000000000E+00 0.  1.
         21   -1    0    0  501  502 -0.00000000000E+00 -0.00000000000E+00 -0.99659253992E+02  0.99659253992E+02  0.00000000000E+00 0.  1.
      99926    2    1    2    0    0  0.00000000000E+00  0.00000000000E+00  0.41391307423E+03  0.61323158222E+03  0.45246982265E+03 0.  0.
      99925    2    3    3    0    0 -0.75616943617E+02 -0.67849975852E+02  0.20307762058E+03  0.34786271064E+03  0.26352685648E+03 0.  0.
         25    1    4    4    0    0 -0.51518261533E+02 -0.65491102373E+02  0.78075835352E+02  0.16937107170E+03  0.12509000000E+03 0.  0.
         25    1    4    4    0    0 -0.24098682084E+02 -0.23588734787E+01  0.12500178522E+03  0.17849163894E+03  0.12509000000E+03 0.  0.
         25    1    3    3    0    0  0.75616943617E+02  0.67849975852E+02  0.21083545366E+03  0.26536887158E+03  0.12509000000E+03 0.  0.
<mgrwt>
<rscale>  2 0.45246982E+03</rscale>
<asrwt>0</asrwt>
<pdfrwt beam="1">  1       21 0.75525341E-01 0.45246982E+03</pdfrwt>
<pdfrwt beam="2">  1       21 0.14655773E-01 0.45246982E+03</pdfrwt>
<totfact> 0.59042185E+04</totfact>
</mgrwt>
</event>
<event>
 7    0  0.4685107E-002  0.4562181E+03  0.7546771E-02  0.1025884E+00
         21   -1    0    0  502  501  0.00000000000E+00  0.00000000000E+00  0.21312271875E+03  0.21312271875E+03  0.00000000000E+00 0. -1.
         21   -1    0    0  501  502 -0.00000000000E+00 -0.00000000000E+00 -0.24414913893E+03  0.24414913893E+03  0.00000000000E+00 0. -1.
      99926    2    1    2    0    0  0.71054273576E-14  0.00000000000E+00 -0.31026420176E+02  0.45727185768E+03  0.45621805431E+03 0.  0.
      99925    2    3    3    0    0  0.49327483606E+02  0.65946773275E+02  0.60147316057E+02  0.28193693297E+03  0.26284702205E+03 0.  0.
         25    1    4    4    0    0  0.74753917276E+01  0.34731373020E+01  0.35991151780E+01  0.12541294149E+03  0.12509000000E+03 0.  0.
         25    1    3    3    0    0 -0.49327483606E+02 -0.65946773275E+02 -0.91173736233E+02  0.17533492471E+03  0.12509000000E+03 0.  0.
         25    1    4    4    0    0  0.41852091879E+02  0.62473635973E+02  0.56548200879E+02  0.15652399148E+03  0.12509000000E+03 0.  0.
<mgrwt>
<rscale>  2 0.45621805E+03</rscale>
<asrwt>0</asrwt>
<pdfrwt beam="1">  1       21 0.31341576E-01 0.45621805E+03</pdfrwt>
<pdfrwt beam="2">  1       21 0.35904285E-01 0.45621805E+03</pdfrwt>
<totfact> 0.67719183E+04</totfact>
</mgrwt>
</event>
<event>
 7    0  0.4685107E-002  0.4555449E+03  0.7546771E-02  0.1026081E+00
         21   -1    0    0  502  501  0.00000000000E+00  0.00000000000E+00  0.50269535449E+03  0.50269535449E+03  0.00000000000E+00 0.  1.
         21   -1    0    0  501  502 -0.00000000000E+00 -0.00000000000E+00 -0.10320421751E+03  0.10320421751E+03  0.00000000000E+00 0.  1.
      99926    2    1    2    0    0  0.00000000000E+00  0.71054273576E-14  0.39949113698E+03  0.60589957201E+03  0.45554486369E+03 0.  0.
      99925    2    3    3    0    0  0.49137466842E+02  0.46357664739E+02  0.12963534356E+03  0.30088616071E+03  0.26298980147E+03 0.  0.
         25    1    4    4    0    0  0.10998140228E+02  0.42200846797E+01  0.99386394530E+02  0.16019966205E+03  0.12509000000E+03 0.  0.
         25    1    3    3    0    0 -0.49137466842E+02 -0.46357664739E+02  0.26985579342E+03  0.30501341130E+03  0.12509000000E+03 0.  0.
         25    1    4    4    0    0  0.38139326615E+02  0.42137580059E+02  0.30248949026E+02  0.14068649866E+03  0.12509000000E+03 0.  0.
<mgrwt>
<rscale>  2 0.45554486E+03</rscale>
<asrwt>0</asrwt>
<pdfrwt beam="1">  1       21 0.73925786E-01 0.45554486E+03</pdfrwt>
<pdfrwt beam="2">  1       21 0.15177091E-01 0.45554486E+03</pdfrwt>
<totfact> 0.58066254E+04</totfact>
</mgrwt>
</event>
<event>
 7    0  0.4685107E-002  0.4395689E+03  0.7546771E-02  0.1030879E+00
         21   -1    0    0  502  501  0.00000000000E+00  0.00000000000E+00  0.99267172973E+02  0.99267172973E+02  0.00000000000E+00 0.  1.
         21   -1    0    0  501  502 -0.00000000000E+00 -0.00000000000E+00 -0.48661819643E+03  0.48661819643E+03  0.00000000000E+00 0.  1.
      99926    2    1    2    0    0 -0.35527136788E-14 -0.14210854715E-13 -0.38735102345E+03  0.58588536940E+03  0.43956893738E+03 0.  0.
      99925    2    3    3    0    0 -0.22456448958E+02 -0.93473034463E+02 -0.22200421519E+03  0.35734964927E+03  0.26300456270E+03 0.  0.
         25    1    4    4    0    0 -0.42335937925E+02 -0.47443427674E+02 -0.14655732877E+03  0.20290334937E+03  0.12509000000E+03 0.  0.
         25    1    4    4    0    0  0.19879488967E+02 -0.46029606789E+02 -0.75446886424E+02  0.15444629990E+03  0.12509000000E+03 0.  0.
         25    1    3    3    0    0  0.22456448958E+02  0.93473034463E+02 -0.16534680826E+03  0.22853572013E+03  0.12509000000E+03 0.  0.
<mgrwt>
<rscale>  2 0.43956894E+03</rscale>
<asrwt>0</asrwt>
<pdfrwt beam="1">  1       21 0.14598114E-01 0.43956894E+03</pdfrwt>
<pdfrwt beam="2">  1       21 0.71561499E-01 0.43956894E+03</pdfrwt>
<totfact> 0.67408613E+04</totfact>
</mgrwt>
</event>
<event>
 6    0  0.4685107E-002  0.4513817E+03  0.7546771E-02  0.1027311E+00
         21   -1    0    0  502  501  0.00000000000E+00  0.00000000000E+00  0.38598589210E+02  0.38598589210E+02  0.00000000000E+00 0.  1.
         21   -1    0    0  501  502 -0.00000000000E+00 -0.00000000000E+00 -0.13196428854E+04  0.13196428854E+04  0.00000000000E+00 0.  1.
      99926    2    1    2    0    0  0.71054273576E-14  0.00000000000E+00 -0.12810442962E+04  0.13582414746E+04  0.45138167281E+03 0.  0.
         25    1    3    3    0    0  0.39455487986E+01  0.14907194653E+02 -0.37065341033E+03  0.39149616920E+03  0.12509000000E+03 0.  0.
         25    1    3    3    0    0  0.63203589509E+02 -0.35468627654E+02 -0.23203663127E+03  0.27338841165E+03  0.12509000000E+03 0.  0.
         25    1    3    3    0    0 -0.67149138308E+02  0.20561433001E+02 -0.67835425459E+03  0.69335689376E+03  0.12509000000E+03 0.  0.
<mgrwt>
<rscale>  2 0.45138167E+03</rscale>
<asrwt>0</asrwt>
<pdfrwt beam="1">  1       21 0.56762627E-02 0.45138167E+03</pdfrwt>
<pdfrwt beam="2">  1       21 0.19406515E+00 0.45138167E+03</pdfrwt>
<totfact> 0.28252647E+04</totfact>
</mgrwt>
</event>
<event>
 7    0  0.4685107E-002  0.4584838E+03  0.7546771E-02  0.1025222E+00
         21   -1    0    0  502  501  0.00000000000E+00  0.00000000000E+00  0.58672580090E+02  0.58672580090E+02  0.00000000000E+00 0. -1.
         21   -1    0    0  501  502 -0.00000000000E+00 -0.00000000000E+00 -0.89567988874E+03  0.89567988874E+03  0.00000000000E+00 0. -1.
      99926    2    1    2    0    0  0.17763568394E-14  0.00000000000E+00 -0.83700730865E+03  0.95435246883E+03  0.45848380564E+03 0.  0.
      99925    2    3    3    0    0  0.13046614145E+02 -0.99896250121E+02 -0.40359666026E+03  0.49213847817E+03  0.26298392078E+03 0.  0.
         25    1    3    3    0    0 -0.13046614145E+02  0.99896250121E+02 -0.43341064839E+03  0.46221399066E+03  0.12509000000E+03 0.  0.
         25    1    4    4    0    0 -0.29387000264E+02 -0.65389621891E+02 -0.18740185545E+03  0.23644526209E+03  0.12509000000E+03 0.  0.
         25    1    4    4    0    0  0.42433614409E+02 -0.34506628231E+02 -0.21619480481E+03  0.25569321608E+03  0.12509000000E+03 0.  0.
<mgrwt>
<rscale>  2 0.45848381E+03</rscale>
<asrwt>0</asrwt>
<pdfrwt beam="1">  1       21 0.86283202E-02 0.45848381E+03</pdfrwt>
<pdfrwt beam="2">  1       21 0.13171764E+00 0.45848381E+03</pdfrwt>
<totfact> 0.39867882E+04</totfact>
</mgrwt>
</event>
<event>
 7    0  0.4685107E-002  0.4595303E+03  0.7546771E-02  0.1024918E+00
         21   -1    0    0  502  501  0.00000000000E+00  0.00000000000E+00  0.69018614673E+03  0.69018614673E+03  0.00000000000E+00 0. -1.
         21   -1    0    0  501  502 -0.00000000000E+00 -0.00000000000E+00 -0.76489553730E+02  0.76489553730E+02  0.00000000000E+00 0. -1.
      99926    2    1    2    0    0  0.00000000000E+00  0.44408920985E-15  0.61369659300E+03  0.76667570046E+03  0.45953032698E+03 0.  0.
      99925    2    3    3    0    0 -0.11720220880E+03 -0.19983078310E+01  0.39415229512E+03  0.48813026823E+03  0.26301098083E+03 0.  0.
         25    1    3    3    0    0  0.11720220880E+03  0.19983078310E+01  0.21954429788E+03  0.27854543223E+03  0.12509000000E+03 0.  0.
         25    1    4    4    0    0 -0.37288511596E+02  0.91605224069E+01  0.12723959859E+03  0.18251512764E+03  0.12509000000E+03 0.  0.
         25    1    4    4    0    0 -0.79913697202E+02 -0.11158830238E+02  0.26691269653E+03  0.30561514060E+03  0.12509000000E+03 0.  0.
<mgrwt>
<rscale>  2 0.45953033E+03</rscale>
<asrwt>0</asrwt>
<pdfrwt beam="1">  1       21 0.10149796E+00 0.45953033E+03</pdfrwt>
<pdfrwt beam="2">  1       21 0.11248464E-01 0.45953033E+03</pdfrwt>
<totfact> 0.47699561E+04</totfact>
</mgrwt>
</event>
<event>
 7    0  0.4685107E-002  0.4565920E+03  0.7546771E-02  0.1025774E+00
         21   -1    0    0  502  501  0.00000000000E+00  0.00000000000E+00  0.22872237597E+03  0.22872237597E+03  0.00000000000E+00 0. -1.
         21   -1    0    0  501  502 -0.00000000000E+00 -0.00000000000E+00 -0.22787045325E+03  0.22787045325E+03  0.00000000000E+00 0. -1.
      99926    2    1    2    0    0  0.00000000000E+00 -0.14210854715E-13  0.85192271902E+00  0.45659282921E+03  0.45659203444E+03 0.  0.
      99925    2    3    3    0    0 -0.66456840725E+02  0.77727069397E+02 -0.51312777597E+02  0.28680863367E+03  0.26299844526E+03 0.  0.
         25    1    3    3    0    0  0.66456840725E+02 -0.77727069397E+02  0.52164700316E+02  0.16978419554E+03  0.12509000000E+03 0.  0.
         25    1    4    4    0    0 -0.60071951642E+02  0.65373416039E+02 -0.48634021080E+02  0.16091954202E+03  0.12509000000E+03 0.  0.
         25    1    4    4    0    0 -0.63848890833E+01  0.12353653357E+02 -0.26787565165E+01  0.12588909165E+03  0.12509000000E+03 0.  0.
<mgrwt>
<rscale>  2 0.45659203E+03</rscale>
<asrwt>0</asrwt>
<pdfrwt beam="1">  1       21 0.33635643E-01 0.45659203E+03</pdfrwt>
<pdfrwt beam="2">  1       21 0.33510361E-01 0.45659203E+03</pdfrwt>
<totfact> 0.67566882E+04</totfact>
</mgrwt>
</event>
<event>
 7    0  0.4685107E-002  0.4572588E+03  0.7546771E-02  0.1025579E+00
         21   -1    0    0  502  501  0.00000000000E+00  0.00000000000E+00  0.13174513849E+03  0.13174513849E+03  0.00000000000E+00 0.  1.
         21   -1    0    0  501  502 -0.00000000000E+00 -0.00000000000E+00 -0.39676157257E+03  0.39676157257E+03  0.00000000000E+00 0.  1.
      99926    2    1    2    0    0  0.00000000000E+00  0.00000000000E+00 -0.26501643408E+03  0.52850671107E+03  0.45725882529E+03 0.  0.
      99925    2    3    3    0    0 -0.93660679527E+02 -0.66844190934E+02 -0.17547549574E+03  0.33639852152E+03  0.26292935729E+03 0.  0.
         25    1    3    3    0    0  0.93660679527E+02  0.66844190934E+02 -0.89540938333E+02  0.19210818954E+03  0.12509000000E+03 0.  0.
         25    1    4    4    0    0 -0.54921163650E+02 -0.16416887623E+02 -0.12890665957E+03  0.18854782788E+03  0.12509000000E+03 0.  0.
         25    1    4    4    0    0 -0.38739515877E+02 -0.50427303311E+02 -0.46568836178E+02  0.14785069365E+03  0.12509000000E+03 0.  0.
<mgrwt>
<rscale>  2 0.45725883E+03</rscale>
<asrwt>0</asrwt>
<pdfrwt beam="1">  1       21 0.19374285E-01 0.45725883E+03</pdfrwt>
<pdfrwt beam="2">  1       21 0.58347292E-01 0.45725883E+03</pdfrwt>
<totfact> 0.62186799E+04</totfact>
</mgrwt>
</event>
<event>
 7    0  0.4685107E-002  0.4560812E+03  0.7546771E-02  0.1025924E+00
         21   -1    0    0  502  501  0.00000000000E+00  0.00000000000E+00  0.41243874214E+03  0.41243874214E+03  0.00000000000E+00 0.  1.
         21   -1    0    0  501  502 -0.00000000000E+00 -0.00000000000E+00 -0.12608542909E+03  0.12608542909E+03  0.00000000000E+00 0.  1.
      99926    2    1    2    0    0  0.71054273576E-14  0.00000000000E+00  0.28635331305E+03  0.53852417123E+03  0.45608120232E+03 0.  0.
      99925    2    3    3    0    0  0.62185394008E+02 -0.10034419211E+02  0.29245798000E+03  0.39833683994E+03  0.26300732916E+03 0.  0.
         25    1    4    4    0    0 -0.57151657914E+01  0.32754602915E+01  0.11127294759E+03  0.16754870553E+03  0.12509000000E+03 0.  0.
         25    1    4    4    0    0  0.67900559799E+02 -0.13309879503E+02  0.18118503241E+03  0.23078813440E+03  0.12509000000E+03 0.  0.
         25    1    3    3    0    0 -0.62185394008E+02  0.10034419211E+02 -0.61046669495E+01  0.14018733129E+03  0.12509000000E+03 0.  0.
<mgrwt>
<rscale>  2 0.45608120E+03</rscale>
<asrwt>0</asrwt>
<pdfrwt beam="1">  1       21 0.60652756E-01 0.45608120E+03</pdfrwt>
<pdfrwt beam="2">  1       21 0.18541975E-01 0.45608120E+03</pdfrwt>
<totfact> 0.62098197E+04</totfact>
</mgrwt>
</event>
<event>
 7    0  0.4685107E-002  0.4578126E+03  0.7546771E-02  0.1025418E+00
         21   -1    0    0  502  501  0.00000000000E+00  0.00000000000E+00  0.17927555840E+03  0.17927555840E+03  0.00000000000E+00 0.  1.
         21   -1    0    0  501  502 -0.00000000000E+00 -0.00000000000E+00 -0.29227689276E+03  0.29227689276E+03  0.00000000000E+00 0.  1.
      99926    2    1    2    0    0  0.00000000000E+00  0.00000000000E+00 -0.11300133436E+03  0.47155245115E+03  0.45781263921E+03 0.  0.
      99925    2    3    3    0    0 -0.26444386399E+02 -0.84715911692E+02  0.59969088391E+01  0.27742831239E+03  0.26278206624E+03 0.  0.
         25    1    4    4    0    0 -0.16421253647E+02 -0.83137893240E+02  0.13557292941E+02  0.15169995107E+03  0.12509000000E+03 0.  0.
         25    1    3    3    0    0  0.26444386399E+02  0.84715911692E+02 -0.11899824320E+03  0.19412413876E+03  0.12509000000E+03 0.  0.
         25    1    4    4    0    0 -0.10023132752E+02 -0.15780184528E+01 -0.75603841022E+01  0.12572836132E+03  0.12509000000E+03 0.  0.
<mgrwt>
<rscale>  2 0.45781264E+03</rscale>
<asrwt>0</asrwt>
<pdfrwt beam="1">  1       21 0.26364053E-01 0.45781264E+03</pdfrwt>
<pdfrwt beam="2">  1       21 0.42981895E-01 0.45781264E+03</pdfrwt>
<totfact> 0.65839126E+04</totfact>
</mgrwt>
</event>
<event>
 7    0  0.4685107E-002  0.4529688E+03  0.7546771E-02  0.1026840E+00
         21   -1    0    0  502  501  0.00000000000E+00  0.00000000000E+00  0.47974698660E+02  0.47974698660E+02  0.00000000000E+00 0.  1.
         21   -1    0    0  501  502 -0.00000000000E+00 -0.00000000000E+00 -0.10692130687E+04  0.10692130687E+04  0.00000000000E+00 0.  1.
      99926    2    1    2    0    0 -0.14210854715E-13  0.35527136788E-14 -0.10212383700E+04  0.11171877674E+04  0.45296876172E+03 0.  0.
      99925    2    3    3    0    0  0.90539040853E+02 -0.27236801882E+02 -0.78882355685E+03  0.83682494032E+03  0.26285778590E+03 0.  0.
         25    1    3    3    0    0 -0.90539040853E+02  0.27236801882E+02 -0.23241481320E+03  0.28036282705E+03  0.12509000000E+03 0.  0.
         25    1    4    4    0    0  0.86591351141E+02 -0.21672108962E+02 -0.45660661371E+03  0.48177261253E+03  0.12509000000E+03 0.  0.
         25    1    4    4    0    0  0.39476897121E+01 -0.55646929196E+01 -0.33221694314E+03  0.35505232779E+03  0.12509000000E+03 0.  0.
<mgrwt>
<rscale>  2 0.45296876E+03</rscale>
<asrwt>0</asrwt>
<pdfrwt beam="1">  1       21 0.70551032E-02 0.45296876E+03</pdfrwt>
<pdfrwt beam="2">  1       21 0.15723721E+00 0.45296876E+03</pdfrwt>
<totfact> 0.35455105E+04</totfact>
</mgrwt>
</event>
<event>
 7    0  0.4685107E-002  0.4432448E+03  0.7546771E-02  0.1029756E+00
         21   -1    0    0  502  501  0.00000000000E+00  0.00000000000E+00  0.10781852589E+03  0.10781852589E+03  0.00000000000E+00 0.  1.
         21   -1    0    0  501  502 -0.00000000000E+00 -0.00000000000E+00 -0.45554777776E+03  0.45554777776E+03  0.00000000000E+00 0.  1.
      99926    2    1    2    0    0  0.00000000000E+00  0.00000000000E+00 -0.34772925187E+03  0.56336630365E+03  0.44324480762E+03 0.  0.
      99925    2    3    3    0    0 -0.10667180478E+02  0.98400983493E+02 -0.19134724221E+03  0.33998460489E+03  0.26301943307E+03 0.  0.
         25    1    3    3    0    0  0.10667180478E+02 -0.98400983493E+02 -0.15638200966E+03  0.22338169875E+03  0.12509000000E+03 0.  0.
         25    1    4    4    0    0 -0.14785443196E+02  0.53337095307E+02 -0.49364898414E+02  0.14542302556E+03  0.12509000000E+03 0.  0.
         25    1    4    4    0    0  0.41182627183E+01  0.45063888187E+02 -0.14198234379E+03  0.19456157934E+03  0.12509000000E+03 0.  0.
<mgrwt>
<rscale>  2 0.44324481E+03</rscale>
<asrwt>0</asrwt>
<pdfrwt beam="1">  1       21 0.15855666E-01 0.44324481E+03</pdfrwt>
<pdfrwt beam="2">  1       21 0.66992320E-01 0.44324481E+03</pdfrwt>
<totfact> 0.67007705E+04</totfact>
</mgrwt>
</event>
<event>
 7    0  0.4685107E-002  0.4485085E+03  0.7546771E-02  0.1028168E+00
         21   -1    0    0  502  501  0.00000000000E+00  0.00000000000E+00  0.90573832758E+03  0.90573832758E+03  0.00000000000E+00 0.  1.
         21   -1    0    0  501  502 -0.00000000000E+00 -0.00000000000E+00 -0.55523719170E+02  0.55523719170E+02  0.00000000000E+00 0.  1.
      99926    2    1    2    0    0 -0.66613381478E-15 -0.35527136788E-14  0.85021460841E+03  0.96126204675E+03  0.44850846388E+03 0.  0.
      99925    2    3    3    0    0  0.13567798351E+01  0.20285548865E+02  0.76325597437E+03  0.80756540893E+03  0.26303775952E+03 0.  0.
         25    1    4    4    0    0 -0.14658633816E+02  0.46245869439E+02  0.35613409863E+03  0.38056873268E+03  0.12509000000E+03 0.  0.
         25    1    3    3    0    0 -0.13567798351E+01 -0.20285548865E+02  0.86958634033E+02  0.15369663782E+03  0.12509000000E+03 0.  0.
         25    1    4    4    0    0  0.16015413651E+02 -0.25960320574E+02  0.40712187575E+03  0.42699667625E+03  0.12509000000E+03 0.  0.
<mgrwt>
<rscale>  2 0.44850846E+03</rscale>
<asrwt>0</asrwt>
<pdfrwt beam="1">  1       21 0.13319680E+00 0.44850846E+03</pdfrwt>
<pdfrwt beam="2">  1       21 0.81652534E-02 0.44850846E+03</pdfrwt>
<totfact> 0.42820545E+04</totfact>
</mgrwt>
</event>
<event>
 7    0  0.4685107E-002  0.4508513E+03  0.7546771E-02  0.1027468E+00
         21   -1    0    0  502  501  0.00000000000E+00  0.00000000000E+00  0.17477664820E+03  0.17477664820E+03  0.00000000000E+00 0. -1.
         21   -1    0    0  501  502 -0.00000000000E+00 -0.00000000000E+00 -0.29075238976E+03  0.29075238976E+03  0.00000000000E+00 0. -1.
      99926    2    1    2    0    0  0.00000000000E+00  0.00000000000E+00 -0.11597574155E+03  0.46552903796E+03  0.45085131979E+03 0.  0.
      99925    2    3    3    0    0  0.58404886544E+02 -0.75959160622E+02 -0.19074784160E+02  0.28054734022E+03  0.26298676366E+03 0.  0.
         25    1    3    3    0    0 -0.58404886544E+02  0.75959160622E+02 -0.96900957394E+02  0.18498169774E+03  0.12509000000E+03 0.  0.
         25    1    4    4    0    0  0.27121838908E+02 -0.75228885879E+02 -0.28807488748E+02  0.15123610324E+03  0.12509000000E+03 0.  0.
         25    1    4    4    0    0  0.31283047636E+02 -0.73027474318E+00  0.97327045878E+01  0.12931123698E+03  0.12509000000E+03 0.  0.
<mgrwt>
<rscale>  2 0.45085132E+03</rscale>
<asrwt>0</asrwt>
<pdfrwt beam="1">  1       21 0.25702448E-01 0.45085132E+03</pdfrwt>
<pdfrwt beam="2">  1       21 0.42757704E-01 0.45085132E+03</pdfrwt>
<totfact> 0.70046737E+04</totfact>
</mgrwt>
</event>
<event>
 7    0  0.4685107E-002  0.4516555E+03  0.7546771E-02  0.1027230E+00
         21   -1    0    0  502  501  0.00000000000E+00  0.00000000000E+00  0.29297269894E+03  0.29297269894E+03  0.00000000000E+00 0.  1.
         21   -1    0    0  501  502 -0.00000000000E+00 -0.00000000000E+00 -0.17407140224E+03  0.17407140224E+03  0.00000000000E+00 0.  1.
      99926    2    1    2    0    0  0.00000000000E+00  0.17763568394E-14  0.11890129670E+03  0.46704410118E+03  0.45165548163E+03 0.  0.
      99925    2    3    3    0    0 -0.98616001912E+02  0.12030300146E+02  0.12337649133E+03  0.30723991030E+03  0.26325797218E+03 0.  0.
         25    1    4    4    0    0 -0.66042973114E+02 -0.28703451496E+02  0.47694503436E+02  0.15201261850E+03  0.12509000000E+03 0.  0.
         25    1    3    3    0    0  0.98616001912E+02 -0.12030300146E+02 -0.44751946308E+01  0.15980419088E+03  0.12509000000E+03 0.  0.
         25    1    4    4    0    0 -0.32573028798E+02  0.40733751642E+02  0.75681987898E+02  0.15522729180E+03  0.12509000000E+03 0.  0.
<mgrwt>
<rscale>  2 0.45165548E+03</rscale>
<asrwt>0</asrwt>
<pdfrwt beam="1">  1       21 0.43084221E-01 0.45165548E+03</pdfrwt>
<pdfrwt beam="2">  1       21 0.25598735E-01 0.45165548E+03</pdfrwt>
<totfact> 0.69481440E+04</totfact>
</mgrwt>
</event>
<event>
 7    0  0.4685107E-002  0.4448516E+03  0.7546771E-02  0.1029269E+00
         21   -1    0    0  502  501  0.00000000000E+00  0.00000000000E+00  0.48231073249E+03  0.48231073249E+03  0.00000000000E+00 0. -1.
         21   -1    0    0  501  502 -0.00000000000E+00 -0.00000000000E+00 -0.10257545237E+03  0.10257545237E+03  0.00000000000E+00 0. -1.
      99926    2    1    2    0    0  0.00000000000E+00  0.00000000000E+00  0.37973528011E+03  0.58488618486E+03  0.44485162276E+03 0.  0.
      99925    2    3    3    0    0  0.61479039265E+02 -0.89090487254E+01  0.13263747809E+03  0.30104842261E+03  0.26301788673E+03 0.  0.
         25    1    4    4    0    0  0.38567900724E+02  0.35154660126E+01  0.11055894734E+03  0.17137861712E+03  0.12509000000E+03 0.  0.
         25    1    3    3    0    0 -0.61479039265E+02  0.89090487254E+01  0.24709780202E+03  0.28383776225E+03  0.12509000000E+03 0.  0.
         25    1    4    4    0    0  0.22911138541E+02 -0.12424514738E+02  0.22078530755E+02  0.12966980549E+03  0.12509000000E+03 0.  0.
<mgrwt>
<rscale>  2 0.44485162E+03</rscale>
<asrwt>0</asrwt>
<pdfrwt beam="1">  1       21 0.70928047E-01 0.44485162E+03</pdfrwt>
<pdfrwt beam="2">  1       21 0.15084626E-01 0.44485162E+03</pdfrwt>
<totfact> 0.64650374E+04</totfact>
</mgrwt>
</event>
<event>
 7    0  0.4685107E-002  0.4779567E+03  0.7546771E-02  0.1019698E+00
         21   -1    0    0  502  501  0.00000000000E+00  0.00000000000E+00  0.25852164982E+03  0.25852164982E+03  0.00000000000E+00 0.  1.
         21   -1    0    0  501  502 -0.00000000000E+00 -0.00000000000E+00 -0.22091244906E+03  0.22091244906E+03  0.00000000000E+00 0.  1.
      99926    2    1    2    0    0  0.00000000000E+00 -0.14210854715E-13  0.37609200768E+02  0.47943409888E+03  0.47795669593E+03 0.  0.
      99925    2    3    3    0    0  0.86407032783E+02 -0.10110111566E+03  0.35190026683E+02  0.29683899652E+03  0.26303505655E+03 0.  0.
         25    1    4    4    0    0  0.67073992591E+02 -0.69018786908E+02  0.49671171981E+02  0.16546071091E+03  0.12509000000E+03 0.  0.
         25    1    3    3    0    0 -0.86407032783E+02  0.10110111566E+03  0.24191740849E+01  0.18259510236E+03  0.12509000000E+03 0.  0.
         25    1    4    4    0    0  0.19333040192E+02 -0.32082328753E+02 -0.14481145298E+02  0.13137828561E+03  0.12509000000E+03 0.  0.
<mgrwt>
<rscale>  2 0.47795670E+03</rscale>
<asrwt>0</asrwt>
<pdfrwt beam="1">  1       21 0.38017890E-01 0.47795670E+03</pdfrwt>
<pdfrwt beam="2">  1       21 0.32487125E-01 0.47795670E+03</pdfrwt>
<totfact> 0.55840926E+04</totfact>
</mgrwt>
</event>
<event>
 7    0  0.4685107E-002  0.4488189E+03  0.7546771E-02  0.1028075E+00
         21   -1    0    0  502  501  0.00000000000E+00  0.00000000000E+00  0.24305460785E+03  0.24305460785E+03  0.00000000000E+00 0. -1.
         21   -1    0    0  501  502 -0.00000000000E+00 -0.00000000000E+00 -0.20719455880E+03  0.20719455880E+03  0.00000000000E+00 0. -1.
      99926    2    1    2    0    0  0.00000000000E+00  0.00000000000E+00  0.35860049058E+02  0.45024916665E+03  0.44881885984E+03 0.  0.
      99925    2    3    3    0    0 -0.10054055533E+03 -0.21256727188E+02  0.54234442375E+02  0.28732164243E+03  0.26277766220E+03 0.  0.
         25    1    4    4    0    0 -0.68724073890E+02  0.68719830380E+01 -0.40151031304E+01  0.14294702388E+03  0.12509000000E+03 0.  0.
         25    1    3    3    0    0  0.10054055533E+03  0.21256727188E+02 -0.18374393317E+02  0.16292752422E+03  0.12509000000E+03 0.  0.
         25    1    4    4    0    0 -0.31816481444E+02 -0.28128710226E+02  0.58249545505E+02  0.14437461855E+03  0.12509000000E+03 0.  0.
<mgrwt>
<rscale>  2 0.44881886E+03</rscale>
<asrwt>0</asrwt>
<pdfrwt beam="1">  1       21 0.35743325E-01 0.44881886E+03</pdfrwt>
<pdfrwt beam="2">  1       21 0.30469788E-01 0.44881886E+03</pdfrwt>
<totfact> 0.72400545E+04</totfact>
</mgrwt>
</event>
<event>
 7    0  0.4685107E-002  0.4504195E+03  0.7546771E-02  0.1027597E+00
         21   -1    0    0  502  501  0.00000000000E+00  0.00000000000E+00  0.11754728270E+03  0.11754728270E+03  0.00000000000E+00 0. -1.
         21   -1    0    0  501  502 -0.00000000000E+00 -0.00000000000E+00 -0.43148105544E+03  0.43148105544E+03  0.00000000000E+00 0. -1.
      99926    2    1    2    0    0  0.00000000000E+00  0.00000000000E+00 -0.31393377275E+03  0.54902833814E+03  0.45041947383E+03 0.  0.
      99925    2    3    3    0    0 -0.10207549797E+03  0.31101825233E+02 -0.22458374376E+03  0.36189825879E+03  0.26295581555E+03 0.  0.
         25    1    4    4    0    0 -0.12644225588E+02  0.19908198919E+02 -0.12468261308E+03  0.17818382342E+03  0.12509000000E+03 0.  0.
         25    1    3    3    0    0  0.10207549797E+03 -0.31101825233E+02 -0.89350028984E+02  0.18713007935E+03  0.12509000000E+03 0.  0.
         25    1    4    4    0    0 -0.89431272382E+02  0.11193626314E+02 -0.99901130683E+02  0.18371443537E+03  0.12509000000E+03 0.  0.
<mgrwt>
<rscale>  2 0.45041947E+03</rscale>
<asrwt>0</asrwt>
<pdfrwt beam="1">  1       21 0.17286366E-01 0.45041947E+03</pdfrwt>
<pdfrwt beam="2">  1       21 0.63453095E-01 0.45041947E+03</pdfrwt>
<totfact> 0.64226977E+04</totfact>
</mgrwt>
</event>
<event>
 7    0  0.4685107E-002  0.4561925E+03  0.7546771E-02  0.1025891E+00
         21   -1    0    0  502  501  0.00000000000E+00  0.00000000000E+00  0.58872367116E+03  0.58872367116E+03  0.00000000000E+00 0.  1.
         21   -1    0    0  501  502 -0.00000000000E+00 -0.00000000000E+00 -0.88374039025E+02  0.88374039025E+02  0.00000000000E+00 0.  1.
      99926    2    1    2    0    0  0.00000000000E+00  0.00000000000E+00  0.50034963214E+03  0.67709771019E+03  0.45619245364E+03 0.  0.
      99925    2    3    3    0    0 -0.66841396457E+02  0.69610119294E+02  0.22345872148E+03  0.35830400653E+03  0.26293463047E+03 0.  0.
         25    1    4    4    0    0 -0.74847332620E+01  0.19578322850E+02  0.14065163283E+03  0.18939303544E+03  0.12509000000E+03 0.  0.
         25    1    3    3    0    0  0.66841396457E+02 -0.69610119294E+02  0.27689091066E+03  0.31879370366E+03  0.12509000000E+03 0.  0.
         25    1    4    4    0    0 -0.59356663195E+02  0.50031796445E+02  0.82807088651E+02  0.16891097108E+03  0.12509000000E+03 0.  0.
<mgrwt>
<rscale>  2 0.45619245E+03</rscale>
<asrwt>0</asrwt>
<pdfrwt beam="1">  1       21 0.86577008E-01 0.45619245E+03</pdfrwt>
<pdfrwt beam="2">  1       21 0.12996183E-01 0.45619245E+03</pdfrwt>
<totfact> 0.53658625E+04</totfact>
</mgrwt>
</event>
<event>
 7    0  0.4685107E-002  0.4097332E+03  0.7546771E-02  0.1040461E+00
         21   -1    0    0  502  501  0.00000000000E+00  0.00000000000E+00  0.75114423960E+02  0.75114423960E+02  0.00000000000E+00 0. -1.
         21   -1    0    0  501  502 -0.00000000000E+00 -0.00000000000E+00 -0.55875173839E+03  0.55875173839E+03  0.00000000000E+00 0. -1.
      99926    2    1    2    0    0  0.00000000000E+00  0.00000000000E+00 -0.48363731443E+03  0.63386616235E+03  0.40973315690E+03 0.  0.
      99925    2    3    3    0    0  0.21729027869E+02  0.13158758067E+02 -0.40631867799E+03  0.48463150415E+03  0.26292113488E+03 0.  0.
         25    1    4    4    0    0 -0.23305741678E+02 -0.14976409533E+02 -0.18957340737E+03  0.22880785677E+03  0.12509000000E+03 0.  0.
         25    1    3    3    0    0 -0.21729027869E+02 -0.13158758067E+02 -0.77318636440E+02  0.14923465820E+03  0.12509000000E+03 0.  0.
         25    1    4    4    0    0  0.45034769547E+02  0.28135167601E+02 -0.21674527062E+03  0.25582364738E+03  0.12509000000E+03 0.  0.
<mgrwt>
<rscale>  2 0.40973316E+03</rscale>
<asrwt>0</asrwt>
<pdfrwt beam="1">  1       21 0.11046239E-01 0.40973316E+03</pdfrwt>
<pdfrwt beam="2">  1       21 0.82169375E-01 0.40973316E+03</pdfrwt>
<totfact> 0.82327799E+04</totfact>
</mgrwt>
</event>
<event>
 7    0  0.4685107E-002  0.4526685E+03  0.7546771E-02  0.1026929E+00
         21   -1    0    0  502  501  0.00000000000E+00  0.00000000000E+00  0.14945952539E+03  0.14945952539E+03  0.00000000000E+00 0.  1.
         21   -1    0    0  501  502 -0.00000000000E+00 -0.00000000000E+00 -0.34274967422E+03  0.34274967422E+03  0.00000000000E+00 0.  1.
      99926    2    1    2    0    0  0.00000000000E+00  0.14210854715E-13 -0.19329014882E+03  0.49220919961E+03  0.45266854822E+03 0.  0.
      99925    2    3    3    0    0 -0.61561775165E+02  0.80985528651E+02 -0.17012710723E+03  0.32932107049E+03  0.26298408097E+03 0.  0.
         25    1    4    4    0    0 -0.10407184052E+02  0.41179464692E+02 -0.12371080034E+03  0.18098598845E+03  0.12509000000E+03 0.  0.
         25    1    4    4    0    0 -0.51154591113E+02  0.39806063960E+02 -0.46416306886E+02  0.14833508204E+03  0.12509000000E+03 0.  0.
         25    1    3    3    0    0  0.61561775165E+02 -0.80985528651E+02 -0.23163041590E+02  0.16288812912E+03  0.12509000000E+03 0.  0.
<mgrwt>
<rscale>  2 0.45266855E+03</rscale>
<asrwt>0</asrwt>
<pdfrwt beam="1">  1       21 0.21979342E-01 0.45266855E+03</pdfrwt>
<pdfrwt beam="2">  1       21 0.50404363E-01 0.45266855E+03</pdfrwt>
<totfact> 0.67054026E+04</totfact>
</mgrwt>
</event>
<event>
 7    0  0.4685107E-002  0.4569740E+03  0.7546771E-02  0.1025663E+00
         21   -1    0    0  502  501  0.00000000000E+00  0.00000000000E+00  0.20719130536E+04  0.20719130536E+04  0.00000000000E+00 0.  1.
         21   -1    0    0  501  502 -0.00000000000E+00 -0.00000000000E+00 -0.25197148539E+02  0.25197148539E+02  0.00000000000E+00 0.  1.
      99926    2    1    2    0    0  0.14210854715E-13  0.71054273576E-14  0.20467159050E+04  0.20971102021E+04  0.45697396412E+03 0.  0.
      99925    2    3    3    0    0 -0.99865217490E+02 -0.52265665049E+02  0.13835126756E+04  0.14128655141E+04  0.26339490513E+03 0.  0.
         25    1    4    4    0    0 -0.60224623764E+01 -0.25913755552E+02  0.60772105667E+03  0.62103154799E+03  0.12509000000E+03 0.  0.
         25    1    4    4    0    0 -0.93842755114E+02 -0.26351909497E+02  0.77579161890E+03  0.79183396611E+03  0.12509000000E+03 0.  0.
         25    1    3    3    0    0  0.99865217490E+02  0.52265665049E+02  0.66320322948E+03  0.68424468803E+03  0.12509000000E+03 0.  0.
<mgrwt>
<rscale>  2 0.45697396E+03</rscale>
<asrwt>0</asrwt>
<pdfrwt beam="1">  1       21 0.30469298E+00 0.45697396E+03</pdfrwt>
<pdfrwt beam="2">  1       21 0.37054644E-02 0.45697396E+03</pdfrwt>
<totfact> 0.12003314E+04</totfact>
</mgrwt>
</event>
<event>
 7    0  0.4685107E-002  0.4508571E+03  0.7546771E-02  0.1027467E+00
         21   -1    0    0  502  501  0.00000000000E+00  0.00000000000E+00  0.23462292662E+03  0.23462292662E+03  0.00000000000E+00 0. -1.
         21   -1    0    0  501  502 -0.00000000000E+00 -0.00000000000E+00 -0.21659451508E+03  0.21659451508E+03  0.00000000000E+00 0. -1.
      99926    2    1    2    0    0 -0.14210854715E-13  0.00000000000E+00  0.18028411540E+02  0.45121744170E+03  0.45085713488E+03 0.  0.
      99925    2    3    3    0    0  0.74837610543E+02  0.12499508012E+01 -0.68304178504E+02  0.28179768331E+03  0.26294912662E+03 0.  0.
         25    1    4    4    0    0  0.18091019444E+02 -0.48979900665E+01  0.37961550983E+01  0.12654325025E+03  0.12509000000E+03 0.  0.
         25    1    4    4    0    0  0.56746591099E+02  0.61479408677E+01 -0.72100333602E+02  0.15525443306E+03  0.12509000000E+03 0.  0.
         25    1    3    3    0    0 -0.74837610543E+02 -0.12499508012E+01  0.86332590043E+02  0.16941975839E+03  0.12509000000E+03 0.  0.
<mgrwt>
<rscale>  2 0.45085713E+03</rscale>
<asrwt>0</asrwt>
<pdfrwt beam="1">  1       21 0.34503372E-01 0.45085713E+03</pdfrwt>
<pdfrwt beam="2">  1       21 0.31852134E-01 0.45085713E+03</pdfrwt>
<totfact> 0.71146674E+04</totfact>
</mgrwt>
</event>
<event>
 7    0  0.4685107E-002  0.4378508E+03  0.7546771E-02  0.1031408E+00
         21   -1    0    0  502  501  0.00000000000E+00  0.00000000000E+00  0.63784486980E+03  0.63784486980E+03  0.00000000000E+00 0.  1.
         21   -1    0    0  501  502 -0.00000000000E+00 -0.00000000000E+00 -0.75141037049E+02  0.75141037049E+02  0.00000000000E+00 0.  1.
      99926    2    1    2    0    0  0.00000000000E+00 -0.71054273576E-14  0.56270383276E+03  0.71298590685E+03  0.43785077364E+03 0.  0.
      99925    2    3    3    0    0 -0.70418239111E+02 -0.61568775689E+02  0.32330909370E+03  0.42714190792E+03  0.26300569745E+03 0.  0.
         25    1    4    4    0    0 -0.64947026206E+02 -0.49551284514E+02  0.13943242220E+03  0.20435839711E+03  0.12509000000E+03 0.  0.
         25    1    3    3    0    0  0.70418239111E+02  0.61568775689E+02  0.23939473906E+03  0.28584399893E+03  0.12509000000E+03 0.  0.
         25    1    4    4    0    0 -0.54712129048E+01 -0.12017491175E+02  0.18387667150E+03  0.22278351081E+03  0.12509000000E+03 0.  0.
<mgrwt>
<rscale>  2 0.43785077E+03</rscale>
<asrwt>0</asrwt>
<pdfrwt beam="1">  1       21 0.93800713E-01 0.43785077E+03</pdfrwt>
<pdfrwt beam="2">  1       21 0.11050153E-01 0.43785077E+03</pdfrwt>
<totfact> 0.59882686E+04</totfact>
</mgrwt>
</event>
<event>
 7    0  0.4685107E-002  0.4505479E+03  0.7546771E-02  0.1027559E+00
         21   -1    0    0  502  501  0.00000000000E+00  0.00000000000E+00  0.44537235433E+03  0.44537235433E+03  0.00000000000E+00 0. -1.
         21   -1    0    0  501  502 -0.00000000000E+00 -0.00000000000E+00 -0.11394588042E+03  0.11394588042E+03  0.00000000000E+00 0. -1.
      99926    2    1    2    0    0  0.00000000000E+00  0.00000000000E+00  0.33142647391E+03  0.55931823475E+03  0.45054786662E+03 0.  0.
      99925    2    3    3    0    0  0.78828186189E+02  0.68877984054E+02  0.24566884741E+03  0.37503601036E+03  0.26332635047E+03 0.  0.
         25    1    4    4    0    0  0.73139520934E+02  0.11564620043E+02  0.11760656840E+03  0.18698113004E+03  0.12509000000E+03 0.  0.
         25    1    3    3    0    0 -0.78828186189E+02 -0.68877984054E+02  0.85757626497E+02  0.18428222439E+03  0.12509000000E+03 0.  0.
         25    1    4    4    0    0  0.56886652552E+01  0.57313364011E+02  0.12806227901E+03  0.18805488032E+03  0.12509000000E+03 0.  0.
<mgrwt>
<rscale>  2 0.45054787E+03</rscale>
<asrwt>0</asrwt>
<pdfrwt beam="1">  1       21 0.65495934E-01 0.45054787E+03</pdfrwt>
<pdfrwt beam="2">  1       21 0.16756747E-01 0.45054787E+03</pdfrwt>
<totfact> 0.63460401E+04</totfact>
</mgrwt>
</event>
<event>
 7    0  0.4685107E-002  0.4598073E+03  0.7546771E-02  0.1024837E+00
         21   -1    0    0  502  501  0.00000000000E+00  0.00000000000E+00  0.78538538837E+03  0.78538538837E+03  0.00000000000E+00 0.  1.
         21   -1    0    0  501  502 -0.00000000000E+00 -0.00000000000E+00 -0.67299048360E+02  0.67299048360E+02  0.00000000000E+00 0.  1.
      99926    2    1    2    0    0  0.00000000000E+00  0.71054273576E-14  0.71808634001E+03  0.85268443673E+03  0.45980730413E+03 0.  0.
      99925    2    3    3    0    0  0.83890866859E+02  0.46221831735E+02  0.32408739559E+03  0.42835342022E+03  0.26321070905E+03 0.  0.
         25    1    3    3    0    0 -0.83890866859E+02 -0.46221831735E+02  0.39399894441E+03  0.42433101651E+03  0.12509000000E+03 0.  0.
         25    1    4    4    0    0  0.76554642302E+02  0.53317852464E+01  0.14828142503E+03  0.20862389676E+03  0.12509000000E+03 0.  0.
         25    1    4    4    0    0  0.73362245570E+01  0.40890046489E+02  0.17580597057E+03  0.21972952346E+03  0.12509000000E+03 0.  0.
<mgrwt>
<rscale>  2 0.45980730E+03</rscale>
<asrwt>0</asrwt>
<pdfrwt beam="1">  1       21 0.11549785E+00 0.45980730E+03</pdfrwt>
<pdfrwt beam="2">  1       21 0.98969194E-02 0.45980730E+03</pdfrwt>
<totfact> 0.43650039E+04</totfact>
</mgrwt>
</event>
<event>
 7    0  0.4685107E-002  0.4567199E+03  0.7546771E-02  0.1025737E+00
         21   -1    0    0  502  501  0.00000000000E+00  0.00000000000E+00  0.14849746814E+04  0.14849746814E+04  0.00000000000E+00 0. -1.
         21   -1    0    0  501  502 -0.00000000000E+00 -0.00000000000E+00 -0.35117271271E+02  0.35117271271E+02  0.00000000000E+00 0. -1.
      99926    2    1    2    0    0  0.00000000000E+00  0.00000000000E+00  0.14498574101E+04  0.15200919526E+04  0.45671986476E+03 0.  0.
      99925    2    3    3    0    0  0.29910828291E+02 -0.11016398024E+03  0.95017565743E+03  0.99249350473E+03  0.26301866237E+03 0.  0.
         25    1    4    4    0    0  0.20192592874E+02 -0.81623769524E+02  0.39956080004E+03  0.42704393403E+03  0.12509000000E+03 0.  0.
         25    1    3    3    0    0 -0.29910828291E+02  0.11016398024E+03  0.49968175266E+03  0.52759844790E+03  0.12509000000E+03 0.  0.
         25    1    4    4    0    0  0.97182354179E+01 -0.28540210719E+02  0.55061485739E+03  0.56544957070E+03  0.12509000000E+03 0.  0.
<mgrwt>
<rscale>  2 0.45671986E+03</rscale>
<asrwt>0</asrwt>
<pdfrwt beam="1">  1       21 0.21837859E+00 0.45671986E+03</pdfrwt>
<pdfrwt beam="2">  1       21 0.51643056E-02 0.45671986E+03</pdfrwt>
<totfact> 0.22982436E+04</totfact>
</mgrwt>
</event>
<event>
 7    0  0.4685107E-002  0.4557951E+03  0.7546771E-02  0.1026008E+00
         21   -1    0    0  502  501  0.00000000000E+00  0.00000000000E+00  0.25484257314E+03  0.25484257314E+03  0.00000000000E+00 0. -1.
         21   -1    0    0  501  502 -0.00000000000E+00 -0.00000000000E+00 -0.20380151921E+03  0.20380151921E+03  0.00000000000E+00 0. -1.
      99926    2    1    2    0    0  0.00000000000E+00  0.00000000000E+00  0.51041053926E+02  0.45864409235E+03  0.45579514506E+03 0.  0.
      99925    2    3    3    0    0 -0.47452583826E+02 -0.75547148410E+02  0.10340763487E+03  0.29632069217E+03  0.26297090013E+03 0.  0.
         25    1    4    4    0    0  0.15302554349E+02 -0.23993202855E+02  0.54254019339E+02  0.13928692928E+03  0.12509000000E+03 0.  0.
         25    1    3    3    0    0  0.47452583826E+02  0.75547148410E+02 -0.52366580940E+02  0.16232340017E+03  0.12509000000E+03 0.  0.
         25    1    4    4    0    0 -0.62755138174E+02 -0.51553945555E+02  0.49153615527E+02  0.15703376290E+03  0.12509000000E+03 0.  0.
<mgrwt>
<rscale>  2 0.45579515E+03</rscale>
<asrwt>0</asrwt>
<pdfrwt beam="1">  1       21 0.37476849E-01 0.45579515E+03</pdfrwt>
<pdfrwt beam="2">  1       21 0.29970812E-01 0.45579515E+03</pdfrwt>
<totfact> 0.67848131E+04</totfact>
</mgrwt>
</event>
<event>
 7    0  0.4685107E-002  0.4324996E+03  0.7546771E-02  0.1033073E+00
         21   -1    0    0  502  501  0.00000000000E+00  0.00000000000E+00  0.18748853493E+03  0.18748853493E+03  0.00000000000E+00 0. -1.
         21   -1    0    0  501  502 -0.00000000000E+00 -0.00000000000E+00 -0.24942312676E+03  0.24942312676E+03  0.00000000000E+00 0. -1.
      99926    2    1    2    0    0  0.71054273576E-14 -0.35527136788E-14 -0.61934591829E+02  0.43691166169E+03  0.43249960284E+03 0.  0.
      99925    2    3    3    0    0 -0.63107051834E+02  0.20321885081E+02 -0.10176954762E+03  0.28984089366E+03  0.26316387254E+03 0.  0.
         25    1    3    3    0    0  0.63107051834E+02 -0.20321885081E+02  0.39834955789E+02  0.14707076802E+03  0.12509000000E+03 0.  0.
         25    1    4    4    0    0 -0.17209688587E+02 -0.16916136912E+02 -0.19505667798E+02  0.12888098481E+03  0.12509000000E+03 0.  0.
         25    1    4    4    0    0 -0.45897363246E+02  0.37238021993E+02 -0.82263879820E+02  0.16095990885E+03  0.12509000000E+03 0.  0.
<mgrwt>
<rscale>  2 0.43249960E+03</rscale>
<asrwt>0</asrwt>
<pdfrwt beam="1">  1       21 0.27571844E-01 0.43249960E+03</pdfrwt>
<pdfrwt beam="2">  1       21 0.36679871E-01 0.43249960E+03</pdfrwt>
<totfact> 0.83984999E+04</totfact>
</mgrwt>
</event>
<event>
 7    0  0.4685107E-002  0.4545615E+03  0.7546771E-02  0.1026370E+00
         21   -1    0    0  502  501  0.00000000000E+00  0.00000000000E+00  0.78702024742E+02  0.78702024742E+02  0.00000000000E+00 0. -1.
         21   -1    0    0  501  502 -0.00000000000E+00 -0.00000000000E+00 -0.65635588841E+03  0.65635588841E+03  0.00000000000E+00 0. -1.
      99926    2    1    2    0    0  0.00000000000E+00  0.14210854715E-13 -0.57765386367E+03  0.73505791315E+03  0.45456149142E+03 0.  0.
      99925    2    3    3    0    0 -0.61594466679E+02  0.93915481690E+02 -0.34725530806E+03  0.44984746707E+03  0.26298763969E+03 0.  0.
         25    1    4    4    0    0 -0.35368731256E+02  0.46806506740E+01 -0.15619060440E+03  0.20326305282E+03  0.12509000000E+03 0.  0.
         25    1    3    3    0    0  0.61594466679E+02 -0.93915481690E+02 -0.23039855561E+03  0.28521044608E+03  0.12509000000E+03 0.  0.
         25    1    4    4    0    0 -0.26225735422E+02  0.89234831016E+02 -0.19106470366E+03  0.24658441425E+03  0.12509000000E+03 0.  0.
<mgrwt>
<rscale>  2 0.45456149E+03</rscale>
<asrwt>0</asrwt>
<pdfrwt beam="1">  1       21 0.11573827E-01 0.45456149E+03</pdfrwt>
<pdfrwt beam="2">  1       21 0.96522924E-01 0.45456149E+03</pdfrwt>
<totfact> 0.51216904E+04</totfact>
</mgrwt>
</event>
<event>
 7    0  0.4685107E-002  0.4530048E+03  0.7546771E-02  0.1026830E+00
         21   -1    0    0  502  501  0.00000000000E+00  0.00000000000E+00  0.96103631462E+02  0.96103631462E+02  0.00000000000E+00 0. -1.
         21   -1    0    0  501  502 -0.00000000000E+00 -0.00000000000E+00 -0.53383344737E+03  0.53383344737E+03  0.00000000000E+00 0. -1.
      99926    2    1    2    0    0  0.00000000000E+00  0.00000000000E+00 -0.43772981591E+03  0.62993707883E+03  0.45300478094E+03 0.  0.
      99925    2    3    3    0    0 -0.30816891921E+02  0.60463125384E+02 -0.39823285281E+03  0.48224486999E+03  0.26337281411E+03 0.  0.
         25    1    3    3    0    0  0.30816891921E+02 -0.60463125384E+02 -0.39496963094E+02  0.14769220884E+03  0.12509000000E+03 0.  0.
         25    1    4    4    0    0 -0.34745422759E+02  0.34737721094E+02 -0.13962087817E+03  0.19379228930E+03  0.12509000000E+03 0.  0.
         25    1    4    4    0    0  0.39285308378E+01  0.25725404290E+02 -0.25861197464E+03  0.28845258069E+03  0.12509000000E+03 0.  0.
<mgrwt>
<rscale>  2 0.45300478E+03</rscale>
<asrwt>0</asrwt>
<pdfrwt beam="1">  1       21 0.14132887E-01 0.45300478E+03</pdfrwt>
<pdfrwt beam="2">  1       21 0.78504919E-01 0.45300478E+03</pdfrwt>
<totfact> 0.57777018E+04</totfact>
</mgrwt>
</event>
<event>
 7    0  0.4685107E-002  0.4348420E+03  0.7546771E-02  0.1032341E+00
         21   -1    0    0  502  501  0.00000000000E+00  0.00000000000E+00  0.14714565089E+03  0.14714565089E+03  0.00000000000E+00 0. -1.
         21   -1    0    0  501  502 -0.00000000000E+00 -0.00000000000E+00 -0.32125911735E+03  0.32125911735E+03  0.00000000000E+00 0. -1.
      99926    2    1    2    0    0 -0.14210854715E-13  0.00000000000E+00 -0.17411346646E+03  0.46840476824E+03  0.43484195717E+03 0.  0.
      99925    2    3    3    0    0  0.89910409346E+02  0.18703693298E+02 -0.95854435251E+02  0.29460691464E+03  0.26300466069E+03 0.  0.
         25    1    4    4    0    0  0.28573175796E+02 -0.27648207922E+02 -0.36508398429E+02  0.13623957220E+03  0.12509000000E+03 0.  0.
         25    1    4    4    0    0  0.61337233550E+02  0.46351901220E+02 -0.59346036822E+02  0.15836734244E+03  0.12509000000E+03 0.  0.
         25    1    3    3    0    0 -0.89910409346E+02 -0.18703693298E+02 -0.78259031204E+02  0.17379785360E+03  0.12509000000E+03 0.  0.
<mgrwt>
<rscale>  2 0.43484196E+03</rscale>
<asrwt>0</asrwt>
<pdfrwt beam="1">  1       21 0.21639066E-01 0.43484196E+03</pdfrwt>
<pdfrwt beam="2">  1       21 0.47243988E-01 0.43484196E+03</pdfrwt>
<totfact> 0.79538602E+04</totfact>
</mgrwt>
</event>
<event>
 7    0  0.4685107E-002  0.4450483E+03  0.7546771E-02  0.1029209E+00
         21   -1    0    0  502  501  0.00000000000E+00  0.00000000000E+00  0.94592848739E+02  0.94592848739E+02  0.00000000000E+00 0. -1.
         21   -1    0    0  501  502 -0.00000000000E+00 -0.00000000000E+00 -0.52347500741E+03  0.52347500741E+03  0.00000000000E+00 0. -1.
      99926    2    1    2    0    0  0.14210854715E-13  0.00000000000E+00 -0.42888215867E+03  0.61806785615E+03  0.44504827691E+03 0.  0.
      99925    2    3    3    0    0  0.81509305268E+02 -0.37482972215E+02 -0.34389609847E+03  0.44223020779E+03  0.26316209851E+03 0.  0.
         25    1    3    3    0    0 -0.81509305268E+02  0.37482972215E+02 -0.84986060205E+02  0.17583764836E+03  0.12509000000E+03 0.  0.
         25    1    4    4    0    0  0.68927803341E+02 -0.87651748392E+01 -0.13493640077E+03  0.19668047874E+03  0.12509000000E+03 0.  0.
         25    1    4    4    0    0  0.12581501927E+02 -0.28717797376E+02 -0.20895969770E+03  0.24554972906E+03  0.12509000000E+03 0.  0.
<mgrwt>
<rscale>  2 0.44504828E+03</rscale>
<asrwt>0</asrwt>
<pdfrwt beam="1">  1       21 0.13910713E-01 0.44504828E+03</pdfrwt>
<pdfrwt beam="2">  1       21 0.76981617E-01 0.44504828E+03</pdfrwt>
<totfact> 0.62335749E+04</totfact>
</mgrwt>
</event>
<event>
 7    0  0.4685107E-002  0.4501226E+03  0.7546771E-02  0.1027685E+00
         21   -1    0    0  502  501  0.00000000000E+00  0.00000000000E+00  0.91095659634E+03  0.91095659634E+03  0.00000000000E+00 0. -1.
         21   -1    0    0  501  502 -0.00000000000E+00 -0.00000000000E+00 -0.55603736829E+02  0.55603736829E+02  0.00000000000E+00 0. -1.
      99926    2    1    2    0    0  0.00000000000E+00  0.00000000000E+00  0.85535285951E+03  0.96656033317E+03  0.45012260928E+03 0.  0.
      99925    2    3    3    0    0  0.35226138366E+02  0.83671180883E+02  0.41281247949E+03  0.49780534025E+03  0.26297198753E+03 0.  0.
         25    1    4    4    0    0  0.45088502958E+02  0.17200172485E+02  0.23129213517E+03  0.26734318567E+03  0.12509000000E+03 0.  0.
         25    1    3    3    0    0 -0.35226138366E+02 -0.83671180883E+02  0.44254038002E+03  0.46875499291E+03  0.12509000000E+03 0.  0.
         25    1    4    4    0    0 -0.98623645923E+01  0.66471008398E+02  0.18152034431E+03  0.23046215458E+03  0.12509000000E+03 0.  0.
<mgrwt>
<rscale>  2 0.45012261E+03</rscale>
<asrwt>0</asrwt>
<pdfrwt beam="1">  1       21 0.13396420E+00 0.45012261E+03</pdfrwt>
<pdfrwt beam="2">  1       21 0.81770207E-02 0.45012261E+03</pdfrwt>
<totfact> 0.42058471E+04</totfact>
</mgrwt>
</event>
<event>
 7    0  0.4685107E-002  0.4553384E+03  0.7546771E-02  0.1026142E+00
         21   -1    0    0  502  501  0.00000000000E+00  0.00000000000E+00  0.97568175387E+03  0.97568175387E+03  0.00000000000E+00 0.  1.
         21   -1    0    0  501  502 -0.00000000000E+00 -0.00000000000E+00 -0.53125165023E+02  0.53125165023E+02  0.00000000000E+00 0.  1.
      99926    2    1    2    0    0  0.14210854715E-13  0.00000000000E+00  0.92255658885E+03  0.10288069189E+04  0.45533835413E+03 0.  0.
      99925    2    3    3    0    0 -0.74417701111E+02  0.83413435626E+02  0.53654445626E+03  0.60791658866E+03  0.26303389466E+03 0.  0.
         25    1    4    4    0    0 -0.64150938857E+02  0.24900848060E+02  0.21819923450E+03  0.26075622567E+03  0.12509000000E+03 0.  0.
         25    1    3    3    0    0  0.74417701111E+02 -0.83413435626E+02  0.38601213259E+03  0.42089033024E+03  0.12509000000E+03 0.  0.
         25    1    4    4    0    0 -0.10266762254E+02  0.58512587566E+02  0.31834522176E+03  0.34716036298E+03  0.12509000000E+03 0.  0.
<mgrwt>
<rscale>  2 0.45533835E+03</rscale>
<asrwt>0</asrwt>
<pdfrwt beam="1">  1       21 0.14348260E+00 0.45533835E+03</pdfrwt>
<pdfrwt beam="2">  1       21 0.78125249E-02 0.45533835E+03</pdfrwt>
<totfact> 0.37964390E+04</totfact>
</mgrwt>
</event>
<event>
 7    0  0.4685107E-002  0.4511000E+03  0.7546771E-02  0.1027395E+00
         21   -1    0    0  502  501  0.00000000000E+00  0.00000000000E+00  0.16493130605E+03  0.16493130605E+03  0.00000000000E+00 0. -1.
         21   -1    0    0  501  502 -0.00000000000E+00 -0.00000000000E+00 -0.30844842071E+03  0.30844842071E+03  0.00000000000E+00 0. -1.
      99926    2    1    2    0    0  0.00000000000E+00 -0.71054273576E-14 -0.14351711467E+03  0.47337972676E+03  0.45109999280E+03 0.  0.
      99925    2    3    3    0    0 -0.78820691526E+02 -0.39735034815E+02 -0.24108085394E+02  0.27922103194E+03  0.26380221851E+03 0.  0.
         25    1    3    3    0    0  0.78820691526E+02  0.39735034815E+02 -0.11940902927E+03  0.19415869482E+03  0.12509000000E+03 0.  0.
         25    1    4    4    0    0 -0.18753908789E+02 -0.38171700494E+02 -0.43501208324E+02  0.13909942861E+03  0.12509000000E+03 0.  0.
         25    1    4    4    0    0 -0.60066782737E+02 -0.15633343206E+01  0.19393122931E+02  0.14012160333E+03  0.12509000000E+03 0.  0.
<mgrwt>
<rscale>  2 0.45109999E+03</rscale>
<asrwt>0</asrwt>
<pdfrwt beam="1">  1       21 0.24254604E-01 0.45109999E+03</pdfrwt>
<pdfrwt beam="2">  1       21 0.45360061E-01 0.45109999E+03</pdfrwt>
<totfact> 0.69305607E+04</totfact>
</mgrwt>
</event>
<event>
 7    0  0.4685107E-002  0.4571652E+03  0.7546771E-02  0.1025607E+00
         21   -1    0    0  502  501  0.00000000000E+00  0.00000000000E+00  0.18666022166E+04  0.18666022166E+04  0.00000000000E+00 0.  1.
         21   -1    0    0  501  502 -0.00000000000E+00 -0.00000000000E+00 -0.27992042590E+02  0.27992042590E+02  0.00000000000E+00 0.  1.
      99926    2    1    2    0    0  0.88817841970E-15  0.14210854715E-13  0.18386101740E+04  0.18945942592E+04  0.45716521628E+03 0.  0.
      99925    2    3    3    0    0 -0.48910458331E+01 -0.11022763947E+03  0.10175162856E+04  0.10567298689E+04  0.26299157692E+03 0.  0.
         25    1    3    3    0    0  0.48910458331E+01  0.11022763947E+03  0.82109388840E+03  0.83786439028E+03  0.12509000000E+03 0.  0.
         25    1    4    4    0    0 -0.11556012671E+02 -0.12460546493E+02  0.44004248803E+03  0.45779220834E+03  0.12509000000E+03 0.  0.
         25    1    4    4    0    0  0.66649668374E+01 -0.97767092975E+02  0.57747379755E+03  0.59893766053E+03  0.12509000000E+03 0.  0.
<mgrwt>
<rscale>  2 0.45716522E+03</rscale>
<asrwt>0</asrwt>
<pdfrwt beam="1">  1       21 0.27450024E+00 0.45716522E+03</pdfrwt>
<pdfrwt beam="2">  1       21 0.41164781E-02 0.45716522E+03</pdfrwt>
<totfact> 0.15250110E+04</totfact>
</mgrwt>
</event>
<event>
 7    0  0.4685107E-002  0.4323730E+03  0.7546771E-02  0.1033113E+00
         21   -1    0    0  502  501  0.00000000000E+00  0.00000000000E+00  0.11336173795E+03  0.11336173795E+03  0.00000000000E+00 0.  1.
         21   -1    0    0  501  502 -0.00000000000E+00 -0.00000000000E+00 -0.41227839425E+03  0.41227839425E+03  0.00000000000E+00 0.  1.
      99926    2    1    2    0    0 -0.71054273576E-14  0.35527136788E-14 -0.29891665630E+03  0.52564013219E+03  0.43237296534E+03 0.  0.
      99925    2    3    3    0    0  0.59472461921E+02 -0.26185832616E+02 -0.11593474368E+03  0.29465840131E+03  0.26298295974E+03 0.  0.
         25    1    3    3    0    0 -0.59472461921E+02  0.26185832616E+02 -0.18298191262E+03  0.23098173088E+03  0.12509000000E+03 0.  0.
         25    1    4    4    0    0  0.14418221375E+02 -0.20212070520E+01 -0.16777039119E+02  0.12704702880E+03  0.12509000000E+03 0.  0.
         25    1    4    4    0    0  0.45054240546E+02 -0.24164625564E+02 -0.99157704563E+02  0.16761137251E+03  0.12509000000E+03 0.  0.
<mgrwt>
<rscale>  2 0.43237297E+03</rscale>
<asrwt>0</asrwt>
<pdfrwt beam="1">  1       21 0.16670844E-01 0.43237297E+03</pdfrwt>
<pdfrwt beam="2">  1       21 0.60629176E-01 0.43237297E+03</pdfrwt>
<totfact> 0.76278334E+04</totfact>
</mgrwt>
</event>
<event>
 7    0  0.4685107E-002  0.4488538E+03  0.7546771E-02  0.1028064E+00
         21   -1    0    0  502  501  0.00000000000E+00  0.00000000000E+00  0.45460550828E+02  0.45460550828E+02  0.00000000000E+00 0.  1.
         21   -1    0    0  501  502 -0.00000000000E+00 -0.00000000000E+00 -0.11079372576E+04  0.11079372576E+04  0.00000000000E+00 0.  1.
      99926    2    1    2    0    0  0.00000000000E+00  0.00000000000E+00 -0.10624767068E+04  0.11533978085E+04  0.44885382037E+03 0.  0.
      99925    2    3    3    0    0  0.96818443668E+02 -0.48637524420E+01 -0.78940366789E+03  0.83778117423E+03  0.26329010215E+03 0.  0.
         25    1    4    4    0    0  0.53547928143E+02 -0.31166247571E+01 -0.27809384981E+03  0.30961393922E+03  0.12509000000E+03 0.  0.
         25    1    4    4    0    0  0.43270515525E+02 -0.17471276849E+01 -0.51130981808E+03  0.52816723501E+03  0.12509000000E+03 0.  0.
         25    1    3    3    0    0 -0.96818443668E+02  0.48637524420E+01 -0.27307303891E+03  0.31561663423E+03  0.12509000000E+03 0.  0.
<mgrwt>
<rscale>  2 0.44885382E+03</rscale>
<asrwt>0</asrwt>
<pdfrwt beam="1">  1       21 0.66853750E-02 0.44885382E+03</pdfrwt>
<pdfrwt beam="2">  1       21 0.16293195E+00 0.44885382E+03</pdfrwt>
<totfact> 0.35331383E+04</totfact>
</mgrwt>
</event>
<event>
 7    0  0.4685107E-002  0.4538101E+03  0.7546771E-02  0.1026592E+00
         21   -1    0    0  502  501  0.00000000000E+00  0.00000000000E+00  0.35638116551E+03  0.35638116551E+03  0.00000000000E+00 0. -1.
         21   -1    0    0  501  502 -0.00000000000E+00 -0.00000000000E+00 -0.14446865921E+03  0.14446865921E+03  0.00000000000E+00 0. -1.
      99926    2    1    2    0    0  0.00000000000E+00  0.00000000000E+00  0.21191250630E+03  0.50084982472E+03  0.45381013276E+03 0.  0.
      99925    2    3    3    0    0  0.47651523550E+02  0.98779078518E+02  0.15932155856E+03  0.32637550015E+03  0.26288711270E+03 0.  0.
         25    1    3    3    0    0 -0.47651523550E+02 -0.98779078518E+02  0.52590947736E+02  0.17447432457E+03  0.12509000000E+03 0.  0.
         25    1    4    4    0    0  0.10588308222E+02  0.23180863905E+02  0.39050219254E+02  0.13349866084E+03  0.12509000000E+03 0.  0.
         25    1    4    4    0    0  0.37063215328E+02  0.75598214613E+02  0.12027133931E+03  0.19287683931E+03  0.12509000000E+03 0.  0.
<mgrwt>
<rscale>  2 0.45381013E+03</rscale>
<asrwt>0</asrwt>
<pdfrwt beam="1">  1       21 0.52408995E-01 0.45381013E+03</pdfrwt>
<pdfrwt beam="2">  1       21 0.21245391E-01 0.45381013E+03</pdfrwt>
<totfact> 0.65830575E+04</totfact>
</mgrwt>
</event>
<event>
 7    0  0.4685107E-002  0.4558774E+03  0.7546771E-02  0.1025984E+00
         21   -1    0    0  502  501  0.00000000000E+00  0.00000000000E+00  0.76075592813E+02  0.76075592813E+02  0.00000000000E+00 0.  1.
         21   -1    0    0  501  502 -0.00000000000E+00 -0.00000000000E+00 -0.68295292927E+03  0.68295292927E+03  0.00000000000E+00 0.  1.
      99926    2    1    2    0    0  0.00000000000E+00  0.00000000000E+00 -0.60687733646E+03  0.75902852208E+03  0.45587739123E+03 0.  0.
      99925    2    3    3    0    0  0.65130125533E+02  0.83633876815E+02 -0.45156405815E+03  0.53318282006E+03  0.26293965542E+03 0.  0.
         25    1    3    3    0    0 -0.65130125533E+02 -0.83633876815E+02 -0.15531327831E+03  0.22584570202E+03  0.12509000000E+03 0.  0.
         25    1    4    4    0    0  0.17973814483E+02  0.14539469202E+02 -0.15410734780E+03  0.19982751792E+03  0.12509000000E+03 0.  0.
         25    1    4    4    0    0  0.47156311050E+02  0.69094407613E+02 -0.29745671035E+03  0.33335530214E+03  0.12509000000E+03 0.  0.
<mgrwt>
<rscale>  2 0.45587739E+03</rscale>
<asrwt>0</asrwt>
<pdfrwt beam="1">  1       21 0.11187586E-01 0.45587739E+03</pdfrwt>
<pdfrwt beam="2">  1       21 0.10043426E+00 0.45587739E+03</pdfrwt>
<totfact> 0.49468214E+04</totfact>
</mgrwt>
</event>
<event>
 7    0  0.4685107E-002  0.4065660E+03  0.7546771E-02  0.1041530E+00
         21   -1    0    0  502  501  0.00000000000E+00  0.00000000000E+00  0.12924934936E+03  0.12924934936E+03  0.00000000000E+00 0.  1.
         21   -1    0    0  501  502 -0.00000000000E+00 -0.00000000000E+00 -0.31972286188E+03  0.31972286188E+03  0.00000000000E+00 0.  1.
      99926    2    1    2    0    0  0.00000000000E+00  0.00000000000E+00 -0.19047351251E+03  0.44897221124E+03  0.40656596942E+03 0.  0.
      99925    2    3    3    0    0 -0.15105835879E+02 -0.21066470003E+02 -0.18217084825E+03  0.32095492815E+03  0.26297122564E+03 0.  0.
         25    1    4    4    0    0  0.35946499259E+01  0.15662290057E+02 -0.12436528901E+03  0.17712273160E+03  0.12509000000E+03 0.  0.
         25    1    4    4    0    0 -0.18700485805E+02 -0.36728760059E+02 -0.57805559243E+02  0.14383219655E+03  0.12509000000E+03 0.  0.
         25    1    3    3    0    0  0.15105835879E+02  0.21066470003E+02 -0.83026642606E+01  0.12801728309E+03  0.12509000000E+03 0.  0.
<mgrwt>
<rscale>  2 0.40656597E+03</rscale>
<asrwt>0</asrwt>
<pdfrwt beam="1">  1       21 0.19007257E-01 0.40656597E+03</pdfrwt>
<pdfrwt beam="2">  1       21 0.47018068E-01 0.40656597E+03</pdfrwt>
<totfact> 0.10342930E+05</totfact>
</mgrwt>
</event>
<event>
 7    0  0.4685107E-002  0.4685499E+03  0.7546771E-02  0.1022330E+00
         21   -1    0    0  502  501  0.00000000000E+00  0.00000000000E+00  0.57228079931E+02  0.57228079931E+02  0.00000000000E+00 0.  1.
         21   -1    0    0  501  502 -0.00000000000E+00 -0.00000000000E+00 -0.95905287630E+03  0.95905287630E+03  0.00000000000E+00 0.  1.
      99926    2    1    2    0    0  0.00000000000E+00  0.00000000000E+00 -0.90182479637E+03  0.10162809562E+04  0.46854991052E+03 0.  0.
      99925    2    3    3    0    0 -0.65717092226E+02  0.48137439710E+02 -0.76794942740E+03  0.81576643848E+03  0.26285473136E+03 0.  0.
         25    1    4    4    0    0 -0.26608092459E+02  0.13381608725E+02 -0.48877598080E+03  0.50540728680E+03  0.12509000000E+03 0.  0.
         25    1    3    3    0    0  0.65717092226E+02 -0.48137439710E+02 -0.13387536898E+03  0.20051451776E+03  0.12509000000E+03 0.  0.
         25    1    4    4    0    0 -0.39108999767E+02  0.34755830985E+02 -0.27917344659E+03  0.31035915168E+03  0.12509000000E+03 0.  0.
<mgrwt>
<rscale>  2 0.46854991E+03</rscale>
<asrwt>0</asrwt>
<pdfrwt beam="1">  1       21 0.84158947E-02 0.46854991E+03</pdfrwt>
<pdfrwt beam="2">  1       21 0.14103718E+00 0.46854991E+03</pdfrwt>
<totfact> 0.34718116E+04</totfact>
</mgrwt>
</event>
<event>
 7    0  0.4685107E-002  0.4531070E+03  0.7546771E-02  0.1026800E+00
         21   -1    0    0  502  501  0.00000000000E+00  0.00000000000E+00  0.45680290996E+03  0.45680290996E+03  0.00000000000E+00 0.  1.
         21   -1    0    0  501  502 -0.00000000000E+00 -0.00000000000E+00 -0.11236024963E+03  0.11236024963E+03  0.00000000000E+00 0.  1.
      99926    2    1    2    0    0  0.00000000000E+00 -0.88817841970E-15  0.34444266033E+03  0.56916315959E+03  0.45310700279E+03 0.  0.
      99925    2    3    3    0    0 -0.72776349331E+02 -0.45742328062E+01  0.11139240083E+03  0.29479615686E+03  0.26301936528E+03 0.  0.
         25    1    3    3    0    0  0.72776349331E+02  0.45742328062E+01  0.23305025951E+03  0.27436700272E+03  0.12509000000E+03 0.  0.
         25    1    4    4    0    0  0.10878705831E+01  0.16248098986E+02  0.54009446064E+02  0.13722139974E+03  0.12509000000E+03 0.  0.
         25    1    4    4    0    0 -0.73864219914E+02 -0.20822331792E+02  0.57382954762E+02  0.15757475712E+03  0.12509000000E+03 0.  0.
<mgrwt>
<rscale>  2 0.45310700E+03</rscale>
<asrwt>0</asrwt>
<pdfrwt beam="1">  1       21 0.67176898E-01 0.45310700E+03</pdfrwt>
<pdfrwt beam="2">  1       21 0.16523566E-01 0.45310700E+03</pdfrwt>
<totfact> 0.61533657E+04</totfact>
</mgrwt>
</event>
<event>
 7    0  0.4685107E-002  0.4595781E+03  0.7546771E-02  0.1024904E+00
         21   -1    0    0  502  501  0.00000000000E+00  0.00000000000E+00  0.26336098954E+03  0.26336098954E+03  0.00000000000E+00 0. -1.
         21   -1    0    0  501  502 -0.00000000000E+00 -0.00000000000E+00 -0.20049671415E+03  0.20049671415E+03  0.00000000000E+00 0. -1.
      99926    2    1    2    0    0 -0.35527136788E-14  0.00000000000E+00  0.62864275388E+02  0.46385770369E+03  0.45957812410E+03 0.  0.
      99925    2    3    3    0    0 -0.22319968748E+02 -0.95336236444E+02  0.10477800744E+03  0.29956696135E+03  0.26301093989E+03 0.  0.
         25    1    4    4    0    0  0.25735099958E+02 -0.49679814515E+02  0.33498389849E+02  0.14106746458E+03  0.12509000000E+03 0.  0.
         25    1    3    3    0    0  0.22319968748E+02  0.95336236444E+02 -0.41913732050E+02  0.16429074234E+03  0.12509000000E+03 0.  0.
         25    1    4    4    0    0 -0.48055068705E+02 -0.45656421930E+02  0.71279617589E+02  0.15849949677E+03  0.12509000000E+03 0.  0.
<mgrwt>
<rscale>  2 0.45957812E+03</rscale>
<asrwt>0</asrwt>
<pdfrwt beam="1">  1       21 0.38729557E-01 0.45957812E+03</pdfrwt>
<pdfrwt beam="2">  1       21 0.29484811E-01 0.45957812E+03</pdfrwt>
<totfact> 0.65476951E+04</totfact>
</mgrwt>
</event>
<event>
 7    0  0.4685107E-002  0.4629792E+03  0.7546771E-02  0.1023921E+00
         21   -1    0    0  502  501  0.00000000000E+00  0.00000000000E+00  0.23692707921E+04  0.23692707921E+04  0.00000000000E+00 0.  1.
         21   -1    0    0  501  502 -0.00000000000E+00 -0.00000000000E+00 -0.22617689805E+02  0.22617689805E+02  0.00000000000E+00 0.  1.
      99926    2    1    2    0    0  0.00000000000E+00  0.00000000000E+00  0.23466531023E+04  0.23918884819E+04  0.46297918675E+03 0.  0.
      99925    2    3    3    0    0 -0.87288796544E+02 -0.73858679721E+02  0.12696545681E+04  0.13016372314E+04  0.26298730231E+03 0.  0.
         25    1    4    4    0    0 -0.21910823151E+02  0.10038198110E+01  0.56466614179E+03  0.57877150207E+03  0.12509000000E+03 0.  0.
         25    1    3    3    0    0  0.87288796544E+02  0.73858679721E+02  0.10769985342E+04  0.10902512505E+04  0.12509000000E+03 0.  0.
         25    1    4    4    0    0 -0.65377973393E+02 -0.74862499532E+02  0.70498842634E+03  0.72286572931E+03  0.12509000000E+03 0.  0.
<mgrwt>
<rscale>  2 0.46297919E+03</rscale>
<asrwt>0</asrwt>
<pdfrwt beam="1">  1       21 0.34842200E+00 0.46297919E+03</pdfrwt>
<pdfrwt beam="2">  1       21 0.33261325E-02 0.46297919E+03</pdfrwt>
<totfact> 0.78066419E+03</totfact>
</mgrwt>
</event>
<event>
 7    0  0.4685107E-002  0.4533513E+03  0.7546771E-02  0.1026727E+00
         21   -1    0    0  502  501  0.00000000000E+00  0.00000000000E+00  0.28032767910E+03  0.28032767910E+03  0.00000000000E+00 0. -1.
         21   -1    0    0  501  502 -0.00000000000E+00 -0.00000000000E+00 -0.18329207711E+03  0.18329207711E+03  0.00000000000E+00 0. -1.
      99926    2    1    2    0    0  0.00000000000E+00  0.00000000000E+00  0.97035601988E+02  0.46361975621E+03  0.45335126590E+03 0.  0.
      99925    2    3    3    0    0  0.70827337985E+02 -0.55975064440E+02 -0.59796443558E+01  0.27812213163E+03  0.26299514123E+03 0.  0.
         25    1    3    3    0    0 -0.70827337985E+02  0.55975064440E+02  0.10301524634E+03  0.18549762458E+03  0.12509000000E+03 0.  0.
         25    1    4    4    0    0  0.29326462251E+02 -0.46635940819E+02  0.32525775499E+02  0.14050048589E+03  0.12509000000E+03 0.  0.
         25    1    4    4    0    0  0.41500875733E+02 -0.93391236208E+01 -0.38505419855E+02  0.13762164574E+03  0.12509000000E+03 0.  0.
<mgrwt>
<rscale>  2 0.45335127E+03</rscale>
<asrwt>0</asrwt>
<pdfrwt beam="1">  1       21 0.41224659E-01 0.45335127E+03</pdfrwt>
<pdfrwt beam="2">  1       21 0.26954717E-01 0.45335127E+03</pdfrwt>
<totfact> 0.68809302E+04</totfact>
</mgrwt>
</event>
<event>
 7    0  0.4685107E-002  0.4503694E+03  0.7546771E-02  0.1027612E+00
         21   -1    0    0  502  501  0.00000000000E+00  0.00000000000E+00  0.70023941010E+03  0.70023941010E+03  0.00000000000E+00 0.  1.
         21   -1    0    0  501  502 -0.00000000000E+00 -0.00000000000E+00 -0.72415452950E+02  0.72415452950E+02  0.00000000000E+00 0.  1.
      99926    2    1    2    0    0  0.00000000000E+00  0.00000000000E+00  0.62782395715E+03  0.77265486305E+03  0.45036942195E+03 0.  0.
      99925    2    3    3    0    0 -0.18775059106E+02  0.61617736519E+02  0.24576361318E+03  0.36551009416E+03  0.26277105448E+03 0.  0.
         25    1    3    3    0    0  0.18775059106E+02 -0.61617736519E+02  0.38206034398E+03  0.40714476889E+03  0.12509000000E+03 0.  0.
         25    1    4    4    0    0 -0.34764709463E+01  0.19433312589E+02  0.68546948083E+02  0.14399976278E+03  0.12509000000E+03 0.  0.
         25    1    4    4    0    0 -0.15298588160E+02  0.42184423930E+02  0.17721666509E+03  0.22151033138E+03  0.12509000000E+03 0.  0.
<mgrwt>
<rscale>  2 0.45036942E+03</rscale>
<asrwt>0</asrwt>
<pdfrwt beam="1">  1       21 0.10297638E+00 0.45036942E+03</pdfrwt>
<pdfrwt beam="2">  1       21 0.10649332E-01 0.45036942E+03</pdfrwt>
<totfact> 0.50942552E+04</totfact>
</mgrwt>
</event>
<event>
 7    0  0.4685107E-002  0.4514192E+03  0.7546771E-02  0.1027300E+00
         21   -1    0    0  502  501  0.00000000000E+00  0.00000000000E+00  0.20868045775E+03  0.20868045775E+03  0.00000000000E+00 0. -1.
         21   -1    0    0  501  502 -0.00000000000E+00 -0.00000000000E+00 -0.24412841496E+03  0.24412841496E+03  0.00000000000E+00 0. -1.
      99926    2    1    2    0    0  0.00000000000E+00  0.00000000000E+00 -0.35447957206E+02  0.45280887271E+03  0.45141922593E+03 0.  0.
      99925    2    3    3    0    0  0.96943368387E+02 -0.49921316942E+02 -0.34848523351E+02  0.28686303221E+03  0.26303198495E+03 0.  0.
         25    1    3    3    0    0 -0.96943368387E+02  0.49921316942E+02 -0.59943385430E+00  0.16594584050E+03  0.12509000000E+03 0.  0.
         25    1    4    4    0    0  0.41234588848E+02 -0.54222777305E+02  0.97922078086E+01  0.14277183311E+03  0.12509000000E+03 0.  0.
         25    1    4    4    0    0  0.55708779539E+02  0.43014603627E+01 -0.44640731160E+02  0.14409119910E+03  0.12509000000E+03 0.  0.
<mgrwt>
<rscale>  2 0.45141923E+03</rscale>
<asrwt>0</asrwt>
<pdfrwt beam="1">  1       21 0.30688303E-01 0.45141923E+03</pdfrwt>
<pdfrwt beam="2">  1       21 0.35901237E-01 0.45141923E+03</pdfrwt>
<totfact> 0.70705200E+04</totfact>
</mgrwt>
</event>
<event>
 7    0  0.4685107E-002  0.4455564E+03  0.7546771E-02  0.1029056E+00
         21   -1    0    0  502  501  0.00000000000E+00  0.00000000000E+00  0.81627077172E+02  0.81627077172E+02  0.00000000000E+00 0.  1.
         21   -1    0    0  501  502 -0.00000000000E+00 -0.00000000000E+00 -0.60801053719E+03  0.60801053719E+03  0.00000000000E+00 0.  1.
      99926    2    1    2    0    0 -0.35527136788E-14  0.17763568394E-14 -0.52638346002E+03  0.68963761436E+03  0.44555638494E+03 0.  0.
      99925    2    3    3    0    0  0.12521814504E+02 -0.98322616551E+01 -0.49340745849E+03  0.55929808089E+03  0.26288772127E+03 0.  0.
         25    1    4    4    0    0 -0.25173194095E+02 -0.13515183703E+01 -0.19027496867E+03  0.22910169817E+03  0.12509000000E+03 0.  0.
         25    1    4    4    0    0  0.37695008599E+02 -0.84807432848E+01 -0.30313248982E+03  0.33019638272E+03  0.12509000000E+03 0.  0.
         25    1    3    3    0    0 -0.12521814504E+02  0.98322616551E+01 -0.32976001531E+02  0.13033953347E+03  0.12509000000E+03 0.  0.
<mgrwt>
<rscale>  2 0.44555638E+03</rscale>
<asrwt>0</asrwt>
<pdfrwt beam="1">  1       21 0.12003982E-01 0.44555638E+03</pdfrwt>
<pdfrwt beam="2">  1       21 0.89413315E-01 0.44555638E+03</pdfrwt>
<totfact> 0.57635854E+04</totfact>
</mgrwt>
</event>
<event>
 7    0  0.4685107E-002  0.4519531E+03  0.7546771E-02  0.1027141E+00
         21   -1    0    0  502  501  0.00000000000E+00  0.00000000000E+00  0.31453945619E+03  0.31453945619E+03  0.00000000000E+00 0.  1.
         21   -1    0    0  501  502 -0.00000000000E+00 -0.00000000000E+00 -0.16234973509E+03  0.16234973509E+03  0.00000000000E+00 0.  1.
      99926    2    1    2    0    0  0.00000000000E+00  0.71054273576E-14  0.15218972111E+03  0.47688919128E+03  0.45195308335E+03 0.  0.
      99925    2    3    3    0    0 -0.74988124901E+02 -0.33432828929E+02  0.17369784705E+03  0.32572345274E+03  0.26302823550E+03 0.  0.
         25    1    3    3    0    0  0.74988124901E+02  0.33432828929E+02 -0.21508125942E+02  0.15116573854E+03  0.12509000000E+03 0.  0.
         25    1    4    4    0    0 -0.52171575962E+02  0.38865862773E+01  0.50208672396E+02  0.14458699034E+03  0.12509000000E+03 0.  0.
         25    1    4    4    0    0 -0.22816548939E+02 -0.37319415206E+02  0.12348917465E+03  0.18113646241E+03  0.12509000000E+03 0.  0.
<mgrwt>
<rscale>  2 0.45195308E+03</rscale>
<asrwt>0</asrwt>
<pdfrwt beam="1">  1       21 0.46255803E-01 0.45195308E+03</pdfrwt>
<pdfrwt beam="2">  1       21 0.23874961E-01 0.45195308E+03</pdfrwt>
<totfact> 0.68570585E+04</totfact>
</mgrwt>
</event>
<event>
 7    0  0.4685107E-002  0.4549659E+03  0.7546771E-02  0.1026251E+00
         21   -1    0    0  502  501  0.00000000000E+00  0.00000000000E+00  0.14526458769E+03  0.14526458769E+03  0.00000000000E+00 0. -1.
         21   -1    0    0  501  502 -0.00000000000E+00 -0.00000000000E+00 -0.35623614790E+03  0.35623614790E+03  0.00000000000E+00 0. -1.
      99926    2    1    2    0    0 -0.14210854715E-13 -0.17763568394E-14 -0.21097156021E+03  0.50150073558E+03  0.45496592024E+03 0.  0.
      99925    2    3    3    0    0  0.11045533570E+03  0.35805614481E+01 -0.15944962165E+03  0.32681467473E+03  0.26300275316E+03 0.  0.
         25    1    4    4    0    0  0.29666941044E+02  0.33210441448E+02 -0.63258249659E+02  0.14707880562E+03  0.12509000000E+03 0.  0.
         25    1    3    3    0    0 -0.11045533570E+03 -0.35805614481E+01 -0.51521938559E+02  0.17468606086E+03  0.12509000000E+03 0.  0.
         25    1    4    4    0    0  0.80788394656E+02 -0.29629880000E+02 -0.96191371987E+02  0.17973586911E+03  0.12509000000E+03 0.  0.
<mgrwt>
<rscale>  2 0.45496592E+03</rscale>
<asrwt>0</asrwt>
<pdfrwt beam="1">  1       21 0.21362439E-01 0.45496592E+03</pdfrwt>
<pdfrwt beam="2">  1       21 0.52387669E-01 0.45496592E+03</pdfrwt>
<totfact> 0.65182991E+04</totfact>
</mgrwt>
</event>
<event>
 7    0  0.4685107E-002  0.4210285E+03  0.7546771E-02  0.1036732E+00
         21   -1    0    0  502  501  0.00000000000E+00  0.00000000000E+00  0.57453925361E+03  0.57453925361E+03  0.00000000000E+00 0.  1.
         21   -1    0    0  501  502 -0.00000000000E+00 -0.00000000000E+00 -0.77133531128E+02  0.77133531128E+02  0.00000000000E+00 0.  1.
      99926    2    1    2    0    0 -0.88817841970E-15  0.00000000000E+00  0.49740572248E+03  0.65167278474E+03  0.42102846176E+03 0.  0.
      99925    2    3    3    0    0  0.44588643093E+01 -0.71118771733E+02  0.27811824944E+03  0.38935186469E+03  0.26299686823E+03 0.  0.
         25    1    3    3    0    0 -0.44588643093E+01  0.71118771733E+02  0.21928747304E+03  0.26232092005E+03  0.12509000000E+03 0.  0.
         25    1    4    4    0    0  0.42619108668E+02 -0.39359773634E+02  0.14237108828E+03  0.19819842351E+03  0.12509000000E+03 0.  0.
         25    1    4    4    0    0 -0.38160244359E+02 -0.31758998100E+02  0.13574716116E+03  0.19115344118E+03  0.12509000000E+03 0.  0.
<mgrwt>
<rscale>  2 0.42102846E+03</rscale>
<asrwt>0</asrwt>
<pdfrwt beam="1">  1       21 0.84491064E-01 0.42102846E+03</pdfrwt>
<pdfrwt beam="2">  1       21 0.11343167E-01 0.42102846E+03</pdfrwt>
<totfact> 0.73363314E+04</totfact>
</mgrwt>
</event>
<event>
 7    0  0.4685107E-002  0.4557720E+03  0.7546771E-02  0.1026015E+00
         21   -1    0    0  502  501  0.00000000000E+00  0.00000000000E+00  0.44100184952E+02  0.44100184952E+02  0.00000000000E+00 0. -1.
         21   -1    0    0  501  502 -0.00000000000E+00 -0.00000000000E+00 -0.11775920473E+04  0.11775920473E+04  0.00000000000E+00 0. -1.
      99926    2    1    2    0    0  0.88817841970E-15  0.88817841970E-15 -0.11334918624E+04  0.12216922323E+04  0.45577199161E+03 0.  0.
      99925    2    3    3    0    0 -0.72411757049E+01 -0.31475150922E+01 -0.40843126273E+03  0.48587790601E+03  0.26305684120E+03 0.  0.
         25    1    3    3    0    0  0.72411757049E+01  0.31475150922E+01 -0.72506059962E+03  0.73581432624E+03  0.12509000000E+03 0.  0.
         25    1    4    4    0    0 -0.20684254753E+02  0.14600262474E+02 -0.26586285355E+03  0.29490942857E+03  0.12509000000E+03 0.  0.
         25    1    4    4    0    0  0.13443079048E+02 -0.17747777566E+02 -0.14256840918E+03  0.19096847745E+03  0.12509000000E+03 0.  0.
<mgrwt>
<rscale>  2 0.45577199E+03</rscale>
<asrwt>0</asrwt>
<pdfrwt beam="1">  1       21 0.64853222E-02 0.45577199E+03</pdfrwt>
<pdfrwt beam="2">  1       21 0.17317528E+00 0.45577199E+03</pdfrwt>
<totfact> 0.31287324E+04</totfact>
</mgrwt>
</event>
<event>
 7    0  0.4685107E-002  0.4538652E+03  0.7546771E-02  0.1026576E+00
         21   -1    0    0  502  501  0.00000000000E+00  0.00000000000E+00  0.99511512273E+02  0.99511512273E+02  0.00000000000E+00 0. -1.
         21   -1    0    0  501  502 -0.00000000000E+00 -0.00000000000E+00 -0.51751199826E+03  0.51751199826E+03  0.00000000000E+00 0. -1.
      99926    2    1    2    0    0 -0.14210854715E-13  0.00000000000E+00 -0.41800048599E+03  0.61702351053E+03  0.45386518512E+03 0.  0.
      99925    2    3    3    0    0 -0.75433516278E+02  0.70641260414E+02 -0.32235411226E+03  0.42867240234E+03  0.26299705661E+03 0.  0.
         25    1    3    3    0    0  0.75433516278E+02 -0.70641260414E+02 -0.95646373725E+02  0.18835110819E+03  0.12509000000E+03 0.  0.
         25    1    4    4    0    0 -0.72958964052E+02  0.59161512637E+02 -0.16600442676E+03  0.22809663043E+03  0.12509000000E+03 0.  0.
         25    1    4    4    0    0 -0.24745522268E+01  0.11479747777E+02 -0.15634968551E+03  0.20057577191E+03  0.12509000000E+03 0.  0.
<mgrwt>
<rscale>  2 0.45386519E+03</rscale>
<asrwt>0</asrwt>
<pdfrwt beam="1">  1       21 0.14634046E-01 0.45386519E+03</pdfrwt>
<pdfrwt beam="2">  1       21 0.76104704E-01 0.45386519E+03</pdfrwt>
<totfact> 0.58161965E+04</totfact>
</mgrwt>
</event>
<event>
 7    0  0.4685107E-002  0.4597804E+03  0.7546771E-02  0.1024845E+00
         21   -1    0    0  502  501  0.00000000000E+00  0.00000000000E+00  0.98032795740E+03  0.98032795740E+03  0.00000000000E+00 0.  1.
         21   -1    0    0  501  502 -0.00000000000E+00 -0.00000000000E+00 -0.53910021700E+02  0.53910021700E+02  0.00000000000E+00 0.  1.
      99926    2    1    2    0    0  0.00000000000E+00 -0.14210854715E-13  0.92641793570E+03  0.10342379791E+04  0.45978038869E+03 0.  0.
      99925    2    3    3    0    0 -0.42624226472E+02  0.99926186009E+02  0.68178596742E+03  0.73878176350E+03  0.26299110513E+03 0.  0.
         25    1    4    4    0    0 -0.13910589890E+02  0.71711175305E+02  0.44490502189E+03  0.46789313286E+03  0.12509000000E+03 0.  0.
         25    1    4    4    0    0 -0.28713636582E+02  0.28215010704E+02  0.23688094553E+03  0.27088863064E+03  0.12509000000E+03 0.  0.
         25    1    3    3    0    0  0.42624226472E+02 -0.99926186009E+02  0.24463196828E+03  0.29545621560E+03  0.12509000000E+03 0.  0.
<mgrwt>
<rscale>  2 0.45978039E+03</rscale>
<asrwt>0</asrwt>
<pdfrwt beam="1">  1       21 0.14416586E+00 0.45978039E+03</pdfrwt>
<pdfrwt beam="2">  1       21 0.79279450E-02 0.45978039E+03</pdfrwt>
<totfact> 0.36480585E+04</totfact>
</mgrwt>
</event>
<event>
 7    0  0.4685107E-002  0.4524829E+03  0.7546771E-02  0.1026984E+00
         21   -1    0    0  502  501  0.00000000000E+00  0.00000000000E+00  0.14573862796E+03  0.14573862796E+03  0.00000000000E+00 0. -1.
         21   -1    0    0  501  502 -0.00000000000E+00 -0.00000000000E+00 -0.35121227443E+03  0.35121227443E+03  0.00000000000E+00 0. -1.
      99926    2    1    2    0    0 -0.14210854715E-13  0.00000000000E+00 -0.20547364646E+03  0.49695090239E+03  0.45248290575E+03 0.  0.
      99925    2    3    3    0    0 -0.10234364817E+03 -0.28374816780E+02 -0.16438755994E+03  0.32779142984E+03  0.26295360630E+03 0.  0.
         25    1    4    4    0    0 -0.81326011286E+02  0.72479195999E+01 -0.10876613914E+03  0.18478104224E+03  0.12509000000E+03 0.  0.
         25    1    4    4    0    0 -0.21017636889E+02 -0.35622736380E+02 -0.55621420798E+02  0.14301038759E+03  0.12509000000E+03 0.  0.
         25    1    3    3    0    0  0.10234364817E+03  0.28374816780E+02 -0.41086086527E+02  0.16915947256E+03  0.12509000000E+03 0.  0.
<mgrwt>
<rscale>  2 0.45248291E+03</rscale>
<asrwt>0</asrwt>
<pdfrwt beam="1">  1       21 0.21432152E-01 0.45248291E+03</pdfrwt>
<pdfrwt beam="2">  1       21 0.51648863E-01 0.45248291E+03</pdfrwt>
<totfact> 0.66810414E+04</totfact>
</mgrwt>
</event>
<event>
 7    0  0.4685107E-002  0.4519591E+03  0.7546771E-02  0.1027139E+00
         21   -1    0    0  502  501  0.00000000000E+00  0.00000000000E+00  0.51476267247E+02  0.51476267247E+02  0.00000000000E+00 0.  1.
         21   -1    0    0  501  502 -0.00000000000E+00 -0.00000000000E+00 -0.99204461445E+03  0.99204461445E+03  0.00000000000E+00 0.  1.
      99926    2    1    2    0    0  0.00000000000E+00  0.14210854715E-13 -0.94056834720E+03  0.10435208817E+04  0.45195908529E+03 0.  0.
      99925    2    3    3    0    0 -0.82925007484E+02 -0.71523080805E+02 -0.56501344517E+03  0.63281283393E+03  0.26309652529E+03 0.  0.
         25    1    4    4    0    0 -0.45102635343E+02 -0.77939300176E+02 -0.30357405937E+03  0.34046071705E+03  0.12509000000E+03 0.  0.
         25    1    4    4    0    0 -0.37822372141E+02  0.64162193716E+01 -0.26143938579E+03  0.29235211689E+03  0.12509000000E+03 0.  0.
         25    1    3    3    0    0  0.82925007484E+02  0.71523080805E+02 -0.37555490204E+03  0.41070804776E+03  0.12509000000E+03 0.  0.
<mgrwt>
<rscale>  2 0.45195909E+03</rscale>
<asrwt>0</asrwt>
<pdfrwt beam="1">  1       21 0.75700401E-02 0.45195909E+03</pdfrwt>
<pdfrwt beam="2">  1       21 0.14588890E+00 0.45195909E+03</pdfrwt>
<totfact> 0.38419922E+04</totfact>
</mgrwt>
</event>
<event>
 7    0  0.4685107E-002  0.4459264E+03  0.7546771E-02  0.1028944E+00
         21   -1    0    0  502  501  0.00000000000E+00  0.00000000000E+00  0.20009455516E+03  0.20009455516E+03  0.00000000000E+00 0.  1.
         21   -1    0    0  501  502 -0.00000000000E+00 -0.00000000000E+00 -0.24844550021E+03  0.24844550021E+03  0.00000000000E+00 0.  1.
      99926    2    1    2    0    0  0.14210854715E-13  0.00000000000E+00 -0.48350945043E+02  0.44854005537E+03  0.44592641477E+03 0.  0.
      99925    2    3    3    0    0  0.77948689631E+02 -0.67267781190E+02 -0.48300971811E+02  0.28652628065E+03  0.26298930211E+03 0.  0.
         25    1    3    3    0    0 -0.77948689631E+02  0.67267781190E+02 -0.49973231917E-01  0.16201377472E+03  0.12509000000E+03 0.  0.
         25    1    4    4    0    0  0.54556578181E+02  0.40572195317E+01 -0.21997290689E+02  0.13829052806E+03  0.12509000000E+03 0.  0.
         25    1    4    4    0    0  0.23392111450E+02 -0.71325000722E+02 -0.26303681122E+02  0.14823575259E+03  0.12509000000E+03 0.  0.
<mgrwt>
<rscale>  2 0.44592641E+03</rscale>
<asrwt>0</asrwt>
<pdfrwt beam="1">  1       21 0.29425670E-01 0.44592641E+03</pdfrwt>
<pdfrwt beam="2">  1       21 0.36536103E-01 0.44592641E+03</pdfrwt>
<totfact> 0.74253209E+04</totfact>
</mgrwt>
</event>
<event>
 7    0  0.4685107E-002  0.4536548E+03  0.7546771E-02  0.1026638E+00
         21   -1    0    0  502  501  0.00000000000E+00  0.00000000000E+00  0.58300826183E+02  0.58300826183E+02  0.00000000000E+00 0.  1.
         21   -1    0    0  501  502 -0.00000000000E+00 -0.00000000000E+00 -0.88250337215E+03  0.88250337215E+03  0.00000000000E+00 0.  1.
      99926    2    1    2    0    0  0.44408920985E-15  0.00000000000E+00 -0.82420254596E+03  0.94080419833E+03  0.45365482784E+03 0.  0.
      99925    2    3    3    0    0 -0.32041004944E+01  0.62642694161E+02 -0.32689346273E+03  0.42418228071E+03  0.26293896232E+03 0.  0.
         25    1    4    4    0    0  0.23203712272E+02  0.35870746692E+02 -0.11471199101E+03  0.17501848963E+03  0.12509000000E+03 0.  0.
         25    1    4    4    0    0 -0.26407812767E+02  0.26771947469E+02 -0.21218147172E+03  0.24916379108E+03  0.12509000000E+03 0.  0.
         25    1    3    3    0    0  0.32041004944E+01 -0.62642694161E+02 -0.49730908324E+03  0.51662191762E+03  0.12509000000E+03 0.  0.
<mgrwt>
<rscale>  2 0.45365483E+03</rscale>
<asrwt>0</asrwt>
<pdfrwt beam="1">  1       21 0.85736505E-02 0.45365483E+03</pdfrwt>
<pdfrwt beam="2">  1       21 0.12977991E+00 0.45365483E+03</pdfrwt>
<totfact> 0.41955053E+04</totfact>
</mgrwt>
</event>
<event>
 7    0  0.4685107E-002  0.4670896E+03  0.7546771E-02  0.1022745E+00
         21   -1    0    0  502  501  0.00000000000E+00  0.00000000000E+00  0.27828491291E+02  0.27828491291E+02  0.00000000000E+00 0. -1.
         21   -1    0    0  501  502 -0.00000000000E+00 -0.00000000000E+00 -0.19599763067E+04  0.19599763067E+04  0.00000000000E+00 0. -1.
      99926    2    1    2    0    0  0.11102230246E-15  0.00000000000E+00 -0.19321478154E+04  0.19878047980E+04  0.46708964271E+03 0.  0.
      99925    2    3    3    0    0  0.73766894200E+00 -0.11926015602E+03 -0.10556982447E+04  0.10944768139E+04  0.26297753412E+03 0.  0.
         25    1    4    4    0    0 -0.13896738017E+02 -0.57636851061E+02 -0.66829043565E+03  0.68247691566E+03  0.12509000000E+03 0.  0.
         25    1    3    3    0    0 -0.73766894200E+00  0.11926015602E+03 -0.87644957073E+03  0.89332798405E+03  0.12509000000E+03 0.  0.
         25    1    4    4    0    0  0.14634406959E+02 -0.61623304955E+02 -0.38740780904E+03  0.41199989828E+03  0.12509000000E+03 0.  0.
<mgrwt>
<rscale>  2 0.46708964E+03</rscale>
<asrwt>0</asrwt>
<pdfrwt beam="1">  1       21 0.40924243E-02 0.46708964E+03</pdfrwt>
<pdfrwt beam="2">  1       21 0.28823187E+00 0.46708964E+03</pdfrwt>
<totfact> 0.12677872E+04</totfact>
</mgrwt>
</event>
<event>
 7    0  0.4685107E-002  0.4517535E+03  0.7546771E-02  0.1027200E+00
         21   -1    0    0  502  501  0.00000000000E+00  0.00000000000E+00  0.22443822463E+03  0.22443822463E+03  0.00000000000E+00 0. -1.
         21   -1    0    0  501  502 -0.00000000000E+00 -0.00000000000E+00 -0.22732445744E+03  0.22732445744E+03  0.00000000000E+00 0. -1.
      99926    2    1    2    0    0  0.00000000000E+00 -0.35527136788E-14 -0.28862328048E+01  0.45176268207E+03  0.45175346215E+03 0.  0.
      99925    2    3    3    0    0  0.66762854030E+02  0.18217278787E+02  0.83862787777E+02  0.28454411672E+03  0.26295102065E+03 0.  0.
         25    1    4    4    0    0  0.50512968936E+02 -0.27435824832E+02  0.46159353924E+02  0.14519806669E+03  0.12509000000E+03 0.  0.
         25    1    3    3    0    0 -0.66762854030E+02 -0.18217278787E+02 -0.86749020582E+02  0.16721856535E+03  0.12509000000E+03 0.  0.
         25    1    4    4    0    0  0.16249885095E+02  0.45653103619E+02  0.37703433853E+02  0.13934605003E+03  0.12509000000E+03 0.  0.
<mgrwt>
<rscale>  2 0.45175346E+03</rscale>
<asrwt>0</asrwt>
<pdfrwt beam="1">  1       21 0.33005621E-01 0.45175346E+03</pdfrwt>
<pdfrwt beam="2">  1       21 0.33430067E-01 0.45175346E+03</pdfrwt>
<totfact> 0.70594644E+04</totfact>
</mgrwt>
</event>
<event>
 7    0  0.4685107E-002  0.4549484E+03  0.7546771E-02  0.1026257E+00
         21   -1    0    0  502  501  0.00000000000E+00  0.00000000000E+00  0.15176918897E+03  0.15176918897E+03  0.00000000000E+00 0. -1.
         21   -1    0    0  501  502 -0.00000000000E+00 -0.00000000000E+00 -0.34094207351E+03  0.34094207351E+03  0.00000000000E+00 0. -1.
      99926    2    1    2    0    0  0.00000000000E+00  0.00000000000E+00 -0.18917288454E+03  0.49271126247E+03  0.45494835743E+03 0.  0.
      99925    2    3    3    0    0 -0.11244022072E+03 -0.57064108063E+01 -0.10935769310E+03  0.30644978164E+03  0.26320523791E+03 0.  0.
         25    1    4    4    0    0 -0.19580006930E+02 -0.13108195670E+02 -0.27181965602E+02  0.13015978188E+03  0.12509000000E+03 0.  0.
         25    1    3    3    0    0  0.11244022072E+03  0.57064108063E+01 -0.79815191437E+02  0.18626148084E+03  0.12509000000E+03 0.  0.
         25    1    4    4    0    0 -0.92860213789E+02  0.74017848634E+01 -0.82175727502E+02  0.17628999976E+03  0.12509000000E+03 0.  0.
<mgrwt>
<rscale>  2 0.45494836E+03</rscale>
<asrwt>0</asrwt>
<pdfrwt beam="1">  1       21 0.22318999E-01 0.45494836E+03</pdfrwt>
<pdfrwt beam="2">  1       21 0.50138539E-01 0.45494836E+03</pdfrwt>
<totfact> 0.65812783E+04</totfact>
</mgrwt>
</event>
<event>
 7    0  0.4685107E-002  0.4599383E+03  0.7546771E-02  0.1024799E+00
         21   -1    0    0  502  501  0.00000000000E+00  0.00000000000E+00  0.15658359666E+04  0.15658359666E+04  0.00000000000E+00 0.  1.
         21   -1    0    0  501  502 -0.00000000000E+00 -0.00000000000E+00 -0.33774808393E+02  0.33774808393E+02  0.00000000000E+00 0.  1.
      99926    2    1    2    0    0  0.00000000000E+00  0.00000000000E+00  0.15320611582E+04  0.15996107750E+04  0.45993829911E+03 0.  0.
      99925    2    3    3    0    0 -0.65296011634E+02 -0.73741269805E+02  0.73540518465E+03  0.78720103089E+03  0.26298922681E+03 0.  0.
         25    1    4    4    0    0 -0.67828719249E+02 -0.60090352120E+02  0.38158327704E+03  0.41166113612E+03  0.12509000000E+03 0.  0.
         25    1    3    3    0    0  0.65296011634E+02  0.73741269805E+02  0.79665597359E+03  0.81240974413E+03  0.12509000000E+03 0.  0.
         25    1    4    4    0    0  0.25327076154E+01 -0.13650917685E+02  0.35382190761E+03  0.37553989478E+03  0.12509000000E+03 0.  0.
<mgrwt>
<rscale>  2 0.45993830E+03</rscale>
<asrwt>0</asrwt>
<pdfrwt beam="1">  1       21 0.23026995E+00 0.45993830E+03</pdfrwt>
<pdfrwt beam="2">  1       21 0.49668846E-02 0.45993830E+03</pdfrwt>
<totfact> 0.20635890E+04</totfact>
</mgrwt>
</event>
<event>
 7    0  0.4685107E-002  0.4538333E+03  0.7546771E-02  0.1026585E+00
         21   -1    0    0  502  501  0.00000000000E+00  0.00000000000E+00  0.17561828991E+03  0.17561828991E+03  0.00000000000E+00 0. -1.
         21   -1    0    0  501  502 -0.00000000000E+00 -0.00000000000E+00 -0.29319932028E+03  0.29319932028E+03  0.00000000000E+00 0. -1.
      99926    2    1    2    0    0  0.14210854715E-13  0.00000000000E+00 -0.11758103037E+03  0.46881761018E+03  0.45383328758E+03 0.  0.
      99925    2    3    3    0    0  0.95479260957E+02 -0.45987069764E+02 -0.11139204307E+03  0.30475386793E+03  0.26312664802E+03 0.  0.
         25    1    4    4    0    0  0.75394569446E+02 -0.53634386295E+02 -0.74956586889E+02  0.17270491167E+03  0.12509000000E+03 0.  0.
         25    1    3    3    0    0 -0.95479260957E+02  0.45987069764E+02 -0.61889872981E+01  0.16406374225E+03  0.12509000000E+03 0.  0.
         25    1    4    4    0    0  0.20084691511E+02  0.76473165315E+01 -0.36435456183E+02  0.13204895626E+03  0.12509000000E+03 0.  0.
<mgrwt>
<rscale>  2 0.45383329E+03</rscale>
<asrwt>0</asrwt>
<pdfrwt beam="1">  1       21 0.25826219E-01 0.45383329E+03</pdfrwt>
<pdfrwt beam="2">  1       21 0.43117547E-01 0.45383329E+03</pdfrwt>
<totfact> 0.68152361E+04</totfact>
</mgrwt>
</event>
<event>
 7    0  0.4685107E-002  0.4548352E+03  0.7546771E-02  0.1026290E+00
         21   -1    0    0  502  501  0.00000000000E+00  0.00000000000E+00  0.18005709523E+03  0.18005709523E+03  0.00000000000E+00 0. -1.
         21   -1    0    0  501  502 -0.00000000000E+00 -0.00000000000E+00 -0.28723530379E+03  0.28723530379E+03  0.00000000000E+00 0. -1.
      99926    2    1    2    0    0  0.00000000000E+00  0.00000000000E+00 -0.10717820856E+03  0.46729239902E+03  0.45483515452E+03 0.  0.
      99925    2    3    3    0    0  0.10633706944E+03 -0.35940503295E+02 -0.81069172916E+02  0.29720864919E+03  0.26298569969E+03 0.  0.
         25    1    3    3    0    0 -0.10633706944E+03  0.35940503295E+02 -0.26109035645E+02  0.17008374983E+03  0.12509000000E+03 0.  0.
         25    1    4    4    0    0  0.43550906847E+02 -0.17392734132E+01 -0.76683990232E+02  0.15306093237E+03  0.12509000000E+03 0.  0.
         25    1    4    4    0    0  0.62786162591E+02 -0.34201229882E+02 -0.43851826846E+01  0.14414771682E+03  0.12509000000E+03 0.  0.
<mgrwt>
<rscale>  2 0.45483515E+03</rscale>
<asrwt>0</asrwt>
<pdfrwt beam="1">  1       21 0.26478985E-01 0.45483515E+03</pdfrwt>
<pdfrwt beam="2">  1       21 0.42240485E-01 0.45483515E+03</pdfrwt>
<totfact> 0.67726328E+04</totfact>
</mgrwt>
</event>
<event>
 7    0  0.5459401E-002  0.4234556E+03  0.7546771E-02  0.1035947E+00
         21   -1    0    0  502  501  0.00000000000E+00  0.00000000000E+00  0.20948659939E+03  0.20948659939E+03  0.00000000000E+00 0. -1.
         21   -1    0    0  501  502 -0.00000000000E+00 -0.00000000000E+00 -0.21399297499E+03  0.21399297499E+03  0.00000000000E+00 0. -1.
      99926    2    1    2    0    0  0.00000000000E+00  0.71054273576E-14 -0.45063755954E+01  0.42347957439E+03  0.42345559685E+03 0.  0.
      99925    2    3    3    0    0  0.35673532574E+02  0.37462196557E+02 -0.64575914962E+02  0.27538543285E+03  0.26266151362E+03 0.  0.
         25    1    4    4    0    0  0.44668863770E+02  0.39378884967E+02 -0.56751761495E+02  0.14971397565E+03  0.12509000000E+03 0.  0.
         25    1    4    4    0    0 -0.89953311963E+01 -0.19166884093E+01 -0.78241534666E+01  0.12567145720E+03  0.12509000000E+03 0.  0.
         25    1    3    3    0    0 -0.35673532574E+02 -0.37462196557E+02  0.60069539366E+02  0.14809414153E+03  0.12509000000E+03 0.  0.
<mgrwt>
<rscale>  2 0.42345560E+03</rscale>
<asrwt>0</asrwt>
<pdfrwt beam="1">  1       21 0.30806853E-01 0.42345560E+03</pdfrwt>
<pdfrwt beam="2">  1       21 0.31469555E-01 0.42345560E+03</pdfrwt>
<totfact> 0.91980258E+04</totfact>
</mgrwt>
</event>
<event>
 7    0  0.4685107E-002  0.4537888E+03  0.7546771E-02  0.1026598E+00
         21   -1    0    0  502  501  0.00000000000E+00  0.00000000000E+00  0.11075545501E+03  0.11075545501E+03  0.00000000000E+00 0. -1.
         21   -1    0    0  501  502 -0.00000000000E+00 -0.00000000000E+00 -0.46481743530E+03  0.46481743530E+03  0.00000000000E+00 0. -1.
      99926    2    1    2    0    0  0.00000000000E+00  0.00000000000E+00 -0.35406198029E+03  0.57557289031E+03  0.45378879027E+03 0.  0.
      99925    2    3    3    0    0  0.87052553252E+02  0.69788610086E+02 -0.23557798958E+03  0.37030584162E+03  0.26302248960E+03 0.  0.
         25    1    4    4    0    0  0.67760486196E+02  0.24678965365E+01 -0.11341122820E+03  0.18195380948E+03  0.12509000000E+03 0.  0.
         25    1    3    3    0    0 -0.87052553252E+02 -0.69788610086E+02 -0.11848399071E+03  0.20526704870E+03  0.12509000000E+03 0.  0.
         25    1    4    4    0    0  0.19292067056E+02  0.67320713549E+02 -0.12216676138E+03  0.18835203213E+03  0.12509000000E+03 0.  0.
<mgrwt>
<rscale>  2 0.45378879E+03</rscale>
<asrwt>0</asrwt>
<pdfrwt beam="1">  1       21 0.16287567E-01 0.45378879E+03</pdfrwt>
<pdfrwt beam="2">  1       21 0.68355506E-01 0.45378879E+03</pdfrwt>
<totfact> 0.60787638E+04</totfact>
</mgrwt>
</event>
<event>
 7    0  0.4685107E-002  0.4523487E+03  0.7546771E-02  0.1027024E+00
         21   -1    0    0  502  501  0.00000000000E+00  0.00000000000E+00  0.15219402116E+04  0.15219402116E+04  0.00000000000E+00 0. -1.
         21   -1    0    0  501  502 -0.00000000000E+00 -0.00000000000E+00 -0.33611598971E+02  0.33611598971E+02  0.00000000000E+00 0. -1.
      99926    2    1    2    0    0  0.00000000000E+00  0.71054273576E-14  0.14883286126E+04  0.15555518106E+04  0.45234873295E+03 0.  0.
      99925    2    3    3    0    0  0.66353620209E+02  0.45715546919E+02  0.67842097572E+03  0.73208924156E+03  0.26307208738E+03 0.  0.
         25    1    4    4    0    0  0.71060675429E+02  0.12962393694E+02  0.39310936812E+03  0.41880798303E+03  0.12509000000E+03 0.  0.
         25    1    3    3    0    0 -0.66353620209E+02 -0.45715546919E+02  0.80990763691E+03  0.82346256902E+03  0.12509000000E+03 0.  0.
         25    1    4    4    0    0 -0.47070552199E+01  0.32753153224E+02  0.28531160760E+03  0.31328125853E+03  0.12509000000E+03 0.  0.
<mgrwt>
<rscale>  2 0.45234873E+03</rscale>
<asrwt>0</asrwt>
<pdfrwt beam="1">  1       21 0.22381469E+00 0.45234873E+03</pdfrwt>
<pdfrwt beam="2">  1       21 0.49428832E-02 0.45234873E+03</pdfrwt>
<totfact> 0.22918202E+04</totfact>
</mgrwt>
</event>
<event>
 7    0  0.4685107E-002  0.4538544E+03  0.7546771E-02  0.1026579E+00
         21   -1    0    0  502  501  0.00000000000E+00  0.00000000000E+00  0.91268460138E+02  0.91268460138E+02  0.00000000000E+00 0. -1.
         21   -1    0    0  501  502 -0.00000000000E+00 -0.00000000000E+00 -0.56422514094E+03  0.56422514094E+03  0.00000000000E+00 0. -1.
      99926    2    1    2    0    0  0.00000000000E+00  0.00000000000E+00 -0.47295668080E+03  0.65549360108E+03  0.45385442505E+03 0.  0.
      99925    2    3    3    0    0 -0.75061500958E+02 -0.65410067351E+02 -0.37245553598E+03  0.46665320803E+03  0.26292467446E+03 0.  0.
         25    1    3    3    0    0  0.75061500958E+02  0.65410067351E+02 -0.10050114482E+03  0.18884039305E+03  0.12509000000E+03 0.  0.
         25    1    4    4    0    0 -0.64059009938E+02 -0.53598168830E+02 -0.16015100549E+03  0.21970929228E+03  0.12509000000E+03 0.  0.
         25    1    4    4    0    0 -0.11002491020E+02 -0.11811898521E+02 -0.21230453050E+03  0.24694391575E+03  0.12509000000E+03 0.  0.
<mgrwt>
<rscale>  2 0.45385443E+03</rscale>
<asrwt>0</asrwt>
<pdfrwt beam="1">  1       21 0.13421833E-01 0.45385443E+03</pdfrwt>
<pdfrwt beam="2">  1       21 0.82974285E-01 0.45385443E+03</pdfrwt>
<totfact> 0.55889402E+04</totfact>
</mgrwt>
</event>
<event>
 7    0  0.4685107E-002  0.4820867E+03  0.7546771E-02  0.1018563E+00
         21   -1    0    0  502  501  0.00000000000E+00  0.00000000000E+00  0.46755371581E+03  0.46755371581E+03  0.00000000000E+00 0. -1.
         21   -1    0    0  501  502 -0.00000000000E+00 -0.00000000000E+00 -0.12426784157E+03  0.12426784157E+03  0.00000000000E+00 0. -1.
      99926    2    1    2    0    0  0.14210854715E-13  0.17763568394E-14  0.34328587424E+03  0.59182155738E+03  0.48208667720E+03 0.  0.
      99925    2    3    3    0    0 -0.12710731425E+03 -0.87097053802E+01  0.14921519395E+03  0.32811136541E+03  0.26298244372E+03 0.  0.
         25    1    4    4    0    0 -0.10394499751E+03 -0.77669100015E+00  0.63976006937E+02  0.17477300512E+03  0.12509000000E+03 0.  0.
         25    1    3    3    0    0  0.12710731425E+03  0.87097053802E+01  0.19407068028E+03  0.26371019197E+03  0.12509000000E+03 0.  0.
         25    1    4    4    0    0 -0.23162316736E+02 -0.79330143801E+01  0.85239187014E+02  0.15333836029E+03  0.12509000000E+03 0.  0.
<mgrwt>
<rscale>  2 0.48208668E+03</rscale>
<asrwt>0</asrwt>
<pdfrwt beam="1">  1       21 0.68757899E-01 0.48208668E+03</pdfrwt>
<pdfrwt beam="2">  1       21 0.18274683E-01 0.48208668E+03</pdfrwt>
<totfact> 0.48042477E+04</totfact>
</mgrwt>
</event>
<event>
 7    0  0.4685107E-002  0.4746999E+03  0.7546771E-02  0.1020602E+00
         21   -1    0    0  502  501  0.00000000000E+00  0.00000000000E+00  0.26851929310E+02  0.26851929310E+02  0.00000000000E+00 0.  1.
         21   -1    0    0  501  502 -0.00000000000E+00 -0.00000000000E+00 -0.20979873715E+04  0.20979873715E+04  0.00000000000E+00 0.  1.
      99926    2    1    2    0    0  0.00000000000E+00  0.00000000000E+00 -0.20711354422E+04  0.21248393008E+04  0.47469994140E+03 0.  0.
      99925    2    3    3    0    0 -0.47329894689E+02 -0.80620471792E+02 -0.16911316481E+04  0.17139984910E+04  0.26291594938E+03 0.  0.
         25    1    4    4    0    0 -0.34555563773E+02 -0.35595698526E+02 -0.10858529291E+04  0.10941596010E+04  0.12509000000E+03 0.  0.
         25    1    3    3    0    0  0.47329894689E+02  0.80620471792E+02 -0.38000379403E+03  0.41084080978E+03  0.12509000000E+03 0.  0.
         25    1    4    4    0    0 -0.12774330916E+02 -0.45024773266E+02 -0.60527871908E+03  0.61983889005E+03  0.12509000000E+03 0.  0.
<mgrwt>
<rscale>  2 0.47469994E+03</rscale>
<asrwt>0</asrwt>
<pdfrwt beam="1">  1       21 0.39488117E-02 0.47469994E+03</pdfrwt>
<pdfrwt beam="2">  1       21 0.30852767E+00 0.47469994E+03</pdfrwt>
<totfact> 0.10135432E+04</totfact>
</mgrwt>
</event>
<event>
 7    0  0.4685107E-002  0.4543115E+03  0.7546771E-02  0.1026444E+00
         21   -1    0    0  502  501  0.00000000000E+00  0.00000000000E+00  0.64222174752E+03  0.64222174752E+03  0.00000000000E+00 0.  1.
         21   -1    0    0  501  502 -0.00000000000E+00 -0.00000000000E+00 -0.80345680245E+02  0.80345680245E+02  0.00000000000E+00 0.  1.
      99926    2    1    2    0    0  0.00000000000E+00  0.00000000000E+00  0.56187606727E+03  0.72256742776E+03  0.45431153704E+03 0.  0.
      99925    2    3    3    0    0 -0.10003789290E+03 -0.36497655704E+02  0.29616456758E+03  0.41017381698E+03  0.26303887576E+03 0.  0.
         25    1    4    4    0    0 -0.80423954415E+02 -0.28150169960E+02  0.20073644955E+03  0.25140221716E+03  0.12509000000E+03 0.  0.
         25    1    3    3    0    0  0.10003789290E+03  0.36497655704E+02  0.26571149969E+03  0.31239361078E+03  0.12509000000E+03 0.  0.
         25    1    4    4    0    0 -0.19613938483E+02 -0.83474857438E+01  0.95428118028E+02  0.15877159983E+03  0.12509000000E+03 0.  0.
<mgrwt>
<rscale>  2 0.45431154E+03</rscale>
<asrwt>0</asrwt>
<pdfrwt beam="1">  1       21 0.94444372E-01 0.45431154E+03</pdfrwt>
<pdfrwt beam="2">  1       21 0.11815542E-01 0.45431154E+03</pdfrwt>
<totfact> 0.51975671E+04</totfact>
</mgrwt>
</event>
<event>
 7    0  0.4685107E-002  0.4452239E+03  0.7546771E-02  0.1029156E+00
         21   -1    0    0  502  501  0.00000000000E+00  0.00000000000E+00  0.68287273840E+03  0.68287273840E+03  0.00000000000E+00 0. -1.
         21   -1    0    0  501  502 -0.00000000000E+00 -0.00000000000E+00 -0.72570018994E+02  0.72570018994E+02  0.00000000000E+00 0. -1.
      99926    2    1    2    0    0  0.00000000000E+00  0.00000000000E+00  0.61030271940E+03  0.75544275739E+03  0.44522393285E+03 0.  0.
      99925    2    3    3    0    0 -0.31137500803E+02 -0.85074013057E+02  0.47341545861E+03  0.54906261804E+03  0.26294567959E+03 0.  0.
         25    1    3    3    0    0  0.31137500803E+02  0.85074013057E+02  0.13688726079E+03  0.20638013936E+03  0.12509000000E+03 0.  0.
         25    1    4    4    0    0  0.20962928655E+02 -0.22438548510E+02  0.21537800657E+03  0.25095443142E+03  0.12509000000E+03 0.  0.
         25    1    4    4    0    0 -0.52100429458E+02 -0.62635464547E+02  0.25803745204E+03  0.29810818661E+03  0.12509000000E+03 0.  0.
<mgrwt>
<rscale>  2 0.44522393E+03</rscale>
<asrwt>0</asrwt>
<pdfrwt beam="1">  1       21 0.10042246E+00 0.44522393E+03</pdfrwt>
<pdfrwt beam="2">  1       21 0.10672062E-01 0.44522393E+03</pdfrwt>
<totfact> 0.54023843E+04</totfact>
</mgrwt>
</event>
<event>
 7    0  0.4685107E-002  0.5085201E+03  0.7546771E-02  0.1011579E+00
         21   -1    0    0  502  501  0.00000000000E+00  0.00000000000E+00  0.20955077749E+04  0.20955077749E+04  0.00000000000E+00 0. -1.
         21   -1    0    0  501  502 -0.00000000000E+00 -0.00000000000E+00 -0.30850834179E+02  0.30850834179E+02  0.00000000000E+00 0. -1.
      99926    2    1    2    0    0 -0.27755575616E-15  0.00000000000E+00  0.20646569407E+04  0.21263586090E+04  0.50852006011E+03 0.  0.
      99925    2    3    3    0    0 -0.25290046338E+00 -0.80502988891E+02  0.18150590638E+04  0.18357946687E+04  0.26310048533E+03 0.  0.
         25    1    4    4    0    0  0.13223169790E+02 -0.61622927677E+02  0.11661297468E+04  0.11745119547E+04  0.12509000000E+03 0.  0.
         25    1    3    3    0    0  0.25290046338E+00  0.80502988891E+02  0.24959787686E+03  0.29056394032E+03  0.12509000000E+03 0.  0.
         25    1    4    4    0    0 -0.13476070254E+02 -0.18880061214E+02  0.64892931707E+03  0.66128271400E+03  0.12509000000E+03 0.  0.
<mgrwt>
<rscale>  2 0.50852006E+03</rscale>
<asrwt>0</asrwt>
<pdfrwt beam="1">  1       21 0.30816281E+00 0.50852006E+03</pdfrwt>
<pdfrwt beam="2">  1       21 0.45368888E-02 0.50852006E+03</pdfrwt>
<totfact> 0.79198321E+03</totfact>
</mgrwt>
</event>
<event>
 7    0  0.4685107E-002  0.4494363E+03  0.7546771E-02  0.1027890E+00
         21   -1    0    0  502  501  0.00000000000E+00  0.00000000000E+00  0.26906522561E+04  0.26906522561E+04  0.00000000000E+00 0. -1.
         21   -1    0    0  501  502 -0.00000000000E+00 -0.00000000000E+00 -0.18768035540E+02  0.18768035540E+02  0.00000000000E+00 0. -1.
      99926    2    1    2    0    0  0.00000000000E+00  0.00000000000E+00  0.26718842205E+04  0.27094202916E+04  0.44943634551E+03 0.  0.
      99925    2    3    3    0    0 -0.69704116210E+02 -0.76129640965E+02  0.18802958654E+04  0.19013893404E+04  0.26289636030E+03 0.  0.
         25    1    3    3    0    0  0.69704116210E+02  0.76129640965E+02  0.79158835510E+03  0.80803095118E+03  0.12509000000E+03 0.  0.
         25    1    4    4    0    0 -0.33171207161E+02 -0.76117169253E+02  0.89359041060E+03  0.90611560104E+03  0.12509000000E+03 0.  0.
         25    1    4    4    0    0 -0.36532909049E+02 -0.12471712918E-01  0.98670545484E+03  0.99527373939E+03  0.12509000000E+03 0.  0.
<mgrwt>
<rscale>  2 0.44943635E+03</rscale>
<asrwt>0</asrwt>
<pdfrwt beam="1">  1       21 0.39568389E+00 0.44943635E+03</pdfrwt>
<pdfrwt beam="2">  1       21 0.27600071E-02 0.44943635E+03</pdfrwt>
<totfact> 0.54498094E+03</totfact>
</mgrwt>
</event>
<event>
 7    0  0.4685107E-002  0.4603714E+03  0.7546771E-02  0.1024674E+00
         21   -1    0    0  502  501  0.00000000000E+00  0.00000000000E+00  0.44583304603E+03  0.44583304603E+03  0.00000000000E+00 0.  1.
         21   -1    0    0  501  502 -0.00000000000E+00 -0.00000000000E+00 -0.11884597784E+03  0.11884597784E+03  0.00000000000E+00 0.  1.
      99926    2    1    2    0    0  0.00000000000E+00  0.71054273576E-14  0.32698706819E+03  0.56467902387E+03  0.46037143400E+03 0.  0.
      99925    2    3    3    0    0 -0.22921823770E+02  0.35548392193E+02  0.34006685688E+03  0.43198506333E+03  0.26301431443E+03 0.  0.
         25    1    3    3    0    0  0.22921823770E+02 -0.35548392193E+02 -0.13079788696E+02  0.13269396054E+03  0.12509000000E+03 0.  0.
         25    1    4    4    0    0  0.20323868496E+02 -0.44250494064E+01  0.14124729726E+03  0.18981819664E+03  0.12509000000E+03 0.  0.
         25    1    4    4    0    0 -0.43245692265E+02  0.39973441600E+02  0.19881955962E+03  0.24216686669E+03  0.12509000000E+03 0.  0.
<mgrwt>
<rscale>  2 0.46037143E+03</rscale>
<asrwt>0</asrwt>
<pdfrwt beam="1">  1       21 0.65563683E-01 0.46037143E+03</pdfrwt>
<pdfrwt beam="2">  1       21 0.17477350E-01 0.46037143E+03</pdfrwt>
<totfact> 0.58386560E+04</totfact>
</mgrwt>
</event>
<event>
 7    0  0.4685107E-002  0.4553001E+03  0.7546771E-02  0.1026153E+00
         21   -1    0    0  502  501  0.00000000000E+00  0.00000000000E+00  0.72008026042E+03  0.72008026042E+03  0.00000000000E+00 0. -1.
         21   -1    0    0  501  502 -0.00000000000E+00 -0.00000000000E+00 -0.71970512285E+02  0.71970512285E+02  0.00000000000E+00 0. -1.
      99926    2    1    2    0    0 -0.35527136788E-14 -0.14210854715E-13  0.64810974813E+03  0.79205077270E+03  0.45530009984E+03 0.  0.
      99925    2    3    3    0    0 -0.28891484212E+02 -0.10939718050E+03  0.39354011624E+03  0.48667286495E+03  0.26300987325E+03 0.  0.
         25    1    4    4    0    0 -0.19151502603E+02 -0.94296453752E+02  0.18880654961E+03  0.24607726941E+03  0.12509000000E+03 0.  0.
         25    1    4    4    0    0 -0.97399816092E+01 -0.15100726749E+02  0.20473356663E+03  0.24059559554E+03  0.12509000000E+03 0.  0.
         25    1    3    3    0    0  0.28891484212E+02  0.10939718050E+03  0.25456963190E+03  0.30537790776E+03  0.12509000000E+03 0.  0.
<mgrwt>
<rscale>  2 0.45530010E+03</rscale>
<asrwt>0</asrwt>
<pdfrwt beam="1">  1       21 0.10589415E+00 0.45530010E+03</pdfrwt>
<pdfrwt beam="2">  1       21 0.10583899E-01 0.45530010E+03</pdfrwt>
<totfact> 0.48038479E+04</totfact>
</mgrwt>
</event>
<event>
 7    0  0.4685107E-002  0.4545298E+03  0.7546771E-02  0.1026380E+00
         21   -1    0    0  502  501  0.00000000000E+00  0.00000000000E+00  0.12821203975E+03  0.12821203975E+03  0.00000000000E+00 0. -1.
         21   -1    0    0  501  502 -0.00000000000E+00 -0.00000000000E+00 -0.40284316824E+03  0.40284316824E+03  0.00000000000E+00 0. -1.
      99926    2    1    2    0    0  0.71054273576E-14  0.00000000000E+00 -0.27463112850E+03  0.53105520799E+03  0.45452984192E+03 0.  0.
      99925    2    3    3    0    0  0.50848962144E+02 -0.75178198536E+02 -0.25125159123E+03  0.37474945202E+03  0.26281630696E+03 0.  0.
         25    1    4    4    0    0  0.25640237385E+02 -0.38356861819E+02 -0.71601010951E+02  0.15133698653E+03  0.12509000000E+03 0.  0.
         25    1    4    4    0    0  0.25208724760E+02 -0.36821336716E+02 -0.17965058028E+03  0.22341246549E+03  0.12509000000E+03 0.  0.
         25    1    3    3    0    0 -0.50848962144E+02  0.75178198536E+02 -0.23379537262E+02  0.15630575597E+03  0.12509000000E+03 0.  0.
<mgrwt>
<rscale>  2 0.45452984E+03</rscale>
<asrwt>0</asrwt>
<pdfrwt beam="1">  1       21 0.18854712E-01 0.45452984E+03</pdfrwt>
<pdfrwt beam="2">  1       21 0.59241642E-01 0.45452984E+03</pdfrwt>
<totfact> 0.63370948E+04</totfact>
</mgrwt>
</event>
<event>
 7    0  0.4685107E-002  0.4491375E+03  0.7546771E-02  0.1027980E+00
         21   -1    0    0  502  501  0.00000000000E+00  0.00000000000E+00  0.58363072751E+03  0.58363072751E+03  0.00000000000E+00 0. -1.
         21   -1    0    0  501  502 -0.00000000000E+00 -0.00000000000E+00 -0.86409318806E+02  0.86409318806E+02  0.00000000000E+00 0. -1.
      99926    2    1    2    0    0  0.00000000000E+00 -0.71054273576E-14  0.49722140870E+03  0.67004004632E+03  0.44913754507E+03 0.  0.
      99925    2    3    3    0    0  0.34439839704E+02  0.48858356512E+02  0.18116512140E+03  0.32491350952E+03  0.26301092352E+03 0.  0.
         25    1    3    3    0    0 -0.34439839704E+02 -0.48858356512E+02  0.31605628730E+03  0.34512653680E+03  0.12509000000E+03 0.  0.
         25    1    4    4    0    0  0.57036584888E+01 -0.11638010958E+02  0.65165427730E+02  0.14164044652E+03  0.12509000000E+03 0.  0.
         25    1    4    4    0    0  0.28736181215E+02  0.60496367469E+02  0.11599969367E+03  0.18327306299E+03  0.12509000000E+03 0.  0.
<mgrwt>
<rscale>  2 0.44913755E+03</rscale>
<asrwt>0</asrwt>
<pdfrwt beam="1">  1       21 0.85828046E-01 0.44913755E+03</pdfrwt>
<pdfrwt beam="2">  1       21 0.12707253E-01 0.44913755E+03</pdfrwt>
<totfact> 0.57154725E+04</totfact>
</mgrwt>
</event>
<event>
 7    0  0.4685107E-002  0.4469247E+03  0.7546771E-02  0.1028643E+00
         21   -1    0    0  502  501  0.00000000000E+00  0.00000000000E+00  0.16164614642E+04  0.16164614642E+04  0.00000000000E+00 0. -1.
         21   -1    0    0  501  502 -0.00000000000E+00 -0.00000000000E+00 -0.30891810274E+02  0.30891810274E+02  0.00000000000E+00 0. -1.
      99926    2    1    2    0    0  0.00000000000E+00  0.00000000000E+00  0.15855696539E+04  0.16473532744E+04  0.44692469552E+03 0.  0.
      99925    2    3    3    0    0 -0.85288281077E+02  0.46583127428E+02  0.11559370652E+04  0.11894496295E+04  0.26297498711E+03 0.  0.
         25    1    3    3    0    0  0.85288281077E+02 -0.46583127428E+02  0.42963258869E+03  0.45790364490E+03  0.12509000000E+03 0.  0.
         25    1    4    4    0    0 -0.27312460795E+02  0.45281985326E+02  0.70275636698E+03  0.71575865216E+03  0.12509000000E+03 0.  0.
         25    1    4    4    0    0 -0.57975820282E+02  0.13011421025E+01  0.45318069821E+03  0.47369097737E+03  0.12509000000E+03 0.  0.
<mgrwt>
<rscale>  2 0.44692470E+03</rscale>
<asrwt>0</asrwt>
<pdfrwt beam="1">  1       21 0.23771486E+00 0.44692470E+03</pdfrwt>
<pdfrwt beam="2">  1       21 0.45429144E-02 0.44692470E+03</pdfrwt>
<totfact> 0.21710248E+04</totfact>
</mgrwt>
</event>
<event>
 7    0  0.4685107E-002  0.4606404E+03  0.7546771E-02  0.1024596E+00
         21   -1    0    0  502  501  0.00000000000E+00  0.00000000000E+00  0.90325440240E+02  0.90325440240E+02  0.00000000000E+00 0.  1.
         21   -1    0    0  501  502 -0.00000000000E+00 -0.00000000000E+00 -0.58729181716E+03  0.58729181716E+03  0.00000000000E+00 0.  1.
      99926    2    1    2    0    0 -0.71054273576E-14  0.71054273576E-14 -0.49696637692E+03  0.67761725740E+03  0.46064038874E+03 0.  0.
      99925    2    3    3    0    0 -0.61733093802E+02  0.62931550344E+02 -0.42733317749E+03  0.50948741037E+03  0.26304452445E+03 0.  0.
         25    1    4    4    0    0 -0.43751779729E+02  0.26840482574E+02 -0.14613902626E+03  0.19909483376E+03  0.12509000000E+03 0.  0.
         25    1    3    3    0    0  0.61733093802E+02 -0.62931550344E+02 -0.69633199431E+02  0.16812984703E+03  0.12509000000E+03 0.  0.
         25    1    4    4    0    0 -0.17981314073E+02  0.36091067770E+02 -0.28119415124E+03  0.31039257662E+03  0.12509000000E+03 0.  0.
<mgrwt>
<rscale>  2 0.46064039E+03</rscale>
<asrwt>0</asrwt>
<pdfrwt beam="1">  1       21 0.13283153E-01 0.46064039E+03</pdfrwt>
<pdfrwt beam="2">  1       21 0.86366443E-01 0.46064039E+03</pdfrwt>
<totfact> 0.51794528E+04</totfact>
</mgrwt>
</event>
<event>
 7    0  0.4685107E-002  0.4566371E+03  0.7546771E-02  0.1025761E+00
         21   -1    0    0  502  501  0.00000000000E+00  0.00000000000E+00  0.38665183067E+03  0.38665183067E+03  0.00000000000E+00 0. -1.
         21   -1    0    0  501  502 -0.00000000000E+00 -0.00000000000E+00 -0.13482249545E+03  0.13482249545E+03  0.00000000000E+00 0. -1.
      99926    2    1    2    0    0  0.00000000000E+00  0.14210854715E-13  0.25182933522E+03  0.52147432612E+03  0.45663711930E+03 0.  0.
      99925    2    3    3    0    0 -0.91635254754E+01  0.81012444672E+02  0.66088623213E+02  0.28315918478E+03  0.26299131434E+03 0.  0.
         25    1    3    3    0    0  0.91635254754E+01 -0.81012444672E+02  0.18574071201E+03  0.23831514133E+03  0.12509000000E+03 0.  0.
         25    1    4    4    0    0 -0.17076473732E+02  0.12716278289E+01  0.21649227854E+02  0.12809925901E+03  0.12509000000E+03 0.  0.
         25    1    4    4    0    0  0.79129482561E+01  0.79740816843E+02  0.44439395359E+02  0.15505992577E+03  0.12509000000E+03 0.  0.
<mgrwt>
<rscale>  2 0.45663712E+03</rscale>
<asrwt>0</asrwt>
<pdfrwt beam="1">  1       21 0.56860563E-01 0.45663712E+03</pdfrwt>
<pdfrwt beam="2">  1       21 0.19826838E-01 0.45663712E+03</pdfrwt>
<totfact> 0.62965127E+04</totfact>
</mgrwt>
</event>
<event>
 7    0  0.4685107E-002  0.4651003E+03  0.7546771E-02  0.1023312E+00
         21   -1    0    0  502  501  0.00000000000E+00  0.00000000000E+00  0.75769790666E+03  0.75769790666E+03  0.00000000000E+00 0.  1.
         21   -1    0    0  501  502 -0.00000000000E+00 -0.00000000000E+00 -0.71373527612E+02  0.71373527612E+02  0.00000000000E+00 0.  1.
      99926    2    1    2    0    0  0.00000000000E+00  0.00000000000E+00  0.68632437905E+03  0.82907143427E+03  0.46510030085E+03 0.  0.
      99925    2    3    3    0    0 -0.79576476457E+02 -0.27675662863E+02  0.27009172855E+03  0.38635766065E+03  0.26310519225E+03 0.  0.
         25    1    4    4    0    0 -0.20990358525E+02 -0.27622107544E+02  0.17814435612E+03  0.22042344633E+03  0.12509000000E+03 0.  0.
         25    1    4    4    0    0 -0.58586117932E+02 -0.53555318634E-01  0.91947372438E+02  0.16593421432E+03  0.12509000000E+03 0.  0.
         25    1    3    3    0    0  0.79576476457E+02  0.27675662863E+02  0.41623265049E+03  0.44271377362E+03  0.12509000000E+03 0.  0.
<mgrwt>
<rscale>  2 0.46510030E+03</rscale>
<asrwt>0</asrwt>
<pdfrwt beam="1">  1       21 0.11142616E+00 0.46510030E+03</pdfrwt>
<pdfrwt beam="2">  1       21 0.10496107E-01 0.46510030E+03</pdfrwt>
<totfact> 0.42889281E+04</totfact>
</mgrwt>
</event>
<event>
 7    0  0.4685107E-002  0.4515641E+03  0.7546771E-02  0.1027257E+00
         21   -1    0    0  502  501  0.00000000000E+00  0.00000000000E+00  0.93075865639E+02  0.93075865639E+02  0.00000000000E+00 0. -1.
         21   -1    0    0  501  502 -0.00000000000E+00 -0.00000000000E+00 -0.54769870610E+03  0.54769870610E+03  0.00000000000E+00 0. -1.
      99926    2    1    2    0    0  0.14210854715E-13  0.00000000000E+00 -0.45462284046E+03  0.64077457174E+03  0.45156408706E+03 0.  0.
      99925    2    3    3    0    0  0.75656997877E+02  0.62812882209E+01 -0.39975565956E+03  0.48450124852E+03  0.26300843439E+03 0.  0.
         25    1    4    4    0    0  0.77425063889E+02  0.12622814425E+01 -0.19119157108E+03  0.24124253113E+03  0.12509000000E+03 0.  0.
         25    1    4    4    0    0 -0.17680660126E+01  0.50190067784E+01 -0.20856408848E+03  0.24325871740E+03  0.12509000000E+03 0.  0.
         25    1    3    3    0    0 -0.75656997877E+02 -0.62812882209E+01 -0.54867180907E+02  0.15627332322E+03  0.12509000000E+03 0.  0.
<mgrwt>
<rscale>  2 0.45156409E+03</rscale>
<asrwt>0</asrwt>
<pdfrwt beam="1">  1       21 0.13687628E-01 0.45156409E+03</pdfrwt>
<pdfrwt beam="2">  1       21 0.80543925E-01 0.45156409E+03</pdfrwt>
<totfact> 0.57787044E+04</totfact>
</mgrwt>
</event>
<event>
 7    0  0.4685107E-002  0.4551014E+03  0.7546771E-02  0.1026212E+00
         21   -1    0    0  502  501  0.00000000000E+00  0.00000000000E+00  0.18452151307E+04  0.18452151307E+04  0.00000000000E+00 0.  1.
         21   -1    0    0  501  502 -0.00000000000E+00 -0.00000000000E+00 -0.28061404996E+02  0.28061404996E+02  0.00000000000E+00 0.  1.
      99926    2    1    2    0    0  0.00000000000E+00  0.00000000000E+00  0.18171537257E+04  0.18732765357E+04  0.45510143523E+03 0.  0.
      99925    2    3    3    0    0  0.57402815345E+02 -0.39819300674E+02  0.77603584467E+03  0.82234618109E+03  0.26294666651E+03 0.  0.
         25    1    3    3    0    0 -0.57402815345E+02  0.39819300674E+02  0.10411178810E+04  0.10509303546E+04  0.12509000000E+03 0.  0.
         25    1    4    4    0    0  0.31101875594E+02 -0.60726027042E+02  0.41504232213E+03  0.43881956917E+03  0.12509000000E+03 0.  0.
         25    1    4    4    0    0  0.26300939751E+02  0.20906726368E+02  0.36099352254E+03  0.38352661192E+03  0.12509000000E+03 0.  0.
<mgrwt>
<rscale>  2 0.45510144E+03</rscale>
<asrwt>0</asrwt>
<pdfrwt beam="1">  1       21 0.27135508E+00 0.45510144E+03</pdfrwt>
<pdfrwt beam="2">  1       21 0.41266785E-02 0.45510144E+03</pdfrwt>
<totfact> 0.15878652E+04</totfact>
</mgrwt>
</event>
<event>
 7    0  0.4685107E-002  0.4554752E+03  0.7546771E-02  0.1026102E+00
         21   -1    0    0  502  501  0.00000000000E+00  0.00000000000E+00  0.27660702057E+03  0.27660702057E+03  0.00000000000E+00 0. -1.
         21   -1    0    0  501  502 -0.00000000000E+00 -0.00000000000E+00 -0.18750212157E+03  0.18750212157E+03  0.00000000000E+00 0. -1.
      99926    2    1    2    0    0  0.88817841970E-15  0.00000000000E+00  0.89104898996E+02  0.46410914214E+03  0.45547515057E+03 0.  0.
      99925    2    3    3    0    0 -0.79478999135E+01 -0.96184044745E+02 -0.50723938726E+01  0.28017597447E+03  0.26297967205E+03 0.  0.
         25    1    4    4    0    0 -0.34044427393E+02 -0.75584466261E+02  0.66567678911E+01  0.15021269998E+03  0.12509000000E+03 0.  0.
         25    1    4    4    0    0  0.26096527480E+02 -0.20599578484E+02 -0.11729161764E+02  0.12996327449E+03  0.12509000000E+03 0.  0.
         25    1    3    3    0    0  0.79478999135E+01  0.96184044745E+02  0.94177292869E+02  0.18393316767E+03  0.12509000000E+03 0.  0.
<mgrwt>
<rscale>  2 0.45547515E+03</rscale>
<asrwt>0</asrwt>
<pdfrwt beam="1">  1       21 0.40677503E-01 0.45547515E+03</pdfrwt>
<pdfrwt beam="2">  1       21 0.27573841E-01 0.45547515E+03</pdfrwt>
<totfact> 0.67620618E+04</totfact>
</mgrwt>
</event>
<event>
 7    0  0.4685107E-002  0.4572906E+03  0.7546771E-02  0.1025570E+00
         21   -1    0    0  502  501  0.00000000000E+00  0.00000000000E+00  0.36561497207E+02  0.36561497207E+02  0.00000000000E+00 0.  1.
         21   -1    0    0  501  502 -0.00000000000E+00 -0.00000000000E+00 -0.14298833684E+04  0.14298833684E+04  0.00000000000E+00 0.  1.
      99926    2    1    2    0    0  0.00000000000E+00  0.00000000000E+00 -0.13933218712E+04  0.14664448656E+04  0.45729061560E+03 0.  0.
      99925    2    3    3    0    0  0.77915665505E+02  0.68395453255E+02 -0.71273893963E+03  0.76673819578E+03  0.26294842813E+03 0.  0.
         25    1    4    4    0    0  0.17902963883E+02  0.25118582998E+02 -0.42922895486E+03  0.44814781392E+03  0.12509000000E+03 0.  0.
         25    1    3    3    0    0 -0.77915665505E+02 -0.68395453255E+02 -0.68058293157E+03  0.69970666983E+03  0.12509000000E+03 0.  0.
         25    1    4    4    0    0  0.60012701622E+02  0.43276870257E+02 -0.28350998476E+03  0.31859038186E+03  0.12509000000E+03 0.  0.
<mgrwt>
<rscale>  2 0.45729062E+03</rscale>
<asrwt>0</asrwt>
<pdfrwt beam="1">  1       21 0.53766908E-02 0.45729062E+03</pdfrwt>
<pdfrwt beam="2">  1       21 0.21027697E+00 0.45729062E+03</pdfrwt>
<totfact> 0.24180450E+04</totfact>
</mgrwt>
</event>
<event>
 7    0  0.4685107E-002  0.4561010E+03  0.7546771E-02  0.1025918E+00
         21   -1    0    0  502  501  0.00000000000E+00  0.00000000000E+00  0.20317319518E+04  0.20317319518E+04  0.00000000000E+00 0. -1.
         21   -1    0    0  501  502 -0.00000000000E+00 -0.00000000000E+00 -0.25597383978E+02  0.25597383978E+02  0.00000000000E+00 0. -1.
      99926    2    1    2    0    0  0.00000000000E+00  0.00000000000E+00  0.20061345678E+04  0.20573293357E+04  0.45610096650E+03 0.  0.
      99925    2    3    3    0    0  0.13605463889E+02 -0.11165889653E+03  0.11705106513E+04  0.12049399554E+04  0.26293020649E+03 0.  0.
         25    1    4    4    0    0  0.31495299985E+02 -0.40405249777E+02  0.44539422661E+03  0.46545468450E+03  0.12509000000E+03 0.  0.
         25    1    3    3    0    0 -0.13605463889E+02  0.11165889653E+03  0.83562391651E+03  0.85238938037E+03  0.12509000000E+03 0.  0.
         25    1    4    4    0    0 -0.17889836097E+02 -0.71253646752E+02  0.72511642466E+03  0.73948527087E+03  0.12509000000E+03 0.  0.
<mgrwt>
<rscale>  2 0.45610097E+03</rscale>
<asrwt>0</asrwt>
<pdfrwt beam="1">  1       21 0.29878400E+00 0.45610097E+03</pdfrwt>
<pdfrwt beam="2">  1       21 0.37643225E-02 0.45610097E+03</pdfrwt>
<totfact> 0.12687497E+04</totfact>
</mgrwt>
</event>
<event>
 7    0  0.4685107E-002  0.4631026E+03  0.7546771E-02  0.1023885E+00
         21   -1    0    0  502  501  0.00000000000E+00  0.00000000000E+00  0.84804555312E+02  0.84804555312E+02  0.00000000000E+00 0.  1.
         21   -1    0    0  501  502 -0.00000000000E+00 -0.00000000000E+00 -0.63223027992E+03  0.63223027992E+03  0.00000000000E+00 0.  1.
      99926    2    1    2    0    0  0.00000000000E+00  0.00000000000E+00 -0.54742572461E+03  0.71703483523E+03  0.46310261387E+03 0.  0.
      99925    2    3    3    0    0  0.98448308668E+02 -0.33675821970E+02 -0.24749497629E+03  0.37581336412E+03  0.26297488643E+03 0.  0.
         25    1    4    4    0    0  0.62362500600E+02 -0.47851745644E+02 -0.16285481476E+03  0.21988194522E+03  0.12509000000E+03 0.  0.
         25    1    3    3    0    0 -0.98448308668E+02  0.33675821970E+02 -0.29993074832E+03  0.34122147112E+03  0.12509000000E+03 0.  0.
         25    1    4    4    0    0  0.36085808067E+02  0.14175923674E+02 -0.84640161537E+02  0.15593141890E+03  0.12509000000E+03 0.  0.
<mgrwt>
<rscale>  2 0.46310261E+03</rscale>
<asrwt>0</asrwt>
<pdfrwt beam="1">  1       21 0.12471259E-01 0.46310261E+03</pdfrwt>
<pdfrwt beam="2">  1       21 0.92975038E-01 0.46310261E+03</pdfrwt>
<totfact> 0.48802107E+04</totfact>
</mgrwt>
</event>
<event>
 7    0  0.4685107E-002  0.4497710E+03  0.7546771E-02  0.1027790E+00
         21   -1    0    0  502  501  0.00000000000E+00  0.00000000000E+00  0.56399563999E+03  0.56399563999E+03  0.00000000000E+00 0.  1.
         21   -1    0    0  501  502 -0.00000000000E+00 -0.00000000000E+00 -0.89670011673E+02  0.89670011673E+02  0.00000000000E+00 0.  1.
      99926    2    1    2    0    0  0.00000000000E+00  0.00000000000E+00  0.47432562832E+03  0.65366565166E+03  0.44977103340E+03 0.  0.
      99925    2    3    3    0    0  0.11265151209E+01  0.89570193268E+02  0.38804914162E+03  0.47727055872E+03  0.26302273923E+03 0.  0.
         25    1    4    4    0    0 -0.14167770587E+02  0.38016459759E+02  0.25493222365E+03  0.28685174514E+03  0.12509000000E+03 0.  0.
         25    1    4    4    0    0  0.15294285708E+02  0.51553733509E+02  0.13311691796E+03  0.19041881357E+03  0.12509000000E+03 0.  0.
         25    1    3    3    0    0 -0.11265151209E+01 -0.89570193268E+02  0.86276486702E+02  0.17639509295E+03  0.12509000000E+03 0.  0.
<mgrwt>
<rscale>  2 0.44977103E+03</rscale>
<asrwt>0</asrwt>
<pdfrwt beam="1">  1       21 0.82940534E-01 0.44977103E+03</pdfrwt>
<pdfrwt beam="2">  1       21 0.13186767E-01 0.44977103E+03</pdfrwt>
<totfact> 0.57839699E+04</totfact>
</mgrwt>
</event>
<event>
 7    0  0.4685107E-002  0.4580166E+03  0.7546771E-02  0.1025358E+00
         21   -1    0    0  502  501  0.00000000000E+00  0.00000000000E+00  0.28526396375E+03  0.28526396375E+03  0.00000000000E+00 0.  1.
         21   -1    0    0  501  502 -0.00000000000E+00 -0.00000000000E+00 -0.18384653783E+03  0.18384653783E+03  0.00000000000E+00 0.  1.
      99926    2    1    2    0    0 -0.71054273576E-14  0.00000000000E+00  0.10141742592E+03  0.46911050158E+03  0.45801655910E+03 0.  0.
      99925    2    3    3    0    0  0.49064388965E+02 -0.79966363954E+02  0.13332759350E+03  0.30952447298E+03  0.26311065839E+03 0.  0.
         25    1    4    4    0    0  0.50588614194E+02 -0.16835436069E+02  0.89158237097E+02  0.16260178085E+03  0.12509000000E+03 0.  0.
         25    1    4    4    0    0 -0.15242252282E+01 -0.63130927884E+02  0.44169356400E+02  0.14692269213E+03  0.12509000000E+03 0.  0.
         25    1    3    3    0    0 -0.49064388965E+02  0.79966363954E+02 -0.31910167577E+02  0.15958602860E+03  0.12509000000E+03 0.  0.
<mgrwt>
<rscale>  2 0.45801656E+03</rscale>
<asrwt>0</asrwt>
<pdfrwt beam="1">  1       21 0.41950583E-01 0.45801656E+03</pdfrwt>
<pdfrwt beam="2">  1       21 0.27036255E-01 0.45801656E+03</pdfrwt>
<totfact> 0.65911009E+04</totfact>
</mgrwt>
</event>
<event>
 7    0  0.4685107E-002  0.4344969E+03  0.7546771E-02  0.1032449E+00
         21   -1    0    0  502  501  0.00000000000E+00  0.00000000000E+00  0.23953820370E+04  0.23953820370E+04  0.00000000000E+00 0. -1.
         21   -1    0    0  501  502 -0.00000000000E+00 -0.00000000000E+00 -0.19703280207E+02  0.19703280207E+02  0.00000000000E+00 0. -1.
      99926    2    1    2    0    0  0.17763568394E-14  0.00000000000E+00  0.23756787568E+04  0.24150853172E+04  0.43449687446E+03 0.  0.
      99925    2    3    3    0    0  0.13684303963E+02  0.11671226258E+02  0.10209915892E+04  0.10545162055E+04  0.26316748406E+03 0.  0.
         25    1    4    4    0    0  0.14841153131E+02 -0.14180430516E+02  0.64729472697E+03  0.65959026380E+03  0.12509000000E+03 0.  0.
         25    1    3    3    0    0 -0.13684303963E+02 -0.11671226258E+02  0.13546871676E+04  0.13605691117E+04  0.12509000000E+03 0.  0.
         25    1    4    4    0    0 -0.11568491676E+01  0.25851656774E+02  0.37369686228E+03  0.39492594171E+03  0.12509000000E+03 0.  0.
<mgrwt>
<rscale>  2 0.43449687E+03</rscale>
<asrwt>0</asrwt>
<pdfrwt beam="1">  1       21 0.35226186E+00 0.43449687E+03</pdfrwt>
<pdfrwt beam="2">  1       21 0.28975429E-02 0.43449687E+03</pdfrwt>
<totfact> 0.94602086E+03</totfact>
</mgrwt>
</event>
<event>
 7    0  0.4685107E-002  0.4596878E+03  0.7546771E-02  0.1024872E+00
         21   -1    0    0  502  501  0.00000000000E+00  0.00000000000E+00  0.93912024601E+02  0.93912024601E+02  0.00000000000E+00 0.  1.
         21   -1    0    0  501  502 -0.00000000000E+00 -0.00000000000E+00 -0.56252874780E+03  0.56252874780E+03  0.00000000000E+00 0.  1.
      99926    2    1    2    0    0  0.00000000000E+00  0.17763568394E-14 -0.46861672320E+03  0.65644077240E+03  0.45968777927E+03 0.  0.
      99925    2    3    3    0    0 -0.11306456929E+03 -0.91542828682E+01 -0.33682063350E+03  0.44223266078E+03  0.26316190718E+03 0.  0.
         25    1    4    4    0    0 -0.99166737012E+02  0.24402649068E+01 -0.17459239423E+03  0.23657981496E+03  0.12509000000E+03 0.  0.
         25    1    3    3    0    0  0.11306456929E+03  0.91542828682E+01 -0.13179608970E+03  0.21420811162E+03  0.12509000000E+03 0.  0.
         25    1    4    4    0    0 -0.13897832275E+02 -0.11594547775E+02 -0.16222823926E+03  0.20565284582E+03  0.12509000000E+03 0.  0.
<mgrwt>
<rscale>  2 0.45968778E+03</rscale>
<asrwt>0</asrwt>
<pdfrwt beam="1">  1       21 0.13810592E-01 0.45968778E+03</pdfrwt>
<pdfrwt beam="2">  1       21 0.82724818E-01 0.45968778E+03</pdfrwt>
<totfact> 0.53332448E+04</totfact>
</mgrwt>
</event>
<event>
 7    0  0.4685107E-002  0.4565397E+03  0.7546771E-02  0.1025790E+00
         21   -1    0    0  502  501  0.00000000000E+00  0.00000000000E+00  0.93850391965E+02  0.93850391965E+02  0.00000000000E+00 0. -1.
         21   -1    0    0  501  502 -0.00000000000E+00 -0.00000000000E+00 -0.55521485221E+03  0.55521485221E+03  0.00000000000E+00 0. -1.
      99926    2    1    2    0    0  0.00000000000E+00  0.00000000000E+00 -0.46136446024E+03  0.64906524417E+03  0.45653973104E+03 0.  0.
      99925    2    3    3    0    0 -0.17631857655E+02  0.11289601119E+03 -0.28786315690E+03  0.40656451817E+03  0.26338777229E+03 0.  0.
         25    1    4    4    0    0  0.12404731925E+02  0.74139191052E+02 -0.19357679114E+03  0.24242520329E+03  0.12509000000E+03 0.  0.
         25    1    4    4    0    0 -0.30036589580E+02  0.38756820143E+02 -0.94286365762E+02  0.16413931488E+03  0.12509000000E+03 0.  0.
         25    1    3    3    0    0  0.17631857655E+02 -0.11289601119E+03 -0.17350130334E+03  0.24250072600E+03  0.12509000000E+03 0.  0.
<mgrwt>
<rscale>  2 0.45653973E+03</rscale>
<asrwt>0</asrwt>
<pdfrwt beam="1">  1       21 0.13801527E-01 0.45653973E+03</pdfrwt>
<pdfrwt beam="2">  1       21 0.81649248E-01 0.45653973E+03</pdfrwt>
<totfact> 0.55083198E+04</totfact>
</mgrwt>
</event>
<event>
 7    0  0.4685107E-002  0.4589769E+03  0.7546771E-02  0.1025078E+00
         21   -1    0    0  502  501  0.00000000000E+00  0.00000000000E+00  0.79906328617E+02  0.79906328617E+02  0.00000000000E+00 0.  1.
         21   -1    0    0  501  502 -0.00000000000E+00 -0.00000000000E+00 -0.65908357125E+03  0.65908357125E+03  0.00000000000E+00 0.  1.
      99926    2    1    2    0    0  0.00000000000E+00  0.00000000000E+00 -0.57917724263E+03  0.73898989986E+03  0.45897689890E+03 0.  0.
      99925    2    3    3    0    0  0.10993323922E+03  0.32676752264E+02 -0.39901270442E+03  0.49148261481E+03  0.26304169850E+03 0.  0.
         25    1    4    4    0    0  0.66334046847E+02  0.11468044889E+02 -0.13819753790E+03  0.19818624929E+03  0.12509000000E+03 0.  0.
         25    1    3    3    0    0 -0.10993323922E+03 -0.32676752264E+02 -0.18016453821E+03  0.24750728505E+03  0.12509000000E+03 0.  0.
         25    1    4    4    0    0  0.43599192377E+02  0.21208707376E+02 -0.26081516652E+03  0.29329636552E+03  0.12509000000E+03 0.  0.
<mgrwt>
<rscale>  2 0.45897690E+03</rscale>
<asrwt>0</asrwt>
<pdfrwt beam="1">  1       21 0.11750931E-01 0.45897690E+03</pdfrwt>
<pdfrwt beam="2">  1       21 0.96924050E-01 0.45897690E+03</pdfrwt>
<totfact> 0.49277806E+04</totfact>
</mgrwt>
</event>
<event>
 7    0  0.4685107E-002  0.4036598E+03  0.7546771E-02  0.1042520E+00
         21   -1    0    0  502  501  0.00000000000E+00  0.00000000000E+00  0.12283735272E+03  0.12283735272E+03  0.00000000000E+00 0. -1.
         21   -1    0    0  501  502 -0.00000000000E+00 -0.00000000000E+00 -0.33161996359E+03  0.33161996359E+03  0.00000000000E+00 0. -1.
      99926    2    1    2    0    0  0.00000000000E+00  0.17763568394E-14 -0.20878261087E+03  0.45445731630E+03  0.40365984906E+03 0.  0.
      99925    2    3    3    0    0  0.45812173560E+02 -0.15576954110E+02 -0.11737077479E+03  0.29214579909E+03  0.26311950213E+03 0.  0.
         25    1    4    4    0    0 -0.61581130504E+01 -0.22933429675E+02 -0.83707045335E+02  0.15237533295E+03  0.12509000000E+03 0.  0.
         25    1    3    3    0    0 -0.45812173560E+02  0.15576954110E+02 -0.91411836079E+02  0.16231151722E+03  0.12509000000E+03 0.  0.
         25    1    4    4    0    0  0.51970286611E+02  0.73564755652E+01 -0.33663729458E+02  0.13977046614E+03  0.12509000000E+03 0.  0.
<mgrwt>
<rscale>  2 0.40365985E+03</rscale>
<asrwt>0</asrwt>
<pdfrwt beam="1">  1       21 0.18064317E-01 0.40365985E+03</pdfrwt>
<pdfrwt beam="2">  1       21 0.48767641E-01 0.40365985E+03</pdfrwt>
<totfact> 0.10546185E+05</totfact>
</mgrwt>
</event>
<event>
 7    0  0.4685107E-002  0.4532006E+03  0.7546771E-02  0.1026772E+00
         21   -1    0    0  502  501  0.00000000000E+00  0.00000000000E+00  0.56417975864E+02  0.56417975864E+02  0.00000000000E+00 0. -1.
         21   -1    0    0  501  502 -0.00000000000E+00 -0.00000000000E+00 -0.91012999333E+03  0.91012999333E+03  0.00000000000E+00 0. -1.
      99926    2    1    2    0    0  0.00000000000E+00  0.00000000000E+00 -0.85371201747E+03  0.96654796920E+03  0.45320058251E+03 0.  0.
      99925    2    3    3    0    0 -0.79423362751E+02 -0.44136302625E+01 -0.37154096816E+03  0.46210374079E+03  0.26300118925E+03 0.  0.
         25    1    4    4    0    0 -0.47539695801E+02  0.57123370399E+01 -0.12297172099E+03  0.18183015629E+03  0.12509000000E+03 0.  0.
         25    1    3    3    0    0  0.79423362751E+02  0.44136302625E+01 -0.48217104931E+03  0.50444422841E+03  0.12509000000E+03 0.  0.
         25    1    4    4    0    0 -0.31883666950E+02 -0.10125967302E+02 -0.24856924716E+03  0.28027358450E+03  0.12509000000E+03 0.  0.
<mgrwt>
<rscale>  2 0.45320058E+03</rscale>
<asrwt>0</asrwt>
<pdfrwt beam="1">  1       21 0.82967608E-02 0.45320058E+03</pdfrwt>
<pdfrwt beam="2">  1       21 0.13384265E+00 0.45320058E+03</pdfrwt>
<totfact> 0.41052424E+04</totfact>
</mgrwt>
</event>
<event>
 7    0  0.4685107E-002  0.4523614E+03  0.7546771E-02  0.1027020E+00
         21   -1    0    0  502  501  0.00000000000E+00  0.00000000000E+00  0.11328091380E+03  0.11328091380E+03  0.00000000000E+00 0. -1.
         21   -1    0    0  501  502 -0.00000000000E+00 -0.00000000000E+00 -0.45160038691E+03  0.45160038691E+03  0.00000000000E+00 0. -1.
      99926    2    1    2    0    0  0.00000000000E+00  0.71054273576E-14 -0.33831947311E+03  0.56488130070E+03  0.45236137987E+03 0.  0.
      99925    2    3    3    0    0 -0.65331559068E+02 -0.48168315185E+02 -0.30721586418E+03  0.41255486903E+03  0.26311885823E+03 0.  0.
         25    1    4    4    0    0 -0.22908282721E+02 -0.63861458144E+02 -0.16196409831E+03  0.21559905495E+03  0.12509000000E+03 0.  0.
         25    1    3    3    0    0  0.65331559068E+02  0.48168315185E+02 -0.31103608929E+02  0.15232643167E+03  0.12509000000E+03 0.  0.
         25    1    4    4    0    0 -0.42423276347E+02  0.15693142959E+02 -0.14525176587E+03  0.19695581408E+03  0.12509000000E+03 0.  0.
<mgrwt>
<rscale>  2 0.45236138E+03</rscale>
<asrwt>0</asrwt>
<pdfrwt beam="1">  1       21 0.16658958E-01 0.45236138E+03</pdfrwt>
<pdfrwt beam="2">  1       21 0.66411822E-01 0.45236138E+03</pdfrwt>
<totfact> 0.62181223E+04</totfact>
</mgrwt>
</event>
<event>
 7    0  0.4685107E-002  0.4606118E+03  0.7546771E-02  0.1024604E+00
         21   -1    0    0  502  501  0.00000000000E+00  0.00000000000E+00  0.10202499283E+04  0.10202499283E+04  0.00000000000E+00 0. -1.
         21   -1    0    0  501  502 -0.00000000000E+00 -0.00000000000E+00 -0.51988045588E+02  0.51988045588E+02  0.00000000000E+00 0. -1.
      99926    2    1    2    0    0  0.00000000000E+00 -0.35527136788E-14  0.96826188270E+03  0.10722379739E+04  0.46061176617E+03 0.  0.
      99925    2    3    3    0    0 -0.48702934672E+02 -0.13570787189E+02  0.35718967202E+03  0.44644815542E+03  0.26301207496E+03 0.  0.
         25    1    4    4    0    0 -0.19874606184E+02  0.33277750808E+02  0.16577561791E+03  0.21126162042E+03  0.12509000000E+03 0.  0.
         25    1    3    3    0    0  0.48702934672E+02  0.13570787189E+02  0.61107221069E+03  0.62578981846E+03  0.12509000000E+03 0.  0.
         25    1    4    4    0    0 -0.28828328489E+02 -0.46848537996E+02  0.19141405410E+03  0.23518653500E+03  0.12509000000E+03 0.  0.
<mgrwt>
<rscale>  2 0.46061177E+03</rscale>
<asrwt>0</asrwt>
<pdfrwt beam="1">  1       21 0.15003674E+00 0.46061177E+03</pdfrwt>
<pdfrwt beam="2">  1       21 0.76453015E-02 0.46061177E+03</pdfrwt>
<totfact> 0.34917525E+04</totfact>
</mgrwt>
</event>
<event>
 7    0  0.4685107E-002  0.4524437E+03  0.7546771E-02  0.1026996E+00
         21   -1    0    0  502  501  0.00000000000E+00  0.00000000000E+00  0.18115386250E+04  0.18115386250E+04  0.00000000000E+00 0.  1.
         21   -1    0    0  501  502 -0.00000000000E+00 -0.00000000000E+00 -0.28250203548E+02  0.28250203548E+02  0.00000000000E+00 0.  1.
      99926    2    1    2    0    0  0.00000000000E+00 -0.44408920985E-15  0.17832884215E+04  0.18397888286E+04  0.45244374188E+03 0.  0.
      99925    2    3    3    0    0  0.84294892241E+02  0.14570040376E+01  0.83401400073E+03  0.87860352609E+03  0.26316734396E+03 0.  0.
         25    1    4    4    0    0  0.27099390561E+02 -0.26707985586E+02  0.48743295728E+03  0.50466433340E+03  0.12509000000E+03 0.  0.
         25    1    3    3    0    0 -0.84294892241E+02 -0.14570040376E+01  0.94927442073E+03  0.96118530246E+03  0.12509000000E+03 0.  0.
         25    1    4    4    0    0  0.57195501680E+02  0.28164989624E+02  0.34658104346E+03  0.37393919270E+03  0.12509000000E+03 0.  0.
<mgrwt>
<rscale>  2 0.45244374E+03</rscale>
<asrwt>0</asrwt>
<pdfrwt beam="1">  1       21 0.26640266E+00 0.45244374E+03</pdfrwt>
<pdfrwt beam="2">  1       21 0.41544429E-02 0.45244374E+03</pdfrwt>
<totfact> 0.16838541E+04</totfact>
</mgrwt>
</event>
<event>
 7    0  0.4685107E-002  0.4484119E+03  0.7546771E-02  0.1028197E+00
         21   -1    0    0  502  501  0.00000000000E+00  0.00000000000E+00  0.21858137057E+03  0.21858137057E+03  0.00000000000E+00 0. -1.
         21   -1    0    0  501  502 -0.00000000000E+00 -0.00000000000E+00 -0.22997527910E+03  0.22997527910E+03  0.00000000000E+00 0. -1.
      99926    2    1    2    0    0  0.00000000000E+00  0.00000000000E+00 -0.11393908530E+02  0.44855664966E+03  0.44841191644E+03 0.  0.
      99925    2    3    3    0    0 -0.20779403649E+02 -0.61147023023E+02  0.77942238136E+02  0.28182573699E+03  0.26302093358E+03 0.  0.
         25    1    3    3    0    0  0.20779403649E+02  0.61147023023E+02 -0.89336146666E+02  0.16673091268E+03  0.12509000000E+03 0.  0.
         25    1    4    4    0    0 -0.40045511121E+02 -0.24396485228E+02  0.67352153840E+02  0.14960832924E+03  0.12509000000E+03 0.  0.
         25    1    4    4    0    0  0.19266107473E+02 -0.36750537794E+02  0.10590084296E+02  0.13221740774E+03  0.12509000000E+03 0.  0.
<mgrwt>
<rscale>  2 0.44841192E+03</rscale>
<asrwt>0</asrwt>
<pdfrwt beam="1">  1       21 0.32144319E-01 0.44841192E+03</pdfrwt>
<pdfrwt beam="2">  1       21 0.33819894E-01 0.44841192E+03</pdfrwt>
<totfact> 0.72771142E+04</totfact>
</mgrwt>
</event>
<event>
 7    0  0.4685107E-002  0.4627345E+03  0.7546771E-02  0.1023991E+00
         21   -1    0    0  502  501  0.00000000000E+00  0.00000000000E+00  0.53368626694E+02  0.53368626694E+02  0.00000000000E+00 0.  1.
         21   -1    0    0  501  502 -0.00000000000E+00 -0.00000000000E+00 -0.10030386854E+04  0.10030386854E+04  0.00000000000E+00 0.  1.
      99926    2    1    2    0    0 -0.17763568394E-14  0.00000000000E+00 -0.94967005873E+03  0.10564073121E+04  0.46273446883E+03 0.  0.
      99925    2    3    3    0    0  0.85291786839E+01 -0.67891859179E+02 -0.81934217218E+03  0.86323661676E+03  0.26300914428E+03 0.  0.
         25    1    3    3    0    0 -0.85291786839E+01  0.67891859179E+02 -0.13032788656E+03  0.19317069536E+03  0.12509000000E+03 0.  0.
         25    1    4    4    0    0  0.32758519394E+02 -0.62079579939E+02 -0.40096100088E+03  0.42584530896E+03  0.12509000000E+03 0.  0.
         25    1    4    4    0    0 -0.24229340710E+02 -0.58122792401E+01 -0.41838117130E+03  0.43739130780E+03  0.12509000000E+03 0.  0.
<mgrwt>
<rscale>  2 0.46273447E+03</rscale>
<asrwt>0</asrwt>
<pdfrwt beam="1">  1       21 0.78483281E-02 0.46273447E+03</pdfrwt>
<pdfrwt beam="2">  1       21 0.14750568E+00 0.46273447E+03</pdfrwt>
<totfact> 0.34888986E+04</totfact>
</mgrwt>
</event>
<event>
 7    0  0.4685107E-002  0.4640224E+03  0.7546771E-02  0.1023621E+00
         21   -1    0    0  502  501  0.00000000000E+00  0.00000000000E+00  0.36033974266E+03  0.36033974266E+03  0.00000000000E+00 0.  1.
         21   -1    0    0  501  502 -0.00000000000E+00 -0.00000000000E+00 -0.14938454004E+03  0.14938454004E+03  0.00000000000E+00 0.  1.
      99926    2    1    2    0    0  0.17763568394E-14  0.14210854715E-13  0.21095520262E+03  0.50972428270E+03  0.46402235600E+03 0.  0.
      99925    2    3    3    0    0  0.72392959903E+01 -0.12124679816E+03  0.12915739457E+03  0.31713253062E+03  0.26294146864E+03 0.  0.
         25    1    4    4    0    0  0.31001079666E+02 -0.31397888587E+02  0.73559619225E+02  0.15167537713E+03  0.12509000000E+03 0.  0.
         25    1    3    3    0    0 -0.72392959903E+01  0.12124679816E+03  0.81797808051E+02  0.19259175209E+03  0.12509000000E+03 0.  0.
         25    1    4    4    0    0 -0.23761783676E+02 -0.89848909571E+02  0.55597775348E+02  0.16545715348E+03  0.12509000000E+03 0.  0.
<mgrwt>
<rscale>  2 0.46402236E+03</rscale>
<asrwt>0</asrwt>
<pdfrwt beam="1">  1       21 0.52991138E-01 0.46402236E+03</pdfrwt>
<pdfrwt beam="2">  1       21 0.21968315E-01 0.46402236E+03</pdfrwt>
<totfact> 0.60167147E+04</totfact>
</mgrwt>
</event>
<event>
 7    0  0.4685107E-002  0.4413069E+03  0.7546771E-02  0.1030347E+00
         21   -1    0    0  502  501  0.00000000000E+00  0.00000000000E+00  0.13796268038E+03  0.13796268038E+03  0.00000000000E+00 0.  1.
         21   -1    0    0  501  502 -0.00000000000E+00 -0.00000000000E+00 -0.35290669251E+03  0.35290669251E+03  0.00000000000E+00 0.  1.
      99926    2    1    2    0    0  0.88817841970E-15  0.00000000000E+00 -0.21494401213E+03  0.49086937290E+03  0.44130693729E+03 0.  0.
      99925    2    3    3    0    0 -0.63258576476E+01 -0.86136171595E+02 -0.81887944185E+02  0.28885233933E+03  0.26319305083E+03 0.  0.
         25    1    4    4    0    0 -0.21443083331E+01 -0.12308676170E+01 -0.46906809361E+02  0.13361837433E+03  0.12509000000E+03 0.  0.
         25    1    3    3    0    0  0.63258576476E+01  0.86136171595E+02 -0.13305606795E+03  0.20201703356E+03  0.12509000000E+03 0.  0.
         25    1    4    4    0    0 -0.41815493145E+01 -0.84905303978E+02 -0.34981134824E+02  0.15523396501E+03  0.12509000000E+03 0.  0.
<mgrwt>
<rscale>  2 0.44130694E+03</rscale>
<asrwt>0</asrwt>
<pdfrwt beam="1">  1       21 0.20288630E-01 0.44130694E+03</pdfrwt>
<pdfrwt beam="2">  1       21 0.51898042E-01 0.44130694E+03</pdfrwt>
<totfact> 0.73597353E+04</totfact>
</mgrwt>
</event>
<event>
 7    0  0.4685107E-002  0.4439535E+03  0.7546771E-02  0.1029541E+00
         21   -1    0    0  502  501  0.00000000000E+00  0.00000000000E+00  0.45030400481E+02  0.45030400481E+02  0.00000000000E+00 0.  1.
         21   -1    0    0  501  502 -0.00000000000E+00 -0.00000000000E+00 -0.10942313166E+04  0.10942313166E+04  0.00000000000E+00 0.  1.
      99926    2    1    2    0    0  0.00000000000E+00  0.00000000000E+00 -0.10492009161E+04  0.11392617171E+04  0.44395348587E+03 0.  0.
      99925    2    3    3    0    0  0.95210472861E+02 -0.23345766411E+02 -0.59014499841E+03  0.65347379768E+03  0.26295784102E+03 0.  0.
         25    1    3    3    0    0 -0.95210472861E+02  0.23345766411E+02 -0.45905591769E+03  0.48578791938E+03  0.12509000000E+03 0.  0.
         25    1    4    4    0    0  0.17224244728E+02 -0.28499291075E+02 -0.22363124383E+03  0.25839374124E+03  0.12509000000E+03 0.  0.
         25    1    4    4    0    0  0.77986228134E+02  0.51535246636E+01 -0.36651375459E+03  0.39508005644E+03  0.12509000000E+03 0.  0.
<mgrwt>
<rscale>  2 0.44395349E+03</rscale>
<asrwt>0</asrwt>
<pdfrwt beam="1">  1       21 0.66221182E-02 0.44395349E+03</pdfrwt>
<pdfrwt beam="2">  1       21 0.16091636E+00 0.44395349E+03</pdfrwt>
<totfact> 0.37248216E+04</totfact>
</mgrwt>
</event>
<event>
 7    0  0.4685107E-002  0.4570004E+03  0.7546771E-02  0.1025655E+00
         21   -1    0    0  502  501  0.00000000000E+00  0.00000000000E+00  0.16008489159E+03  0.16008489159E+03  0.00000000000E+00 0.  1.
         21   -1    0    0  501  502 -0.00000000000E+00 -0.00000000000E+00 -0.32615415284E+03  0.32615415284E+03  0.00000000000E+00 0.  1.
      99926    2    1    2    0    0  0.00000000000E+00  0.00000000000E+00 -0.16606926125E+03  0.48623904443E+03  0.45700044726E+03 0.  0.
      99925    2    3    3    0    0 -0.43278577702E+02  0.88262061992E+02 -0.41011507664E+02  0.28387754437E+03  0.26313739674E+03 0.  0.
         25    1    4    4    0    0 -0.43782403453E+02  0.81182129946E+02 -0.17518726714E+02  0.15640284831E+03  0.12509000000E+03 0.  0.
         25    1    3    3    0    0  0.43278577702E+02 -0.88262061992E+02 -0.12505775359E+03  0.20236150006E+03  0.12509000000E+03 0.  0.
         25    1    4    4    0    0  0.50382575091E+00  0.70799320461E+01 -0.23492780951E+02  0.12747469606E+03  0.12509000000E+03 0.  0.
<mgrwt>
<rscale>  2 0.45700045E+03</rscale>
<asrwt>0</asrwt>
<pdfrwt beam="1">  1       21 0.23541896E-01 0.45700045E+03</pdfrwt>
<pdfrwt beam="2">  1       21 0.47963846E-01 0.45700045E+03</pdfrwt>
<totfact> 0.65207001E+04</totfact>
</mgrwt>
</event>
<event>
 7    0  0.4685107E-002  0.4702978E+03  0.7546771E-02  0.1021836E+00
         21   -1    0    0  502  501  0.00000000000E+00  0.00000000000E+00  0.33001686142E+03  0.33001686142E+03  0.00000000000E+00 0. -1.
         21   -1    0    0  501  502 -0.00000000000E+00 -0.00000000000E+00 -0.16755207941E+03  0.16755207941E+03  0.00000000000E+00 0. -1.
      99926    2    1    2    0    0  0.00000000000E+00  0.00000000000E+00  0.16246478201E+03  0.49756894083E+03  0.47029782637E+03 0.  0.
      99925    2    3    3    0    0 -0.77525609097E+02 -0.28609086035E+01 -0.54452520803E+01  0.27427610057E+03  0.26301962609E+03 0.  0.
         25    1    4    4    0    0  0.33064357862E+01 -0.30632320159E+01 -0.64731669111E+01  0.12533844541E+03  0.12509000000E+03 0.  0.
         25    1    4    4    0    0 -0.80832044883E+02  0.20232341232E+00  0.10279148308E+01  0.14893765516E+03  0.12509000000E+03 0.  0.
         25    1    3    3    0    0  0.77525609097E+02  0.28609086035E+01  0.16791003409E+03  0.22329284026E+03  0.12509000000E+03 0.  0.
<mgrwt>
<rscale>  2 0.47029783E+03</rscale>
<asrwt>0</asrwt>
<pdfrwt beam="1">  1       21 0.48531891E-01 0.47029783E+03</pdfrwt>
<pdfrwt beam="2">  1       21 0.24640012E-01 0.47029783E+03</pdfrwt>
<totfact> 0.58063561E+04</totfact>
</mgrwt>
</event>
<event>
 7    0  0.4685107E-002  0.4601501E+03  0.7546771E-02  0.1024738E+00
         21   -1    0    0  502  501  0.00000000000E+00  0.00000000000E+00  0.29494728821E+02  0.29494728821E+02  0.00000000000E+00 0. -1.
         21   -1    0    0  501  502 -0.00000000000E+00 -0.00000000000E+00 -0.17947113536E+04  0.17947113536E+04  0.00000000000E+00 0. -1.
      99926    2    1    2    0    0 -0.71054273576E-14  0.00000000000E+00 -0.17652166248E+04  0.18242060824E+04  0.46015008285E+03 0.  0.
      99925    2    3    3    0    0 -0.49784626632E+02 -0.64492513831E+02 -0.76873355795E+03  0.81660308323E+03  0.26315683355E+03 0.  0.
         25    1    3    3    0    0  0.49784626632E+02  0.64492513831E+02 -0.99648306686E+03  0.10076029992E+04  0.12509000000E+03 0.  0.
         25    1    4    4    0    0 -0.86869014060E+01 -0.43977269543E+02 -0.27842045741E+03  0.30850433011E+03  0.12509000000E+03 0.  0.
         25    1    4    4    0    0 -0.41097725226E+02 -0.20515244288E+02 -0.49031310054E+03  0.50809875312E+03  0.12509000000E+03 0.  0.
<mgrwt>
<rscale>  2 0.46015008E+03</rscale>
<asrwt>0</asrwt>
<pdfrwt beam="1">  1       21 0.43374595E-02 0.46015008E+03</pdfrwt>
<pdfrwt beam="2">  1       21 0.26392818E+00 0.46015008E+03</pdfrwt>
<totfact> 0.16143791E+04</totfact>
</mgrwt>
</event>
<event>
 7    0  0.4685107E-002  0.4603840E+03  0.7546771E-02  0.1024670E+00
         21   -1    0    0  502  501  0.00000000000E+00  0.00000000000E+00  0.11778796645E+03  0.11778796645E+03  0.00000000000E+00 0.  1.
         21   -1    0    0  501  502 -0.00000000000E+00 -0.00000000000E+00 -0.44986226370E+03  0.44986226370E+03  0.00000000000E+00 0.  1.
      99926    2    1    2    0    0  0.00000000000E+00  0.00000000000E+00 -0.33207429725E+03  0.56765023015E+03  0.46038401894E+03 0.  0.
      99925    2    3    3    0    0 -0.41213426774E+02  0.96319920370E+02 -0.27566891562E+03  0.39500855272E+03  0.26279713103E+03 0.  0.
         25    1    4    4    0    0 -0.53423487997E+02  0.66668163791E+02 -0.17366347453E+03  0.23044570645E+03  0.12509000000E+03 0.  0.
         25    1    3    3    0    0  0.41213426774E+02 -0.96319920370E+02 -0.56405381629E+02  0.17264167742E+03  0.12509000000E+03 0.  0.
         25    1    4    4    0    0  0.12210061223E+02  0.29651756579E+02 -0.10200544108E+03  0.16456284627E+03  0.12509000000E+03 0.  0.
<mgrwt>
<rscale>  2 0.46038402E+03</rscale>
<asrwt>0</asrwt>
<pdfrwt beam="1">  1       21 0.17321760E-01 0.46038402E+03</pdfrwt>
<pdfrwt beam="2">  1       21 0.66156216E-01 0.46038402E+03</pdfrwt>
<totfact> 0.58197164E+04</totfact>
</mgrwt>
</event>
<event>
 7    0  0.4685107E-002  0.4570321E+03  0.7546771E-02  0.1025646E+00
         21   -1    0    0  502  501  0.00000000000E+00  0.00000000000E+00  0.31328827253E+03  0.31328827253E+03  0.00000000000E+00 0. -1.
         21   -1    0    0  501  502 -0.00000000000E+00 -0.00000000000E+00 -0.16668219070E+03  0.16668219070E+03  0.00000000000E+00 0. -1.
      99926    2    1    2    0    0 -0.35527136788E-14  0.00000000000E+00  0.14660608183E+03  0.47997046323E+03  0.45703205833E+03 0.  0.
      99925    2    3    3    0    0 -0.20802251971E+02 -0.67480161838E+02  0.18756738183E+03  0.33059964236E+03  0.26292260244E+03 0.  0.
         25    1    3    3    0    0  0.20802251971E+02  0.67480161838E+02 -0.40961300002E+02  0.14937082087E+03  0.12509000000E+03 0.  0.
         25    1    4    4    0    0 -0.42906246127E+02 -0.59231468502E+02  0.96961075108E+02  0.17435099943E+03  0.12509000000E+03 0.  0.
         25    1    4    4    0    0  0.22103994156E+02 -0.82486933359E+01  0.90606306724E+02  0.15624864293E+03  0.12509000000E+03 0.  0.
<mgrwt>
<rscale>  2 0.45703206E+03</rscale>
<asrwt>0</asrwt>
<pdfrwt beam="1">  1       21 0.46071805E-01 0.45703206E+03</pdfrwt>
<pdfrwt beam="2">  1       21 0.24512087E-01 0.45703206E+03</pdfrwt>
<totfact> 0.65637198E+04</totfact>
</mgrwt>
</event>
<event>
 7    0  0.4685107E-002  0.4520331E+03  0.7546771E-02  0.1027117E+00
         21   -1    0    0  502  501  0.00000000000E+00  0.00000000000E+00  0.71116499104E+03  0.71116499104E+03  0.00000000000E+00 0. -1.
         21   -1    0    0  501  502 -0.00000000000E+00 -0.00000000000E+00 -0.71830702170E+02  0.71830702170E+02  0.00000000000E+00 0. -1.
      99926    2    1    2    0    0  0.35527136788E-14  0.00000000000E+00  0.63933428887E+03  0.78299569321E+03  0.45203309908E+03 0.  0.
      99925    2    3    3    0    0 -0.19103468585E+02 -0.35425185460E+02  0.22541012661E+03  0.34871397994E+03  0.26300537704E+03 0.  0.
         25    1    4    4    0    0 -0.37010871176E+02 -0.69858665200E+01  0.76639695117E+02  0.15145876628E+03  0.12509000000E+03 0.  0.
         25    1    4    4    0    0  0.17907402591E+02 -0.28439318940E+02  0.14877043149E+03  0.19725521366E+03  0.12509000000E+03 0.  0.
         25    1    3    3    0    0  0.19103468585E+02  0.35425185460E+02  0.41392416226E+03  0.43428171327E+03  0.12509000000E+03 0.  0.
<mgrwt>
<rscale>  2 0.45203310E+03</rscale>
<asrwt>0</asrwt>
<pdfrwt beam="1">  1       21 0.10458308E+00 0.45203310E+03</pdfrwt>
<pdfrwt beam="2">  1       21 0.10563339E-01 0.45203310E+03</pdfrwt>
<totfact> 0.49746707E+04</totfact>
</mgrwt>
</event>
<event>
 7    0  0.4685107E-002  0.4528863E+03  0.7546771E-02  0.1026865E+00
         21   -1    0    0  502  501  0.00000000000E+00  0.00000000000E+00  0.97851325843E+02  0.97851325843E+02  0.00000000000E+00 0.  1.
         21   -1    0    0  501  502 -0.00000000000E+00 -0.00000000000E+00 -0.52402450025E+03  0.52402450025E+03  0.00000000000E+00 0.  1.
      99926    2    1    2    0    0  0.00000000000E+00  0.14210854715E-13 -0.42617317441E+03  0.62187582609E+03  0.45288626441E+03 0.  0.
      99925    2    3    3    0    0 -0.51303463197E+02  0.82387697665E+02 -0.19451845923E+03  0.34128503290E+03  0.26309364233E+03 0.  0.
         25    1    3    3    0    0  0.51303463197E+02 -0.82387697665E+02 -0.23165471517E+03  0.28059079319E+03  0.12509000000E+03 0.  0.
         25    1    4    4    0    0 -0.24304716917E+02  0.52519159166E+02 -0.51691374789E+02  0.14720219995E+03  0.12509000000E+03 0.  0.
         25    1    4    4    0    0 -0.26998746280E+02  0.29868538499E+02 -0.14282708444E+03  0.19408283294E+03  0.12509000000E+03 0.  0.
<mgrwt>
<rscale>  2 0.45288626E+03</rscale>
<asrwt>0</asrwt>
<pdfrwt beam="1">  1       21 0.14389901E-01 0.45288626E+03</pdfrwt>
<pdfrwt beam="2">  1       21 0.77062425E-01 0.45288626E+03</pdfrwt>
<totfact> 0.58318823E+04</totfact>
</mgrwt>
</event>
<event>
 7    0  0.4685107E-002  0.4541422E+03  0.7546771E-02  0.1026494E+00
         21   -1    0    0  502  501  0.00000000000E+00  0.00000000000E+00  0.85810241224E+03  0.85810241224E+03  0.00000000000E+00 0.  1.
         21   -1    0    0  501  502 -0.00000000000E+00 -0.00000000000E+00 -0.60087568737E+02  0.60087568737E+02  0.00000000000E+00 0.  1.
      99926    2    1    2    0    0  0.00000000000E+00 -0.71054273576E-14  0.79801484350E+03  0.91818998098E+03  0.45414221420E+03 0.  0.
      99925    2    3    3    0    0  0.97613643211E+02 -0.55534897553E+02  0.50025842347E+03  0.57625586165E+03  0.26305850994E+03 0.  0.
         25    1    3    3    0    0 -0.97613643211E+02  0.55534897553E+02  0.29775642004E+03  0.34193411933E+03  0.12509000000E+03 0.  0.
         25    1    4    4    0    0  0.21819554038E+02 -0.20433468811E+02  0.29470995303E+03  0.32155105987E+03  0.12509000000E+03 0.  0.
         25    1    4    4    0    0  0.75794089173E+02 -0.35101428742E+02  0.20554847044E+03  0.25470480178E+03  0.12509000000E+03 0.  0.
<mgrwt>
<rscale>  2 0.45414221E+03</rscale>
<asrwt>0</asrwt>
<pdfrwt beam="1">  1       21 0.12619152E+00 0.45414221E+03</pdfrwt>
<pdfrwt beam="2">  1       21 0.88364077E-02 0.45414221E+03</pdfrwt>
<totfact> 0.42742632E+04</totfact>
</mgrwt>
</event>
<event>
 7    0  0.4685107E-002  0.4562637E+03  0.7546771E-02  0.1025870E+00
         21   -1    0    0  502  501  0.00000000000E+00  0.00000000000E+00  0.84618636666E+02  0.84618636666E+02  0.00000000000E+00 0. -1.
         21   -1    0    0  501  502 -0.00000000000E+00 -0.00000000000E+00 -0.61504349732E+03  0.61504349732E+03  0.00000000000E+00 0. -1.
      99926    2    1    2    0    0  0.00000000000E+00  0.00000000000E+00 -0.53042486065E+03  0.69966213398E+03  0.45626370547E+03 0.  0.
      99925    2    3    3    0    0  0.59772002417E+02  0.86527170146E+02 -0.40259817333E+03  0.49218487369E+03  0.26287072350E+03 0.  0.
         25    1    3    3    0    0 -0.59772002417E+02 -0.86527170146E+02 -0.12782668732E+03  0.20747726029E+03  0.12509000000E+03 0.  0.
         25    1    4    4    0    0 -0.73553651221E+01  0.56938362894E+02 -0.21033286362E+03  0.25136328329E+03  0.12509000000E+03 0.  0.
         25    1    4    4    0    0  0.67127367539E+02  0.29588807252E+02 -0.19226530971E+03  0.24082159041E+03  0.12509000000E+03 0.  0.
<mgrwt>
<rscale>  2 0.45626371E+03</rscale>
<asrwt>0</asrwt>
<pdfrwt beam="1">  1       21 0.12443916E-01 0.45626371E+03</pdfrwt>
<pdfrwt beam="2">  1       21 0.90447578E-01 0.45626371E+03</pdfrwt>
<totfact> 0.52398243E+04</totfact>
</mgrwt>
</event>
<event>
 7    0  0.4685107E-002  0.4623152E+03  0.7546771E-02  0.1024112E+00
         21   -1    0    0  502  501  0.00000000000E+00  0.00000000000E+00  0.18396178635E+03  0.18396178635E+03  0.00000000000E+00 0. -1.
         21   -1    0    0  501  502 -0.00000000000E+00 -0.00000000000E+00 -0.29046162825E+03  0.29046162825E+03  0.00000000000E+00 0. -1.
      99926    2    1    2    0    0  0.71054273576E-14  0.00000000000E+00 -0.10649984190E+03  0.47442341460E+03  0.46231521714E+03 0.  0.
      99925    2    3    3    0    0 -0.26724312230E+02  0.92168775898E+02  0.72422540974E+01  0.28001650984E+03  0.26295916684E+03 0.  0.
         25    1    4    4    0    0 -0.36973948551E+02  0.55565605058E+02  0.35721880583E+02  0.14621275659E+03  0.12509000000E+03 0.  0.
         25    1    4    4    0    0  0.10249636322E+02  0.36603170839E+02 -0.28479626485E+02  0.13380375325E+03  0.12509000000E+03 0.  0.
         25    1    3    3    0    0  0.26724312230E+02 -0.92168775898E+02 -0.11374209600E+03  0.19440690476E+03  0.12509000000E+03 0.  0.
<mgrwt>
<rscale>  2 0.46231522E+03</rscale>
<asrwt>0</asrwt>
<pdfrwt beam="1">  1       21 0.27053204E-01 0.46231522E+03</pdfrwt>
<pdfrwt beam="2">  1       21 0.42714945E-01 0.46231522E+03</pdfrwt>
<totfact> 0.63351393E+04</totfact>
</mgrwt>
</event>
<event>
 7    0  0.4685107E-002  0.4604263E+03  0.7546771E-02  0.1024658E+00
         21   -1    0    0  502  501  0.00000000000E+00  0.00000000000E+00  0.46016277335E+03  0.46016277335E+03  0.00000000000E+00 0. -1.
         21   -1    0    0  501  502 -0.00000000000E+00 -0.00000000000E+00 -0.11517247031E+03  0.11517247031E+03  0.00000000000E+00 0. -1.
      99926    2    1    2    0    0  0.00000000000E+00  0.00000000000E+00  0.34499030304E+03  0.57533524367E+03  0.46042625187E+03 0.  0.
      99925    2    3    3    0    0 -0.78168266803E+02  0.47796920012E+02  0.30931518178E+03  0.41622821719E+03  0.26301183168E+03 0.  0.
         25    1    3    3    0    0  0.78168266803E+02 -0.47796920012E+02  0.35675121255E+02  0.15910702648E+03  0.12509000000E+03 0.  0.
         25    1    4    4    0    0 -0.34409893150E+02 -0.68182566200E+01  0.18756562399E+03  0.22816419696E+03  0.12509000000E+03 0.  0.
         25    1    4    4    0    0 -0.43758373652E+02  0.54615176632E+02  0.12174955779E+03  0.18806402023E+03  0.12509000000E+03 0.  0.
<mgrwt>
<rscale>  2 0.46042625E+03</rscale>
<asrwt>0</asrwt>
<pdfrwt beam="1">  1       21 0.67670995E-01 0.46042625E+03</pdfrwt>
<pdfrwt beam="2">  1       21 0.16937128E-01 0.46042625E+03</pdfrwt>
<totfact> 0.57706709E+04</totfact>
</mgrwt>
</event>
<event>
 7    0  0.4685107E-002  0.4546709E+03  0.7546771E-02  0.1026338E+00
         21   -1    0    0  502  501  0.00000000000E+00  0.00000000000E+00  0.19931961299E+02  0.19931961299E+02  0.00000000000E+00 0.  1.
         21   -1    0    0  501  502 -0.00000000000E+00 -0.00000000000E+00 -0.25928917398E+04  0.25928917398E+04  0.00000000000E+00 0.  1.
      99926    2    1    2    0    0  0.14210854715E-13  0.00000000000E+00 -0.25729597785E+04  0.26128237011E+04  0.45467094832E+03 0.  0.
      99925    2    3    3    0    0 -0.10584888229E+03  0.20738295449E+02 -0.14276756149E+04  0.14556904390E+04  0.26295043262E+03 0.  0.
         25    1    4    4    0    0 -0.70401639273E+02 -0.20813944500E+02 -0.63548387532E+03  0.65182580111E+03  0.12509000000E+03 0.  0.
         25    1    4    4    0    0 -0.35447243021E+02  0.41552239949E+02 -0.79219173962E+03  0.80386463792E+03  0.12509000000E+03 0.  0.
         25    1    3    3    0    0  0.10584888229E+03 -0.20738295449E+02 -0.11452841636E+04  0.11571332621E+04  0.12509000000E+03 0.  0.
<mgrwt>
<rscale>  2 0.45467095E+03</rscale>
<asrwt>0</asrwt>
<pdfrwt beam="1">  1       21 0.29311683E-02 0.45467095E+03</pdfrwt>
<pdfrwt beam="2">  1       21 0.38130793E+00 0.45467095E+03</pdfrwt>
<totfact> 0.60604776E+03</totfact>
</mgrwt>
</event>
<event>
 7    0  0.4685107E-002  0.4581802E+03  0.7546771E-02  0.1025310E+00
         21   -1    0    0  502  501  0.00000000000E+00  0.00000000000E+00  0.47088074192E+03  0.47088074192E+03  0.00000000000E+00 0.  1.
         21   -1    0    0  501  502 -0.00000000000E+00 -0.00000000000E+00 -0.11145556518E+03  0.11145556518E+03  0.00000000000E+00 0.  1.
      99926    2    1    2    0    0  0.00000000000E+00  0.00000000000E+00  0.35942517674E+03  0.58233630710E+03  0.45818022315E+03 0.  0.
      99925    2    3    3    0    0  0.86472942504E+02 -0.27931383023E+02  0.13332129304E+03  0.30842353582E+03  0.26285505193E+03 0.  0.
         25    1    3    3    0    0 -0.86472942504E+02  0.27931383023E+02  0.22610388370E+03  0.27391277128E+03  0.12509000000E+03 0.  0.
         25    1    4    4    0    0  0.53262433313E+02  0.25069336009E+02  0.64677126862E+02  0.15263026322E+03  0.12509000000E+03 0.  0.
         25    1    4    4    0    0  0.33210509192E+02 -0.53000719032E+02  0.68644166177E+02  0.15579327260E+03  0.12509000000E+03 0.  0.
<mgrwt>
<rscale>  2 0.45818022E+03</rscale>
<asrwt>0</asrwt>
<pdfrwt beam="1">  1       21 0.69247167E-01 0.45818022E+03</pdfrwt>
<pdfrwt beam="2">  1       21 0.16390524E-01 0.45818022E+03</pdfrwt>
<totfact> 0.58299339E+04</totfact>
</mgrwt>
</event>
<event>
 7    0  0.4685107E-002  0.4758188E+03  0.7546771E-02  0.1020291E+00
         21   -1    0    0  502  501  0.00000000000E+00  0.00000000000E+00  0.47699621088E+02  0.47699621088E+02  0.00000000000E+00 0.  1.
         21   -1    0    0  501  502 -0.00000000000E+00 -0.00000000000E+00 -0.11866107471E+04  0.11866107471E+04  0.00000000000E+00 0.  1.
      99926    2    1    2    0    0  0.17763568394E-14  0.00000000000E+00 -0.11389111260E+04  0.12343103681E+04  0.47581880170E+03 0.  0.
      99925    2    3    3    0    0  0.75013611613E+01 -0.50438336058E+01 -0.10449812925E+04  0.10776194865E+04  0.26305160202E+03 0.  0.
         25    1    4    4    0    0  0.24656505636E+02 -0.37357542549E+02 -0.52096857245E+03  0.53764234472E+03  0.12509000000E+03 0.  0.
         25    1    4    4    0    0 -0.17155144474E+02  0.32313708943E+02 -0.52401272004E+03  0.53997714177E+03  0.12509000000E+03 0.  0.
         25    1    3    3    0    0 -0.75013611613E+01  0.50438336058E+01 -0.93929833476E+02  0.15669088165E+03  0.12509000000E+03 0.  0.
<mgrwt>
<rscale>  2 0.47581880E+03</rscale>
<asrwt>0</asrwt>
<pdfrwt beam="1">  1       21 0.70146501E-02 0.47581880E+03</pdfrwt>
<pdfrwt beam="2">  1       21 0.17450158E+00 0.47581880E+03</pdfrwt>
<totfact> 0.26517655E+04</totfact>
</mgrwt>
</event>
<event>
 7    0  0.4685107E-002  0.4236876E+03  0.7546771E-02  0.1035873E+00
         21   -1    0    0  502  501  0.00000000000E+00  0.00000000000E+00  0.37654546347E+03  0.37654546347E+03  0.00000000000E+00 0.  1.
         21   -1    0    0  501  502 -0.00000000000E+00 -0.00000000000E+00 -0.11918295620E+03  0.11918295620E+03  0.00000000000E+00 0.  1.
      99926    2    1    2    0    0  0.00000000000E+00  0.14210854715E-13  0.25736250727E+03  0.49572841967E+03  0.42368762776E+03 0.  0.
      99925    2    3    3    0    0  0.32110916036E+02 -0.69548607097E+02  0.19556903511E+03  0.33656164870E+03  0.26297980190E+03 0.  0.
         25    1    4    4    0    0  0.38418909401E+02 -0.43615455558E+00  0.93638184671E+02  0.16090935510E+03  0.12509000000E+03 0.  0.
         25    1    4    4    0    0 -0.63079933645E+01 -0.69112452542E+02  0.10193085044E+03  0.17565229360E+03  0.12509000000E+03 0.  0.
         25    1    3    3    0    0 -0.32110916036E+02  0.69548607097E+02  0.61793472168E+02  0.15916677097E+03  0.12509000000E+03 0.  0.
<mgrwt>
<rscale>  2 0.42368763E+03</rscale>
<asrwt>0</asrwt>
<pdfrwt beam="1">  1       21 0.55374333E-01 0.42368763E+03</pdfrwt>
<pdfrwt beam="2">  1       21 0.17526905E-01 0.42368763E+03</pdfrwt>
<totfact> 0.84744158E+04</totfact>
</mgrwt>
</event>
<event>
 7    0  0.4685107E-002  0.4584351E+03  0.7546771E-02  0.1025236E+00
         21   -1    0    0  502  501  0.00000000000E+00  0.00000000000E+00  0.63764990561E+02  0.63764990561E+02  0.00000000000E+00 0. -1.
         21   -1    0    0  501  502 -0.00000000000E+00 -0.00000000000E+00 -0.82397368172E+03  0.82397368172E+03  0.00000000000E+00 0. -1.
      99926    2    1    2    0    0  0.00000000000E+00  0.00000000000E+00 -0.76020869116E+03  0.88773867228E+03  0.45843505118E+03 0.  0.
      99925    2    3    3    0    0 -0.66247807294E+02  0.20118542638E+02 -0.29612433307E+03  0.40213046883E+03  0.26310789726E+03 0.  0.
         25    1    4    4    0    0 -0.25566203651E+01  0.37114465826E+02 -0.13517242082E+03  0.18789122207E+03  0.12509000000E+03 0.  0.
         25    1    3    3    0    0  0.66247807294E+02 -0.20118542638E+02 -0.46408435810E+03  0.48560820345E+03  0.12509000000E+03 0.  0.
         25    1    4    4    0    0 -0.63691186928E+02 -0.16995923188E+02 -0.16095191225E+03  0.21423924676E+03  0.12509000000E+03 0.  0.
<mgrwt>
<rscale>  2 0.45843505E+03</rscale>
<asrwt>0</asrwt>
<pdfrwt beam="1">  1       21 0.93772050E-02 0.45843505E+03</pdfrwt>
<pdfrwt beam="2">  1       21 0.12117259E+00 0.45843505E+03</pdfrwt>
<totfact> 0.42610263E+04</totfact>
</mgrwt>
</event>
<event>
 7    0  0.4685107E-002  0.4506821E+03  0.7546771E-02  0.1027519E+00
         21   -1    0    0  502  501  0.00000000000E+00  0.00000000000E+00  0.31682800444E+03  0.31682800444E+03  0.00000000000E+00 0.  1.
         21   -1    0    0  501  502 -0.00000000000E+00 -0.00000000000E+00 -0.16027176636E+03  0.16027176636E+03  0.00000000000E+00 0.  1.
      99926    2    1    2    0    0 -0.71054273576E-14  0.00000000000E+00  0.15655623808E+03  0.47709977081E+03  0.45068207821E+03 0.  0.
      99925    2    3    3    0    0 -0.57770603360E+02  0.91328613922E+02  0.83317264266E+02  0.29629652493E+03  0.26300476389E+03 0.  0.
         25    1    3    3    0    0  0.57770603360E+02 -0.91328613922E+02  0.73238973813E+02  0.18080324587E+03  0.12509000000E+03 0.  0.
         25    1    4    4    0    0 -0.42289757140E+02  0.91431645313E+01  0.54228305723E+02  0.14303928921E+03  0.12509000000E+03 0.  0.
         25    1    4    4    0    0 -0.15480846221E+02  0.82185449391E+02  0.29088958543E+02  0.15325723572E+03  0.12509000000E+03 0.  0.
<mgrwt>
<rscale>  2 0.45068208E+03</rscale>
<asrwt>0</asrwt>
<pdfrwt beam="1">  1       21 0.46592353E-01 0.45068208E+03</pdfrwt>
<pdfrwt beam="2">  1       21 0.23569378E-01 0.45068208E+03</pdfrwt>
<totfact> 0.69255126E+04</totfact>
</mgrwt>
</event>
<event>
 7    0  0.4685107E-002  0.4921929E+03  0.7546771E-02  0.1015837E+00
         21   -1    0    0  502  501  0.00000000000E+00  0.00000000000E+00  0.25842185698E+03  0.25842185698E+03  0.00000000000E+00 0. -1.
         21   -1    0    0  501  502 -0.00000000000E+00 -0.00000000000E+00 -0.23435889064E+03  0.23435889064E+03  0.00000000000E+00 0. -1.
      99926    2    1    2    0    0 -0.71054273576E-14 -0.71054273576E-14  0.24062966332E+02  0.49278074762E+03  0.49219288788E+03 0.  0.
      99925    2    3    3    0    0 -0.52555412649E+02 -0.36886588694E+02 -0.11562450012E+03  0.29458188736E+03  0.26322380498E+03 0.  0.
         25    1    4    4    0    0 -0.99541361090E+01  0.33460864588E+00 -0.19509421617E+02  0.12699339518E+03  0.12509000000E+03 0.  0.
         25    1    4    4    0    0 -0.42601276540E+02 -0.37221197339E+02 -0.96115078503E+02  0.16758849218E+03  0.12509000000E+03 0.  0.
         25    1    3    3    0    0  0.52555412649E+02  0.36886588694E+02  0.13968746645E+03  0.19819886026E+03  0.12509000000E+03 0.  0.
<mgrwt>
<rscale>  2 0.49219289E+03</rscale>
<asrwt>0</asrwt>
<pdfrwt beam="1">  1       21 0.38003214E-01 0.49219289E+03</pdfrwt>
<pdfrwt beam="2">  1       21 0.34464543E-01 0.49219289E+03</pdfrwt>
<totfact> 0.49469583E+04</totfact>
</mgrwt>
</event>
<event>
 7    0  0.4685107E-002  0.4553112E+03  0.7546771E-02  0.1026150E+00
         21   -1    0    0  502  501  0.00000000000E+00  0.00000000000E+00  0.19413620752E+03  0.19413620752E+03  0.00000000000E+00 0.  1.
         21   -1    0    0  501  502 -0.00000000000E+00 -0.00000000000E+00 -0.26696239040E+03  0.26696239040E+03  0.00000000000E+00 0.  1.
      99926    2    1    2    0    0  0.71054273576E-14  0.00000000000E+00 -0.72826182880E+02  0.46109859792E+03  0.45531117281E+03 0.  0.
      99925    2    3    3    0    0 -0.48629567377E+02 -0.72005101145E+02 -0.11984562185E+03  0.30170002466E+03  0.26288849802E+03 0.  0.
         25    1    3    3    0    0  0.48629567377E+02  0.72005101145E+02  0.47019438971E+02  0.15939857325E+03  0.12509000000E+03 0.  0.
         25    1    4    4    0    0 -0.40771585709E+01 -0.71381817519E+02 -0.63285013843E+02  0.15736736692E+03  0.12509000000E+03 0.  0.
         25    1    4    4    0    0 -0.44552408806E+02 -0.62328362671E+00 -0.56560608009E+02  0.14433265774E+03  0.12509000000E+03 0.  0.
<mgrwt>
<rscale>  2 0.45531117E+03</rscale>
<asrwt>0</asrwt>
<pdfrwt beam="1">  1       21 0.28549443E-01 0.45531117E+03</pdfrwt>
<pdfrwt beam="2">  1       21 0.39259175E-01 0.45531117E+03</pdfrwt>
<totfact> 0.67931815E+04</totfact>
</mgrwt>
</event>
<event>
 7    0  0.4685107E-002  0.4332497E+03  0.7546771E-02  0.1032838E+00
         21   -1    0    0  502  501  0.00000000000E+00  0.00000000000E+00  0.11473258357E+04  0.11473258357E+04  0.00000000000E+00 0. -1.
         21   -1    0    0  501  502 -0.00000000000E+00 -0.00000000000E+00 -0.40900605486E+02  0.40900605486E+02  0.00000000000E+00 0. -1.
      99926    2    1    2    0    0  0.00000000000E+00  0.00000000000E+00  0.11064252302E+04  0.11882264411E+04  0.43324968029E+03 0.  0.
      99925    2    3    3    0    0  0.50914844772E+02 -0.47466720149E+02  0.87290013257E+03  0.91431607214E+03  0.26300917738E+03 0.  0.
         25    1    4    4    0    0  0.65349283805E+02 -0.35812483406E+02  0.46907397906E+03  0.49115269397E+03  0.12509000000E+03 0.  0.
         25    1    3    3    0    0 -0.50914844772E+02  0.47466720149E+02  0.23352509761E+03  0.27391036901E+03  0.12509000000E+03 0.  0.
         25    1    4    4    0    0 -0.14434439033E+02 -0.11654236743E+02  0.40382615351E+03  0.42316337817E+03  0.12509000000E+03 0.  0.
<mgrwt>
<rscale>  2 0.43324968E+03</rscale>
<asrwt>0</asrwt>
<pdfrwt beam="1">  1       21 0.16872437E+00 0.43324968E+03</pdfrwt>
<pdfrwt beam="2">  1       21 0.60147956E-02 0.43324968E+03</pdfrwt>
<totfact> 0.38681335E+04</totfact>
</mgrwt>
</event>
<event>
 7    0  0.4685107E-002  0.4191425E+03  0.7546771E-02  0.1037346E+00
         21   -1    0    0  502  501  0.00000000000E+00  0.00000000000E+00  0.90676325069E+02  0.90676325069E+02  0.00000000000E+00 0.  1.
         21   -1    0    0  501  502 -0.00000000000E+00 -0.00000000000E+00 -0.48436127196E+03  0.48436127196E+03  0.00000000000E+00 0.  1.
      99926    2    1    2    0    0  0.00000000000E+00  0.71054273576E-14 -0.39368494689E+03  0.57503759703E+03  0.41914245858E+03 0.  0.
      99925    2    3    3    0    0  0.57119695505E+02 -0.42047761786E+02 -0.29609843951E+03  0.40125236058E+03  0.26133981155E+03 0.  0.
         25    1    4    4    0    0  0.49632764651E+02  0.66486925962E+01 -0.12636839010E+03  0.18472708128E+03  0.12509000000E+03 0.  0.
         25    1    4    4    0    0  0.74869308531E+01 -0.48696454383E+02 -0.16973004941E+03  0.21652527930E+03  0.12509000000E+03 0.  0.
         25    1    3    3    0    0 -0.57119695505E+02  0.42047761786E+02 -0.97586507376E+02  0.17378523645E+03  0.12509000000E+03 0.  0.
<mgrwt>
<rscale>  2 0.41914246E+03</rscale>
<asrwt>0</asrwt>
<pdfrwt beam="1">  1       21 0.13334754E-01 0.41914246E+03</pdfrwt>
<pdfrwt beam="2">  1       21 0.71229597E-01 0.41914246E+03</pdfrwt>
<totfact> 0.80833599E+04</totfact>
</mgrwt>
</event>
<event>
 7    0  0.4685107E-002  0.4512586E+03  0.7546771E-02  0.1027347E+00
         21   -1    0    0  502  501  0.00000000000E+00  0.00000000000E+00  0.16966432056E+03  0.16966432056E+03  0.00000000000E+00 0. -1.
         21   -1    0    0  501  502 -0.00000000000E+00 -0.00000000000E+00 -0.30005470974E+03  0.30005470974E+03  0.00000000000E+00 0. -1.
      99926    2    1    2    0    0 -0.35527136788E-14  0.00000000000E+00 -0.13039038918E+03  0.46971903030E+03  0.45125858866E+03 0.  0.
      99925    2    3    3    0    0 -0.25676988646E+02  0.10512948224E+03 -0.64163764419E+02  0.29154779326E+03  0.26300496442E+03 0.  0.
         25    1    4    4    0    0  0.27315627076E+02  0.50680465661E+02 -0.23991988960E+02  0.13977759733E+03  0.12509000000E+03 0.  0.
         25    1    3    3    0    0  0.25676988646E+02 -0.10512948224E+03 -0.66226624759E+02  0.17817123704E+03  0.12509000000E+03 0.  0.
         25    1    4    4    0    0 -0.52992615722E+02  0.54449016581E+02 -0.40171775459E+02  0.15177019593E+03  0.12509000000E+03 0.  0.
<mgrwt>
<rscale>  2 0.45125859E+03</rscale>
<asrwt>0</asrwt>
<pdfrwt beam="1">  1       21 0.24950635E-01 0.45125859E+03</pdfrwt>
<pdfrwt beam="2">  1       21 0.44125693E-01 0.45125859E+03</pdfrwt>
<totfact> 0.69496792E+04</totfact>
</mgrwt>
</event>
<event>
 7    0  0.4685107E-002  0.4554635E+03  0.7546771E-02  0.1026105E+00
         21   -1    0    0  502  501  0.00000000000E+00  0.00000000000E+00  0.51287543004E+02  0.51287543004E+02  0.00000000000E+00 0. -1.
         21   -1    0    0  501  502 -0.00000000000E+00 -0.00000000000E+00 -0.10111959105E+04  0.10111959105E+04  0.00000000000E+00 0. -1.
      99926    2    1    2    0    0  0.00000000000E+00  0.00000000000E+00 -0.95990836745E+03  0.10624834535E+04  0.45546351662E+03 0.  0.
      99925    2    3    3    0    0  0.69389884179E+02 -0.51394506063E+02 -0.43144679983E+03  0.51259665799E+03  0.26296889820E+03 0.  0.
         25    1    3    3    0    0 -0.69389884179E+02  0.51394506063E+02 -0.52846156762E+03  0.54988679547E+03  0.12509000000E+03 0.  0.
         25    1    4    4    0    0  0.51776665182E+02  0.10229743713E+02 -0.22679533868E+03  0.26432764604E+03  0.12509000000E+03 0.  0.
         25    1    4    4    0    0  0.17613218997E+02 -0.61624249776E+02 -0.20465146115E+03  0.24826901195E+03  0.12509000000E+03 0.  0.
<mgrwt>
<rscale>  2 0.45546352E+03</rscale>
<asrwt>0</asrwt>
<pdfrwt beam="1">  1       21 0.75422860E-02 0.45546352E+03</pdfrwt>
<pdfrwt beam="2">  1       21 0.14870528E+00 0.45546352E+03</pdfrwt>
<totfact> 0.36689744E+04</totfact>
</mgrwt>
</event>
<event>
 7    0  0.4685107E-002  0.4561425E+03  0.7546771E-02  0.1025906E+00
         21   -1    0    0  502  501  0.00000000000E+00  0.00000000000E+00  0.12512723346E+03  0.12512723346E+03  0.00000000000E+00 0.  1.
         21   -1    0    0  501  502 -0.00000000000E+00 -0.00000000000E+00 -0.41570882753E+03  0.41570882753E+03  0.00000000000E+00 0.  1.
      99926    2    1    2    0    0  0.00000000000E+00  0.00000000000E+00 -0.29058159408E+03  0.54083606099E+03  0.45614250191E+03 0.  0.
      99925    2    3    3    0    0 -0.69300719639E+02  0.35816707059E+02 -0.28150889688E+03  0.39313620256E+03  0.26310337986E+03 0.  0.
         25    1    4    4    0    0 -0.27708251212E+02 -0.22836022450E+02 -0.13378504738E+03  0.18664184447E+03  0.12509000000E+03 0.  0.
         25    1    3    3    0    0  0.69300719639E+02 -0.35816707059E+02 -0.90726972004E+01  0.14769985843E+03  0.12509000000E+03 0.  0.
         25    1    4    4    0    0 -0.41592468427E+02  0.58652729509E+02 -0.14772384950E+03  0.20649435808E+03  0.12509000000E+03 0.  0.
<mgrwt>
<rscale>  2 0.45614250E+03</rscale>
<asrwt>0</asrwt>
<pdfrwt beam="1">  1       21 0.18401064E-01 0.45614250E+03</pdfrwt>
<pdfrwt beam="2">  1       21 0.61133651E-01 0.45614250E+03</pdfrwt>
<totfact> 0.61914463E+04</totfact>
</mgrwt>
</event>
<event>
 7    0  0.4685107E-002  0.4494390E+03  0.7546771E-02  0.1027889E+00
         21   -1    0    0  502  501  0.00000000000E+00  0.00000000000E+00  0.90529628172E+03  0.90529628172E+03  0.00000000000E+00 0.  1.
         21   -1    0    0  501  502 -0.00000000000E+00 -0.00000000000E+00 -0.55781585508E+02  0.55781585508E+02  0.00000000000E+00 0.  1.
      99926    2    1    2    0    0  0.00000000000E+00  0.00000000000E+00  0.84951469621E+03  0.96107786723E+03  0.44943903680E+03 0.  0.
      99925    2    3    3    0    0  0.91790516169E+02 -0.34222085684E+02  0.63373246857E+03  0.69311121282E+03  0.26303927770E+03 0.  0.
         25    1    4    4    0    0  0.72732647776E+02 -0.49802559809E+02  0.35772651862E+03  0.38908367126E+03  0.12509000000E+03 0.  0.
         25    1    3    3    0    0 -0.91790516169E+02  0.34222085684E+02  0.21578222764E+03  0.26796665440E+03  0.12509000000E+03 0.  0.
         25    1    4    4    0    0  0.19057868393E+02  0.15580474125E+02  0.27600594995E+03  0.30402754156E+03  0.12509000000E+03 0.  0.
<mgrwt>
<rscale>  2 0.44943904E+03</rscale>
<asrwt>0</asrwt>
<pdfrwt beam="1">  1       21 0.13313180E+00 0.44943904E+03</pdfrwt>
<pdfrwt beam="2">  1       21 0.82031749E-02 0.44943904E+03</pdfrwt>
<totfact> 0.42514102E+04</totfact>
</mgrwt>
</event>
<event>
 7    0  0.4685107E-002  0.4520162E+03  0.7546771E-02  0.1027122E+00
         21   -1    0    0  502  501  0.00000000000E+00  0.00000000000E+00  0.60040265913E+03  0.60040265913E+03  0.00000000000E+00 0. -1.
         21   -1    0    0  501  502 -0.00000000000E+00 -0.00000000000E+00 -0.85075671708E+02  0.85075671708E+02  0.00000000000E+00 0. -1.
      99926    2    1    2    0    0  0.00000000000E+00  0.00000000000E+00  0.51532698743E+03  0.68547833084E+03  0.45201619228E+03 0.  0.
      99925    2    3    3    0    0  0.94109493253E+02 -0.32413425101E+02  0.39893331573E+03  0.48773551363E+03  0.26235646364E+03 0.  0.
         25    1    4    4    0    0  0.54394952852E+02  0.16920844429E+02  0.23275442849E+03  0.27030955949E+03  0.12509000000E+03 0.  0.
         25    1    3    3    0    0 -0.94109493253E+02  0.32413425101E+02  0.11639367170E+03  0.19774281721E+03  0.12509000000E+03 0.  0.
         25    1    4    4    0    0  0.39714540401E+02 -0.49334269530E+02  0.16617888724E+03  0.21742595414E+03  0.12509000000E+03 0.  0.
<mgrwt>
<rscale>  2 0.45201619E+03</rscale>
<asrwt>0</asrwt>
<pdfrwt beam="1">  1       21 0.88294506E-01 0.45201619E+03</pdfrwt>
<pdfrwt beam="2">  1       21 0.12511129E-01 0.45201619E+03</pdfrwt>
<totfact> 0.54978901E+04</totfact>
</mgrwt>
</event>
<event>
 7    0  0.4685107E-002  0.4575318E+03  0.7546771E-02  0.1025499E+00
         21   -1    0    0  502  501  0.00000000000E+00  0.00000000000E+00  0.69132795761E+02  0.69132795761E+02  0.00000000000E+00 0.  1.
         21   -1    0    0  501  502 -0.00000000000E+00 -0.00000000000E+00 -0.75700449947E+03  0.75700449947E+03  0.00000000000E+00 0.  1.
      99926    2    1    2    0    0  0.00000000000E+00  0.00000000000E+00 -0.68787170371E+03  0.82613729523E+03  0.45753180196E+03 0.  0.
      99925    2    3    3    0    0  0.10048566566E+03  0.31002093705E+02 -0.51777372895E+03  0.59025739373E+03  0.26316469680E+03 0.  0.
         25    1    3    3    0    0 -0.10048566566E+03 -0.31002093705E+02 -0.17009797476E+03  0.23587990150E+03  0.12509000000E+03 0.  0.
         25    1    4    4    0    0  0.48223459086E+02 -0.28054843932E+01 -0.33000839112E+03  0.35621120007E+03  0.12509000000E+03 0.  0.
         25    1    4    4    0    0  0.52262206570E+02  0.33807578098E+02 -0.18776533784E+03  0.23404619366E+03  0.12509000000E+03 0.  0.
<mgrwt>
<rscale>  2 0.45753180E+03</rscale>
<asrwt>0</asrwt>
<pdfrwt beam="1">  1       21 0.10166588E-01 0.45753180E+03</pdfrwt>
<pdfrwt beam="2">  1       21 0.11132419E+00 0.45753180E+03</pdfrwt>
<totfact> 0.45613528E+04</totfact>
</mgrwt>
</event>
<event>
 7    0  0.4685107E-002  0.4546110E+03  0.7546771E-02  0.1026356E+00
         21   -1    0    0  502  501  0.00000000000E+00  0.00000000000E+00  0.95551635295E+02  0.95551635295E+02  0.00000000000E+00 0.  1.
         21   -1    0    0  501  502 -0.00000000000E+00 -0.00000000000E+00 -0.54073156214E+03  0.54073156214E+03  0.00000000000E+00 0.  1.
      99926    2    1    2    0    0 -0.14210854715E-13  0.00000000000E+00 -0.44517992685E+03  0.63628319744E+03  0.45461097663E+03 0.  0.
      99925    2    3    3    0    0 -0.86983506809E+02 -0.71431767858E+02 -0.27769910457E+03  0.39886802975E+03  0.26326846481E+03 0.  0.
         25    1    3    3    0    0  0.86983506809E+02  0.71431767858E+02 -0.16748082227E+03  0.23741516768E+03  0.12509000000E+03 0.  0.
         25    1    4    4    0    0 -0.15103748727E+02 -0.22258531005E+02 -0.86933952846E+02  0.15468867342E+03  0.12509000000E+03 0.  0.
         25    1    4    4    0    0 -0.71879758082E+02 -0.49173236853E+02 -0.19076515173E+03  0.24417935633E+03  0.12509000000E+03 0.  0.
<mgrwt>
<rscale>  2 0.45461098E+03</rscale>
<asrwt>0</asrwt>
<pdfrwt beam="1">  1       21 0.14051711E-01 0.45461098E+03</pdfrwt>
<pdfrwt beam="2">  1       21 0.79519348E-01 0.45461098E+03</pdfrwt>
<totfact> 0.56672518E+04</totfact>
</mgrwt>
</event>
<event>
 7    0  0.4685107E-002  0.4525196E+03  0.7546771E-02  0.1026973E+00
         21   -1    0    0  502  501  0.00000000000E+00  0.00000000000E+00  0.11940356154E+03  0.11940356154E+03  0.00000000000E+00 0.  1.
         21   -1    0    0  501  502 -0.00000000000E+00 -0.00000000000E+00 -0.42874352661E+03  0.42874352661E+03  0.00000000000E+00 0.  1.
      99926    2    1    2    0    0 -0.71054273576E-14  0.00000000000E+00 -0.30933996507E+03  0.54814708816E+03  0.45251963080E+03 0.  0.
      99925    2    3    3    0    0 -0.44899563288E+02 -0.42183387458E+02 -0.30671234553E+03  0.40868447150E+03  0.26297362108E+03 0.  0.
         25    1    4    4    0    0 -0.59850498450E+01  0.12654689044E+00 -0.99685947687E+02  0.16006446546E+03  0.12509000000E+03 0.  0.
         25    1    4    4    0    0 -0.38914513443E+02 -0.42309934349E+02 -0.20702639784E+03  0.24862000604E+03  0.12509000000E+03 0.  0.
         25    1    3    3    0    0  0.44899563288E+02  0.42183387458E+02 -0.26276195450E+01  0.13946261666E+03  0.12509000000E+03 0.  0.
<mgrwt>
<rscale>  2 0.45251963E+03</rscale>
<asrwt>0</asrwt>
<pdfrwt beam="1">  1       21 0.17559347E-01 0.45251963E+03</pdfrwt>
<pdfrwt beam="2">  1       21 0.63050518E-01 0.45251963E+03</pdfrwt>
<totfact> 0.63220739E+04</totfact>
</mgrwt>
</event>
<event>
 7    0  0.4685107E-002  0.4532872E+03  0.7546771E-02  0.1026746E+00
         21   -1    0    0  502  501  0.00000000000E+00  0.00000000000E+00  0.10121710803E+03  0.10121710803E+03  0.00000000000E+00 0.  1.
         21   -1    0    0  501  502 -0.00000000000E+00 -0.00000000000E+00 -0.50749652263E+03  0.50749652263E+03  0.00000000000E+00 0.  1.
      99926    2    1    2    0    0  0.00000000000E+00  0.00000000000E+00 -0.40627941459E+03  0.60871363066E+03  0.45328723943E+03 0.  0.
      99925    2    3    3    0    0  0.67736488661E+02  0.87484596451E+02 -0.23821546838E+03  0.37178582599E+03  0.26312792424E+03 0.  0.
         25    1    4    4    0    0  0.39994287545E+02  0.13723242749E+02 -0.14908689380E+03  0.19915391141E+03  0.12509000000E+03 0.  0.
         25    1    4    4    0    0  0.27742201115E+02  0.73761353701E+02 -0.89128574576E+02  0.17263191457E+03  0.12509000000E+03 0.  0.
         25    1    3    3    0    0 -0.67736488661E+02 -0.87484596451E+02 -0.16806394622E+03  0.23692780468E+03  0.12509000000E+03 0.  0.
<mgrwt>
<rscale>  2 0.45328724E+03</rscale>
<asrwt>0</asrwt>
<pdfrwt beam="1">  1       21 0.14884869E-01 0.45328724E+03</pdfrwt>
<pdfrwt beam="2">  1       21 0.74631842E-01 0.45328724E+03</pdfrwt>
<totfact> 0.58938464E+04</totfact>
</mgrwt>
</event>
<event>
 7    0  0.4685107E-002  0.4587568E+03  0.7546771E-02  0.1025142E+00
         21   -1    0    0  502  501  0.00000000000E+00  0.00000000000E+00  0.75876745301E+02  0.75876745301E+02  0.00000000000E+00 0.  1.
         21   -1    0    0  501  502 -0.00000000000E+00 -0.00000000000E+00 -0.69341987179E+03  0.69341987179E+03  0.00000000000E+00 0.  1.
      99926    2    1    2    0    0  0.00000000000E+00  0.00000000000E+00 -0.61754312649E+03  0.76929661709E+03  0.45875676779E+03 0.  0.
      99925    2    3    3    0    0 -0.21743846001E+02  0.11244562647E+03 -0.42496391224E+03  0.51268197290E+03  0.26292901111E+03 0.  0.
         25    1    3    3    0    0  0.21743846001E+02 -0.11244562647E+03 -0.19257921425E+03  0.25661464419E+03  0.12509000000E+03 0.  0.
         25    1    4    4    0    0 -0.34089848377E+02  0.87786421378E+02 -0.26438636428E+03  0.30727224290E+03  0.12509000000E+03 0.  0.
         25    1    4    4    0    0  0.12346002376E+02  0.24659205089E+02 -0.16057754795E+03  0.20540973000E+03  0.12509000000E+03 0.  0.
<mgrwt>
<rscale>  2 0.45875677E+03</rscale>
<asrwt>0</asrwt>
<pdfrwt beam="1">  1       21 0.11158345E-01 0.45875677E+03</pdfrwt>
<pdfrwt beam="2">  1       21 0.10197351E+00 0.45875677E+03</pdfrwt>
<totfact> 0.47858584E+04</totfact>
</mgrwt>
</event>
<event>
 7    0  0.4685107E-002  0.4460399E+03  0.7546771E-02  0.1028910E+00
         21   -1    0    0  502  501  0.00000000000E+00  0.00000000000E+00  0.46682707894E+03  0.46682707894E+03  0.00000000000E+00 0.  1.
         21   -1    0    0  501  502 -0.00000000000E+00 -0.00000000000E+00 -0.10654456674E+03  0.10654456674E+03  0.00000000000E+00 0.  1.
      99926    2    1    2    0    0 -0.17763568394E-14  0.00000000000E+00  0.36028251221E+03  0.57337164568E+03  0.44603985860E+03 0.  0.
      99925    2    3    3    0    0  0.11809143613E+02 -0.92590761974E+02  0.28913011699E+03  0.40184125035E+03  0.26299745409E+03 0.  0.
         25    1    3    3    0    0 -0.11809143613E+02  0.92590761974E+02  0.71152395218E+02  0.17153039533E+03  0.12509000000E+03 0.  0.
         25    1    4    4    0    0  0.39219098885E+02 -0.46265121075E+02  0.17936776346E+03  0.22693369475E+03  0.12509000000E+03 0.  0.
         25    1    4    4    0    0 -0.27409955272E+02 -0.46325640899E+02  0.10976235353E+03  0.17490755560E+03  0.12509000000E+03 0.  0.
<mgrwt>
<rscale>  2 0.44603986E+03</rscale>
<asrwt>0</asrwt>
<pdfrwt beam="1">  1       21 0.68651040E-01 0.44603986E+03</pdfrwt>
<pdfrwt beam="2">  1       21 0.15668319E-01 0.44603986E+03</pdfrwt>
<totfact> 0.64819669E+04</totfact>
</mgrwt>
</event>
<event>
 7    0  0.4685107E-002  0.4603756E+03  0.7546771E-02  0.1024672E+00
         21   -1    0    0  502  501  0.00000000000E+00  0.00000000000E+00  0.13137701905E+03  0.13137701905E+03  0.00000000000E+00 0. -1.
         21   -1    0    0  501  502 -0.00000000000E+00 -0.00000000000E+00 -0.40331581309E+03  0.40331581309E+03  0.00000000000E+00 0. -1.
      99926    2    1    2    0    0  0.00000000000E+00  0.00000000000E+00 -0.27193879404E+03  0.53469283215E+03  0.46037562603E+03 0.  0.
      99925    2    3    3    0    0  0.92582977885E+02 -0.72997702926E+02 -0.18184696062E+03  0.34061985882E+03  0.26277994351E+03 0.  0.
         25    1    4    4    0    0  0.47440832401E+02 -0.72221232518E+01 -0.12006964061E+03  0.17990836095E+03  0.12509000000E+03 0.  0.
         25    1    4    4    0    0  0.45142145484E+02 -0.65775579674E+02 -0.61777320009E+02  0.16071149787E+03  0.12509000000E+03 0.  0.
         25    1    3    3    0    0 -0.92582977885E+02  0.72997702926E+02 -0.90091833418E+02  0.19407297332E+03  0.12509000000E+03 0.  0.
<mgrwt>
<rscale>  2 0.46037563E+03</rscale>
<asrwt>0</asrwt>
<pdfrwt beam="1">  1       21 0.19320150E-01 0.46037563E+03</pdfrwt>
<pdfrwt beam="2">  1       21 0.59311148E-01 0.46037563E+03</pdfrwt>
<totfact> 0.60280439E+04</totfact>
</mgrwt>
</event>
<event>
 7    0  0.4685107E-002  0.4585479E+03  0.7546771E-02  0.1025203E+00
         21   -1    0    0  502  501  0.00000000000E+00  0.00000000000E+00  0.68755968880E+03  0.68755968880E+03  0.00000000000E+00 0.  1.
         21   -1    0    0  501  502 -0.00000000000E+00 -0.00000000000E+00 -0.76453773973E+02  0.76453773973E+02  0.00000000000E+00 0.  1.
      99926    2    1    2    0    0  0.35527136788E-14  0.35527136788E-14  0.61110591482E+03  0.76401346277E+03  0.45854785155E+03 0.  0.
      99925    2    3    3    0    0 -0.29371455487E+02 -0.17048268747E+02  0.56999646249E+03  0.62803250441E+03  0.26148715740E+03 0.  0.
         25    1    4    4    0    0 -0.18765618357E+01 -0.44056467894E+02  0.27609303329E+03  0.30629946944E+03  0.12509000000E+03 0.  0.
         25    1    4    4    0    0 -0.27494893651E+02  0.27008199147E+02  0.29390342920E+03  0.32173303497E+03  0.12509000000E+03 0.  0.
         25    1    3    3    0    0  0.29371455487E+02  0.17048268747E+02  0.41109452335E+02  0.13598095836E+03  0.12509000000E+03 0.  0.
<mgrwt>
<rscale>  2 0.45854785E+03</rscale>
<asrwt>0</asrwt>
<pdfrwt beam="1">  1       21 0.10111172E+00 0.45854785E+03</pdfrwt>
<pdfrwt beam="2">  1       21 0.11243202E-01 0.45854785E+03</pdfrwt>
<totfact> 0.48197887E+04</totfact>
</mgrwt>
</event>
<event>
 7    0  0.4685107E-002  0.4541208E+03  0.7546771E-02  0.1026500E+00
         21   -1    0    0  502  501  0.00000000000E+00  0.00000000000E+00  0.11297058583E+04  0.11297058583E+04  0.00000000000E+00 0.  1.
         21   -1    0    0  501  502 -0.00000000000E+00 -0.00000000000E+00 -0.45637038892E+02  0.45637038892E+02  0.00000000000E+00 0.  1.
      99926    2    1    2    0    0  0.00000000000E+00  0.71054273576E-14  0.10840688194E+04  0.11753428972E+04  0.45412082177E+03 0.  0.
      99925    2    3    3    0    0  0.96873865041E+02 -0.40129878440E+02  0.57853673583E+03  0.64411305193E+03  0.26302455416E+03 0.  0.
         25    1    3    3    0    0 -0.96873865041E+02  0.40129878440E+02  0.50553208358E+03  0.53122984527E+03  0.12509000000E+03 0.  0.
         25    1    4    4    0    0  0.82431921150E+02 -0.24715969730E+02  0.25765868583E+03  0.29906756305E+03  0.12509000000E+03 0.  0.
         25    1    4    4    0    0  0.14441943890E+02 -0.15413908710E+02  0.32087805000E+03  0.34504548888E+03  0.12509000000E+03 0.  0.
<mgrwt>
<rscale>  2 0.45412082E+03</rscale>
<asrwt>0</asrwt>
<pdfrwt beam="1">  1       21 0.16613320E+00 0.45412082E+03</pdfrwt>
<pdfrwt beam="2">  1       21 0.67113300E-02 0.45412082E+03</pdfrwt>
<totfact> 0.33174071E+04</totfact>
</mgrwt>
</event>
<event>
 7    0  0.4685107E-002  0.4589794E+03  0.7546771E-02  0.1025078E+00
         21   -1    0    0  502  501  0.00000000000E+00  0.00000000000E+00  0.50152486907E+03  0.50152486907E+03  0.00000000000E+00 0. -1.
         21   -1    0    0  501  502 -0.00000000000E+00 -0.00000000000E+00 -0.10501076797E+03  0.10501076797E+03  0.00000000000E+00 0. -1.
      99926    2    1    2    0    0  0.17763568394E-14  0.00000000000E+00  0.39651410110E+03  0.60653563704E+03  0.45897935316E+03 0.  0.
      99925    2    3    3    0    0  0.12257660594E+02  0.92104729978E+02  0.34240466151E+03  0.44158451979E+03  0.26291140022E+03 0.  0.
         25    1    3    3    0    0 -0.12257660594E+02 -0.92104729978E+02  0.54109439592E+02  0.16495111725E+03  0.12509000000E+03 0.  0.
         25    1    4    4    0    0 -0.72560706763E+01  0.52244937496E+02  0.23261824695E+03  0.26933425510E+03  0.12509000000E+03 0.  0.
         25    1    4    4    0    0  0.19513731270E+02  0.39859792483E+02  0.10978641456E+03  0.17225026470E+03  0.12509000000E+03 0.  0.
<mgrwt>
<rscale>  2 0.45897935E+03</rscale>
<asrwt>0</asrwt>
<pdfrwt beam="1">  1       21 0.73753656E-01 0.45897935E+03</pdfrwt>
<pdfrwt beam="2">  1       21 0.15442760E-01 0.45897935E+03</pdfrwt>
<totfact> 0.56481153E+04</totfact>
</mgrwt>
</event>
<event>
 7    0  0.4685107E-002  0.4052964E+03  0.7546771E-02  0.1041961E+00
         21   -1    0    0  502  501  0.00000000000E+00  0.00000000000E+00  0.29824311394E+03  0.29824311394E+03  0.00000000000E+00 0. -1.
         21   -1    0    0  501  502 -0.00000000000E+00 -0.00000000000E+00 -0.13769399268E+03  0.13769399268E+03  0.00000000000E+00 0. -1.
      99926    2    1    2    0    0  0.00000000000E+00  0.00000000000E+00  0.16054912126E+03  0.43593710662E+03  0.40529636143E+03 0.  0.
      99925    2    3    3    0    0 -0.30537019585E+02 -0.28679663263E+02  0.68360667739E+02  0.27499844839E+03  0.26305119857E+03 0.  0.
         25    1    4    4    0    0 -0.42228487585E+02 -0.45319206789E+02  0.38402488653E+02  0.14477339156E+03  0.12509000000E+03 0.  0.
         25    1    4    4    0    0  0.11691468001E+02  0.16639543525E+02  0.29958179086E+02  0.13022505683E+03  0.12509000000E+03 0.  0.
         25    1    3    3    0    0  0.30537019585E+02  0.28679663263E+02  0.92188453525E+02  0.16093865823E+03  0.12509000000E+03 0.  0.
<mgrwt>
<rscale>  2 0.40529636E+03</rscale>
<asrwt>0</asrwt>
<pdfrwt beam="1">  1       21 0.43859281E-01 0.40529636E+03</pdfrwt>
<pdfrwt beam="2">  1       21 0.20249117E-01 0.40529636E+03</pdfrwt>
<totfact> 0.10613241E+05</totfact>
</mgrwt>
</event>
<event>
 7    0  0.4685107E-002  0.4510184E+03  0.7546771E-02  0.1027419E+00
         21   -1    0    0  502  501  0.00000000000E+00  0.00000000000E+00  0.26907868268E+03  0.26907868268E+03  0.00000000000E+00 0. -1.
         21   -1    0    0  501  502 -0.00000000000E+00 -0.00000000000E+00 -0.18899457196E+03  0.18899457196E+03  0.00000000000E+00 0. -1.
      99926    2    1    2    0    0  0.00000000000E+00  0.00000000000E+00  0.80084110716E+02  0.45807325464E+03  0.45101844955E+03 0.  0.
      99925    2    3    3    0    0 -0.16155895764E+02 -0.51620280879E+02 -0.45753729271E+02  0.27257841256E+03  0.26321079174E+03 0.  0.
         25    1    4    4    0    0 -0.23323096041E+02 -0.30461812638E+02  0.15062976919E+02  0.13170531581E+03  0.12509000000E+03 0.  0.
         25    1    4    4    0    0  0.71672002771E+01 -0.21158468241E+02 -0.60816706190E+02  0.14087309676E+03  0.12509000000E+03 0.  0.
         25    1    3    3    0    0  0.16155895764E+02  0.51620280879E+02  0.12583783999E+03  0.18549484208E+03  0.12509000000E+03 0.  0.
<mgrwt>
<rscale>  2 0.45101845E+03</rscale>
<asrwt>0</asrwt>
<pdfrwt beam="1">  1       21 0.39570394E-01 0.45101845E+03</pdfrwt>
<pdfrwt beam="2">  1       21 0.27793319E-01 0.45101845E+03</pdfrwt>
<totfact> 0.70533550E+04</totfact>
</mgrwt>
</event>
<event>
 6    0  0.4685107E-002  0.4527970E+03  0.7546771E-02  0.1026891E+00
         21   -1    0    0  502  501  0.00000000000E+00  0.00000000000E+00  0.28484492500E+02  0.28484492500E+02  0.00000000000E+00 0. -1.
         21   -1    0    0  501  502 -0.00000000000E+00 -0.00000000000E+00 -0.17994449708E+04  0.17994449708E+04  0.00000000000E+00 0. -1.
      99926    2    1    2    0    0 -0.10824674490E-14  0.00000000000E+00 -0.17709604783E+04  0.18279294633E+04  0.45279698221E+03 0.  0.
         25    1    3    3    0    0 -0.39116479385E+02  0.71391511795E+01 -0.56213221638E+03  0.57725315351E+03  0.12509000000E+03 0.  0.
         25    1    3    3    0    0  0.39156363356E+02 -0.47825697619E+02 -0.95151006447E+03  0.96168572259E+03  0.12509000000E+03 0.  0.
         25    1    3    3    0    0 -0.39883970783E-01  0.40686546440E+02 -0.25731819741E+03  0.28899058716E+03  0.12509000000E+03 0.  0.
<mgrwt>
<rscale>  2 0.45279698E+03</rscale>
<asrwt>0</asrwt>
<pdfrwt beam="1">  1       21 0.41888959E-02 0.45279698E+03</pdfrwt>
<pdfrwt beam="2">  1       21 0.26462427E+00 0.45279698E+03</pdfrwt>
<totfact> 0.17018053E+04</totfact>
</mgrwt>
</event>
<event>
 7    0  0.4685107E-002  0.4544520E+03  0.7546771E-02  0.1026403E+00
         21   -1    0    0  502  501  0.00000000000E+00  0.00000000000E+00  0.10178696287E+03  0.10178696287E+03  0.00000000000E+00 0.  1.
         21   -1    0    0  501  502 -0.00000000000E+00 -0.00000000000E+00 -0.50725213147E+03  0.50725213147E+03  0.00000000000E+00 0.  1.
      99926    2    1    2    0    0  0.00000000000E+00  0.00000000000E+00 -0.40546516860E+03  0.60903909434E+03  0.45445199470E+03 0.  0.
      99925    2    3    3    0    0 -0.65054958780E+02  0.88753996171E+02 -0.28764001756E+03  0.40498102953E+03  0.26298942008E+03 0.  0.
         25    1    3    3    0    0  0.65054958780E+02 -0.88753996171E+02 -0.11782515104E+03  0.20405806482E+03  0.12509000000E+03 0.  0.
         25    1    4    4    0    0 -0.54481516622E+02  0.51287137164E+02 -0.19953026472E+03  0.24710006219E+03  0.12509000000E+03 0.  0.
         25    1    4    4    0    0 -0.10573442158E+02  0.37466859006E+02 -0.88109752837E+02  0.15788096734E+03  0.12509000000E+03 0.  0.
<mgrwt>
<rscale>  2 0.45445199E+03</rscale>
<asrwt>0</asrwt>
<pdfrwt beam="1">  1       21 0.14968671E-01 0.45445199E+03</pdfrwt>
<pdfrwt beam="2">  1       21 0.74595901E-01 0.45445199E+03</pdfrwt>
<totfact> 0.58377604E+04</totfact>
</mgrwt>
</event>
<event>
 7    0  0.4685107E-002  0.4463745E+03  0.7546771E-02  0.1028809E+00
         21   -1    0    0  502  501  0.00000000000E+00  0.00000000000E+00  0.33471229387E+03  0.33471229387E+03  0.00000000000E+00 0.  1.
         21   -1    0    0  501  502 -0.00000000000E+00 -0.00000000000E+00 -0.14882199030E+03  0.14882199030E+03  0.00000000000E+00 0.  1.
      99926    2    1    2    0    0  0.14210854715E-13  0.00000000000E+00  0.18589030357E+03  0.48353428417E+03  0.44637450533E+03 0.  0.
      99925    2    3    3    0    0  0.94848338593E+02  0.29768095859E+02  0.81708648270E+02  0.29278923898E+03  0.26299598551E+03 0.  0.
         25    1    3    3    0    0 -0.94848338593E+02 -0.29768095859E+02  0.10418165530E+03  0.19074504519E+03  0.12509000000E+03 0.  0.
         25    1    4    4    0    0  0.82417865369E+02  0.19889860427E+02  0.68789258383E+02  0.16603548190E+03  0.12509000000E+03 0.  0.
         25    1    4    4    0    0  0.12430473224E+02  0.98782354318E+01  0.12919389887E+02  0.12675375708E+03  0.12509000000E+03 0.  0.
<mgrwt>
<rscale>  2 0.44637451E+03</rscale>
<asrwt>0</asrwt>
<pdfrwt beam="1">  1       21 0.49222396E-01 0.44637451E+03</pdfrwt>
<pdfrwt beam="2">  1       21 0.21885587E-01 0.44637451E+03</pdfrwt>
<totfact> 0.71195300E+04</totfact>
</mgrwt>
</event>
<event>
 7    0  0.4685107E-002  0.4512374E+03  0.7546771E-02  0.1027354E+00
         21   -1    0    0  502  501  0.00000000000E+00  0.00000000000E+00  0.28751246428E+03  0.28751246428E+03  0.00000000000E+00 0. -1.
         21   -1    0    0  501  502 -0.00000000000E+00 -0.00000000000E+00 -0.17704904618E+03  0.17704904618E+03  0.00000000000E+00 0. -1.
      99926    2    1    2    0    0  0.35527136788E-14  0.00000000000E+00  0.11046341810E+03  0.46456151045E+03  0.45123744332E+03 0.  0.
      99925    2    3    3    0    0  0.21027398053E+02 -0.99631786339E+02  0.25850674118E+02  0.28242016736E+03  0.26215310272E+03 0.  0.
         25    1    3    3    0    0 -0.21027398053E+02  0.99631786339E+02  0.84612743983E+02  0.18214134309E+03  0.12509000000E+03 0.  0.
         25    1    4    4    0    0 -0.21788692149E+02 -0.61313675684E+02 -0.59933634095E+01  0.14112952362E+03  0.12509000000E+03 0.  0.
         25    1    4    4    0    0  0.42816090202E+02 -0.38318110655E+02  0.31844037528E+02  0.14129064375E+03  0.12509000000E+03 0.  0.
<mgrwt>
<rscale>  2 0.45123744E+03</rscale>
<asrwt>0</asrwt>
<pdfrwt beam="1">  1       21 0.42281245E-01 0.45123744E+03</pdfrwt>
<pdfrwt beam="2">  1       21 0.26036624E-01 0.45123744E+03</pdfrwt>
<totfact> 0.69905690E+04</totfact>
</mgrwt>
</event>
<event>
 7    0  0.4685107E-002  0.4546607E+03  0.7546771E-02  0.1026341E+00
         21   -1    0    0  502  501  0.00000000000E+00  0.00000000000E+00  0.34711151974E+03  0.34711151974E+03  0.00000000000E+00 0.  1.
         21   -1    0    0  501  502 -0.00000000000E+00 -0.00000000000E+00 -0.14888324607E+03  0.14888324607E+03  0.00000000000E+00 0.  1.
      99926    2    1    2    0    0  0.00000000000E+00  0.35527136788E-14  0.19822827367E+03  0.49599476581E+03  0.45466070781E+03 0.  0.
      99925    2    3    3    0    0  0.76982838479E+02 -0.27566607911E+02  0.20986137180E+03  0.34609775996E+03  0.26278430087E+03 0.  0.
         25    1    3    3    0    0 -0.76982838479E+02  0.27566607911E+02 -0.11633098127E+02  0.14989700585E+03  0.12509000000E+03 0.  0.
         25    1    4    4    0    0  0.32638068483E+02 -0.45186349238E+02  0.75321719299E+02  0.15629433505E+03  0.12509000000E+03 0.  0.
         25    1    4    4    0    0  0.44344769996E+02  0.17619741327E+02  0.13453965250E+03  0.18980342490E+03  0.12509000000E+03 0.  0.
<mgrwt>
<rscale>  2 0.45466071E+03</rscale>
<asrwt>0</asrwt>
<pdfrwt beam="1">  1       21 0.51045812E-01 0.45466071E+03</pdfrwt>
<pdfrwt beam="2">  1       21 0.21894595E-01 0.45466071E+03</pdfrwt>
<totfact> 0.65729824E+04</totfact>
</mgrwt>
</event>
<event>
 7    0  0.4685107E-002  0.4523043E+03  0.7546771E-02  0.1027037E+00
         21   -1    0    0  502  501  0.00000000000E+00  0.00000000000E+00  0.52437746268E+02  0.52437746268E+02  0.00000000000E+00 0.  1.
         21   -1    0    0  501  502 -0.00000000000E+00 -0.00000000000E+00 -0.97534324495E+03  0.97534324495E+03  0.00000000000E+00 0.  1.
      99926    2    1    2    0    0  0.00000000000E+00  0.71054273576E-14 -0.92290549868E+03  0.10277809912E+04  0.45230432942E+03 0.  0.
      99925    2    3    3    0    0  0.40810842427E+02 -0.55517019154E+02 -0.38565007802E+03  0.47186862456E+03  0.26303298632E+03 0.  0.
         25    1    3    3    0    0 -0.40810842427E+02  0.55517019154E+02 -0.53725542066E+03  0.55591236666E+03  0.12509000000E+03 0.  0.
         25    1    4    4    0    0  0.18320881234E+02 -0.41200146547E+01 -0.24341524877E+03  0.27431937708E+03  0.12509000000E+03 0.  0.
         25    1    4    4    0    0  0.22489961193E+02 -0.51397004499E+02 -0.14223482925E+03  0.19754924748E+03  0.12509000000E+03 0.  0.
<mgrwt>
<rscale>  2 0.45230433E+03</rscale>
<asrwt>0</asrwt>
<pdfrwt beam="1">  1       21 0.77114334E-02 0.45230433E+03</pdfrwt>
<pdfrwt beam="2">  1       21 0.14343283E+00 0.45230433E+03</pdfrwt>
<totfact> 0.38915960E+04</totfact>
</mgrwt>
</event>
<event>
 7    0  0.4685107E-002  0.4509519E+03  0.7546771E-02  0.1027439E+00
         21   -1    0    0  502  501  0.00000000000E+00  0.00000000000E+00  0.27287203698E+03  0.27287203698E+03  0.00000000000E+00 0. -1.
         21   -1    0    0  501  502 -0.00000000000E+00 -0.00000000000E+00 -0.18631223798E+03  0.18631223798E+03  0.00000000000E+00 0. -1.
      99926    2    1    2    0    0 -0.71054273576E-14  0.00000000000E+00  0.86559798996E+02  0.45918427496E+03  0.45095188166E+03 0.  0.
      99925    2    3    3    0    0 -0.58128313213E+02 -0.87309901279E+02  0.22761897628E+02  0.28391419772E+03  0.26284453204E+03 0.  0.
         25    1    3    3    0    0  0.58128313213E+02  0.87309901279E+02  0.63797901368E+02  0.17527007724E+03  0.12509000000E+03 0.  0.
         25    1    4    4    0    0  0.10182645917E+02 -0.33893143459E+02 -0.94088297683E-01  0.12999980155E+03  0.12509000000E+03 0.  0.
         25    1    4    4    0    0 -0.68310959130E+02 -0.53416757820E+02  0.22855985926E+02  0.15391439616E+03  0.12509000000E+03 0.  0.
<mgrwt>
<rscale>  2 0.45095188E+03</rscale>
<asrwt>0</asrwt>
<pdfrwt beam="1">  1       21 0.40128241E-01 0.45095188E+03</pdfrwt>
<pdfrwt beam="2">  1       21 0.27398859E-01 0.45095188E+03</pdfrwt>
<totfact> 0.70485113E+04</totfact>
</mgrwt>
</event>
<event>
 7    0  0.4685107E-002  0.4538958E+03  0.7546771E-02  0.1026567E+00
         21   -1    0    0  502  501  0.00000000000E+00  0.00000000000E+00  0.65292386207E+02  0.65292386207E+02  0.00000000000E+00 0.  1.
         21   -1    0    0  501  502 -0.00000000000E+00 -0.00000000000E+00 -0.78884148218E+03  0.78884148218E+03  0.00000000000E+00 0.  1.
      99926    2    1    2    0    0  0.00000000000E+00  0.00000000000E+00 -0.72354909598E+03  0.85413386839E+03  0.45389577090E+03 0.  0.
      99925    2    3    3    0    0 -0.10628884244E+03 -0.25268671768E+02 -0.40884636592E+03  0.49829522489E+03  0.26307215061E+03 0.  0.
         25    1    4    4    0    0 -0.18208211810E+02 -0.35703663956E+02 -0.18039606187E+03  0.22315137874E+03  0.12509000000E+03 0.  0.
         25    1    4    4    0    0 -0.88080630629E+02  0.10434992188E+02 -0.22845030405E+03  0.27514384615E+03  0.12509000000E+03 0.  0.
         25    1    3    3    0    0  0.10628884244E+03  0.25268671768E+02 -0.31470273006E+03  0.35583864350E+03  0.12509000000E+03 0.  0.
<mgrwt>
<rscale>  2 0.45389577E+03</rscale>
<asrwt>0</asrwt>
<pdfrwt beam="1">  1       21 0.96018219E-02 0.45389577E+03</pdfrwt>
<pdfrwt beam="2">  1       21 0.11600610E+00 0.45389577E+03</pdfrwt>
<totfact> 0.45649130E+04</totfact>
</mgrwt>
</event>
<event>
 7    0  0.4685107E-002  0.4336316E+03  0.7546771E-02  0.1032719E+00
         21   -1    0    0  502  501  0.00000000000E+00  0.00000000000E+00  0.62842582956E+03  0.62842582956E+03  0.00000000000E+00 0. -1.
         21   -1    0    0  501  502 -0.00000000000E+00 -0.00000000000E+00 -0.74804530765E+02  0.74804530765E+02  0.00000000000E+00 0. -1.
      99926    2    1    2    0    0  0.00000000000E+00  0.00000000000E+00  0.55362129879E+03  0.70323036032E+03  0.43363163769E+03 0.  0.
      99925    2    3    3    0    0 -0.65919469788E+02  0.29920282352E+02  0.44735155126E+03  0.52383870184E+03  0.26276030015E+03 0.  0.
         25    1    4    4    0    0 -0.40100420796E+01  0.69857616411E+01  0.15728843572E+03  0.20112692861E+03  0.12509000000E+03 0.  0.
         25    1    3    3    0    0  0.65919469788E+02 -0.29920282352E+02  0.10626974753E+03  0.17939165848E+03  0.12509000000E+03 0.  0.
         25    1    4    4    0    0 -0.61909427708E+02  0.22934520711E+02  0.29006311554E+03  0.32271177323E+03  0.12509000000E+03 0.  0.
<mgrwt>
<rscale>  2 0.43363164E+03</rscale>
<asrwt>0</asrwt>
<pdfrwt beam="1">  1       21 0.92415561E-01 0.43363164E+03</pdfrwt>
<pdfrwt beam="2">  1       21 0.11000667E-01 0.43363164E+03</pdfrwt>
<totfact> 0.62609907E+04</totfact>
</mgrwt>
</event>
<event>
 7    0  0.4685107E-002  0.4677959E+03  0.7546771E-02  0.1022544E+00
         21   -1    0    0  502  501  0.00000000000E+00  0.00000000000E+00  0.30393144986E+03  0.30393144986E+03  0.00000000000E+00 0. -1.
         21   -1    0    0  501  502 -0.00000000000E+00 -0.00000000000E+00 -0.18000192241E+03  0.18000192241E+03  0.00000000000E+00 0. -1.
      99926    2    1    2    0    0  0.00000000000E+00 -0.14210854715E-13  0.12392952745E+03  0.48393337226E+03  0.46779587537E+03 0.  0.
      99925    2    3    3    0    0  0.93961606686E+02 -0.76133194177E+02  0.10915159127E+03  0.30931681439E+03  0.26294063018E+03 0.  0.
         25    1    4    4    0    0  0.66804642575E+02 -0.53112024619E+01  0.39583249312E+02  0.14732756316E+03  0.12509000000E+03 0.  0.
         25    1    4    4    0    0  0.27156964111E+02 -0.70821991715E+02  0.69568341956E+02  0.16198925123E+03  0.12509000000E+03 0.  0.
         25    1    3    3    0    0 -0.93961606686E+02  0.76133194177E+02  0.14777936183E+02  0.17461655788E+03  0.12509000000E+03 0.  0.
<mgrwt>
<rscale>  2 0.46779588E+03</rscale>
<asrwt>0</asrwt>
<pdfrwt beam="1">  1       21 0.44695801E-01 0.46779588E+03</pdfrwt>
<pdfrwt beam="2">  1       21 0.26470871E-01 0.46779588E+03</pdfrwt>
<totfact> 0.60078138E+04</totfact>
</mgrwt>
</event>
<event>
 7    0  0.4685107E-002  0.4281961E+03  0.7546771E-02  0.1034431E+00
         21   -1    0    0  502  501  0.00000000000E+00  0.00000000000E+00  0.18799296637E+03  0.18799296637E+03  0.00000000000E+00 0.  1.
         21   -1    0    0  501  502 -0.00000000000E+00 -0.00000000000E+00 -0.24382812443E+03  0.24382812443E+03  0.00000000000E+00 0.  1.
      99926    2    1    2    0    0 -0.17763568394E-14  0.00000000000E+00 -0.55835158057E+02  0.43182109080E+03  0.42819608777E+03 0.  0.
      99925    2    3    3    0    0 -0.72064569269E+01  0.75010740797E+02  0.49845206966E+01  0.27362789979E+03  0.26299969171E+03 0.  0.
         25    1    4    4    0    0 -0.42776300467E+02  0.28565916754E+02  0.81481884084E+01  0.13549806108E+03  0.12509000000E+03 0.  0.
         25    1    3    3    0    0  0.72064569269E+01 -0.75010740797E+02 -0.60819678753E+02  0.15819319100E+03  0.12509000000E+03 0.  0.
         25    1    4    4    0    0  0.35569843540E+02  0.46444824043E+02 -0.31636677117E+01  0.13812983871E+03  0.12509000000E+03 0.  0.
<mgrwt>
<rscale>  2 0.42819609E+03</rscale>
<asrwt>0</asrwt>
<pdfrwt beam="1">  1       21 0.27646024E-01 0.42819609E+03</pdfrwt>
<pdfrwt beam="2">  1       21 0.35857077E-01 0.42819609E+03</pdfrwt>
<totfact> 0.87556555E+04</totfact>
</mgrwt>
</event>
<event>
 7    0  0.4685107E-002  0.4549075E+03  0.7546771E-02  0.1026269E+00
         21   -1    0    0  502  501  0.00000000000E+00  0.00000000000E+00  0.75427775103E+03  0.75427775103E+03  0.00000000000E+00 0.  1.
         21   -1    0    0  501  502 -0.00000000000E+00 -0.00000000000E+00 -0.68589054187E+02  0.68589054187E+02  0.00000000000E+00 0.  1.
      99926    2    1    2    0    0 -0.14210854715E-13  0.00000000000E+00  0.68568869684E+03  0.82286680521E+03  0.45490745229E+03 0.  0.
      99925    2    3    3    0    0 -0.89639209658E+02 -0.67353627364E+02  0.41948592265E+03  0.50809208559E+03  0.26385114954E+03 0.  0.
         25    1    3    3    0    0  0.89639209658E+02  0.67353627364E+02  0.26620277419E+03  0.31477471962E+03  0.12509000000E+03 0.  0.
         25    1    4    4    0    0 -0.15229386675E+02 -0.46222418989E+02  0.24949296548E+03  0.28330671394E+03  0.12509000000E+03 0.  0.
         25    1    4    4    0    0 -0.74409822982E+02 -0.21131208376E+02  0.16999295717E+03  0.22478537166E+03  0.12509000000E+03 0.  0.
<mgrwt>
<rscale>  2 0.45490745E+03</rscale>
<asrwt>0</asrwt>
<pdfrwt beam="1">  1       21 0.11092319E+00 0.45490745E+03</pdfrwt>
<pdfrwt beam="2">  1       21 0.10086626E-01 0.45490745E+03</pdfrwt>
<totfact> 0.46712496E+04</totfact>
</mgrwt>
</event>
<event>
 7    0  0.4685107E-002  0.4549844E+03  0.7546771E-02  0.1026246E+00
         21   -1    0    0  502  501  0.00000000000E+00  0.00000000000E+00  0.33972601615E+02  0.33972601615E+02  0.00000000000E+00 0.  1.
         21   -1    0    0  501  502 -0.00000000000E+00 -0.00000000000E+00 -0.15233658225E+04  0.15233658225E+04  0.00000000000E+00 0.  1.
      99926    2    1    2    0    0 -0.35527136788E-14  0.00000000000E+00 -0.14893932209E+04  0.15573384242E+04  0.45498439623E+03 0.  0.
      99925    2    3    3    0    0 -0.14852068596E+02  0.74818930417E+02 -0.65146663270E+03  0.70669929289E+03  0.26305258173E+03 0.  0.
         25    1    4    4    0    0  0.32478832390E+02  0.44919991343E+02 -0.32983245172E+03  0.35708491214E+03  0.12509000000E+03 0.  0.
         25    1    3    3    0    0  0.14852068596E+02 -0.74818930417E+02 -0.83792658821E+03  0.85063913126E+03  0.12509000000E+03 0.  0.
         25    1    4    4    0    0 -0.47330900986E+02  0.29898939074E+02 -0.32163418099E+03  0.34961438075E+03  0.12509000000E+03 0.  0.
<mgrwt>
<rscale>  2 0.45498440E+03</rscale>
<asrwt>0</asrwt>
<pdfrwt beam="1">  1       21 0.49959712E-02 0.45498440E+03</pdfrwt>
<pdfrwt beam="2">  1       21 0.22402437E+00 0.45498440E+03</pdfrwt>
<totfact> 0.22410935E+04</totfact>
</mgrwt>
</event>
<event>
 7    0  0.4685107E-002  0.4512948E+03  0.7546771E-02  0.1027337E+00
         21   -1    0    0  502  501  0.00000000000E+00  0.00000000000E+00  0.63016192719E+03  0.63016192719E+03  0.00000000000E+00 0. -1.
         21   -1    0    0  501  502 -0.00000000000E+00 -0.00000000000E+00 -0.80799464524E+02  0.80799464524E+02  0.00000000000E+00 0. -1.
      99926    2    1    2    0    0  0.14210854715E-13  0.71054273576E-14  0.54936246267E+03  0.71096139172E+03  0.45129478739E+03 0.  0.
      99925    2    3    3    0    0 -0.86695736123E+02 -0.45210376089E+02  0.42511739387E+03  0.50935664477E+03  0.26298149030E+03 0.  0.
         25    1    3    3    0    0  0.86695736123E+02  0.45210376089E+02  0.12424506880E+03  0.20160474694E+03  0.12509000000E+03 0.  0.
         25    1    4    4    0    0 -0.10704166902E+02 -0.47375495889E+02  0.20428855640E+03  0.24441836915E+03  0.12509000000E+03 0.  0.
         25    1    4    4    0    0 -0.75991569220E+02  0.21651197990E+01  0.22082883747E+03  0.26493827563E+03  0.12509000000E+03 0.  0.
<mgrwt>
<rscale>  2 0.45129479E+03</rscale>
<asrwt>0</asrwt>
<pdfrwt beam="1">  1       21 0.92670869E-01 0.45129479E+03</pdfrwt>
<pdfrwt beam="2">  1       21 0.11882275E-01 0.45129479E+03</pdfrwt>
<totfact> 0.53864973E+04</totfact>
</mgrwt>
</event>
<event>
 7    0  0.4685107E-002  0.4595673E+03  0.7546771E-02  0.1024907E+00
         21   -1    0    0  502  501  0.00000000000E+00  0.00000000000E+00  0.69156281735E+02  0.69156281735E+02  0.00000000000E+00 0. -1.
         21   -1    0    0  501  502 -0.00000000000E+00 -0.00000000000E+00 -0.76349588364E+03  0.76349588364E+03  0.00000000000E+00 0. -1.
      99926    2    1    2    0    0  0.00000000000E+00  0.00000000000E+00 -0.69433960191E+03  0.83265216538E+03  0.45956734624E+03 0.  0.
      99925    2    3    3    0    0 -0.58708363812E+02  0.49919332483E+02 -0.27440786633E+03  0.38776028820E+03  0.26290635645E+03 0.  0.
         25    1    3    3    0    0  0.58708363812E+02 -0.49919332483E+02 -0.41993173557E+03  0.44489187718E+03  0.12509000000E+03 0.  0.
         25    1    4    4    0    0 -0.29731191621E+02  0.44626673963E+02 -0.19109257910E+03  0.23460470087E+03  0.12509000000E+03 0.  0.
         25    1    4    4    0    0 -0.28977172191E+02  0.52926585201E+01 -0.83315287233E+02  0.15315558733E+03  0.12509000000E+03 0.  0.
<mgrwt>
<rscale>  2 0.45956735E+03</rscale>
<asrwt>0</asrwt>
<pdfrwt beam="1">  1       21 0.10170042E-01 0.45956735E+03</pdfrwt>
<pdfrwt beam="2">  1       21 0.11227881E+00 0.45956735E+03</pdfrwt>
<totfact> 0.44605600E+04</totfact>
</mgrwt>
</event>
<event>
 7    0  0.4685107E-002  0.4563818E+03  0.7546771E-02  0.1025836E+00
         21   -1    0    0  502  501  0.00000000000E+00  0.00000000000E+00  0.60903146323E+02  0.60903146323E+02  0.00000000000E+00 0.  1.
         21   -1    0    0  501  502 -0.00000000000E+00 -0.00000000000E+00 -0.85498174271E+03  0.85498174271E+03  0.00000000000E+00 0.  1.
      99926    2    1    2    0    0  0.14210854715E-13 -0.35527136788E-14 -0.79407859639E+03  0.91588488903E+03  0.45638176204E+03 0.  0.
      99925    2    3    3    0    0 -0.10630228268E+03 -0.18111446912E+02 -0.42168257869E+03  0.50850975245E+03  0.26294062324E+03 0.  0.
         25    1    4    4    0    0 -0.80878249592E+02 -0.36043133976E+02 -0.19852109936E+03  0.25079580091E+03  0.12509000000E+03 0.  0.
         25    1    3    3    0    0  0.10630228268E+03  0.18111446912E+02 -0.37239601769E+03  0.40737513658E+03  0.12509000000E+03 0.  0.
         25    1    4    4    0    0 -0.25424033087E+02  0.17931687064E+02 -0.22316147933E+03  0.25771395154E+03  0.12509000000E+03 0.  0.
<mgrwt>
<rscale>  2 0.45638176E+03</rscale>
<asrwt>0</asrwt>
<pdfrwt beam="1">  1       21 0.89563452E-02 0.45638176E+03</pdfrwt>
<pdfrwt beam="2">  1       21 0.12573261E+00 0.45638176E+03</pdfrwt>
<totfact> 0.42096939E+04</totfact>
</mgrwt>
</event>
<event>
 7    0  0.4685107E-002  0.4547014E+03  0.7546771E-02  0.1026329E+00
         21   -1    0    0  502  501  0.00000000000E+00  0.00000000000E+00  0.79083083818E+03  0.79083083818E+03  0.00000000000E+00 0. -1.
         21   -1    0    0  501  502 -0.00000000000E+00 -0.00000000000E+00 -0.65359539475E+02  0.65359539475E+02  0.00000000000E+00 0. -1.
      99926    2    1    2    0    0  0.00000000000E+00 -0.14210854715E-13  0.72547129871E+03  0.85619037766E+03  0.45470139382E+03 0.  0.
      99925    2    3    3    0    0 -0.29226667937E+02 -0.72906871771E+02  0.60928832068E+03  0.66826591796E+03  0.26301610087E+03 0.  0.
         25    1    4    4    0    0 -0.21683989893E+02 -0.63396830795E+01  0.35490087696E+03  0.37697815264E+03  0.12509000000E+03 0.  0.
         25    1    3    3    0    0  0.29226667937E+02  0.72906871771E+02  0.11618297802E+03  0.18792445970E+03  0.12509000000E+03 0.  0.
         25    1    4    4    0    0 -0.75426780448E+01 -0.66567188692E+02  0.25438744372E+03  0.29128776532E+03  0.12509000000E+03 0.  0.
<mgrwt>
<rscale>  2 0.45470139E+03</rscale>
<asrwt>0</asrwt>
<pdfrwt beam="1">  1       21 0.11629865E+00 0.45470139E+03</pdfrwt>
<pdfrwt beam="2">  1       21 0.96116974E-02 0.45470139E+03</pdfrwt>
<totfact> 0.45269647E+04</totfact>
</mgrwt>
</event>
<event>
 7    0  0.4685107E-002  0.4504378E+03  0.7546771E-02  0.1027592E+00
         21   -1    0    0  502  501  0.00000000000E+00  0.00000000000E+00  0.32867360296E+03  0.32867360296E+03  0.00000000000E+00 0.  1.
         21   -1    0    0  501  502 -0.00000000000E+00 -0.00000000000E+00 -0.15432801261E+03  0.15432801261E+03  0.00000000000E+00 0.  1.
      99926    2    1    2    0    0  0.33306690739E-15  0.00000000000E+00  0.17434559035E+03  0.48300161556E+03  0.45043776014E+03 0.  0.
      99925    2    3    3    0    0 -0.22701609833E+00  0.90330291879E+02  0.45082968521E+02  0.28171588167E+03  0.26300522954E+03 0.  0.
         25    1    4    4    0    0 -0.27910261382E+02  0.13967031140E+02  0.22218314330E+02  0.13082515905E+03  0.12509000000E+03 0.  0.
         25    1    3    3    0    0  0.22701609833E+00 -0.90330291879E+02  0.12926262183E+03  0.20128573390E+03  0.12509000000E+03 0.  0.
         25    1    4    4    0    0  0.27683245284E+02  0.76363260739E+02  0.22864654191E+02  0.15089072262E+03  0.12509000000E+03 0.  0.
<mgrwt>
<rscale>  2 0.45043776E+03</rscale>
<asrwt>0</asrwt>
<pdfrwt beam="1">  1       21 0.48334353E-01 0.45043776E+03</pdfrwt>
<pdfrwt beam="2">  1       21 0.22695296E-01 0.45043776E+03</pdfrwt>
<totfact> 0.68945620E+04</totfact>
</mgrwt>
</event>
<event>
 7    0  0.4685107E-002  0.4546919E+03  0.7546771E-02  0.1026332E+00
         21   -1    0    0  502  501  0.00000000000E+00  0.00000000000E+00  0.23409782954E+03  0.23409782954E+03  0.00000000000E+00 0.  1.
         21   -1    0    0  501  502 -0.00000000000E+00 -0.00000000000E+00 -0.22078879304E+03  0.22078879304E+03  0.00000000000E+00 0.  1.
      99926    2    1    2    0    0  0.00000000000E+00  0.00000000000E+00  0.13309036498E+02  0.45488662258E+03  0.45469188353E+03 0.  0.
      99925    2    3    3    0    0  0.48544220146E+02 -0.32277032310E+02 -0.88253027940E+02  0.28353695332E+03  0.26307082474E+03 0.  0.
         25    1    4    4    0    0  0.65417654225E+02 -0.19983323231E+02 -0.49738068354E+02  0.15099730539E+03  0.12509000000E+03 0.  0.
         25    1    4    4    0    0 -0.16873434079E+02 -0.12293709079E+02 -0.38514959587E+02  0.13253964793E+03  0.12509000000E+03 0.  0.
         25    1    3    3    0    0 -0.48544220146E+02  0.32277032310E+02  0.10156206444E+03  0.17134966927E+03  0.12509000000E+03 0.  0.
<mgrwt>
<rscale>  2 0.45469188E+03</rscale>
<asrwt>0</asrwt>
<pdfrwt beam="1">  1       21 0.34426151E-01 0.45469188E+03</pdfrwt>
<pdfrwt beam="2">  1       21 0.32468940E-01 0.45469188E+03</pdfrwt>
<totfact> 0.68722904E+04</totfact>
</mgrwt>
</event>
<event>
 7    0  0.4685107E-002  0.4523752E+03  0.7546771E-02  0.1027016E+00
         21   -1    0    0  502  501  0.00000000000E+00  0.00000000000E+00  0.19370191291E+03  0.19370191291E+03  0.00000000000E+00 0. -1.
         21   -1    0    0  501  502 -0.00000000000E+00 -0.00000000000E+00 -0.26412139705E+03  0.26412139705E+03  0.00000000000E+00 0. -1.
      99926    2    1    2    0    0  0.00000000000E+00  0.00000000000E+00 -0.70419484134E+02  0.45782330996E+03  0.45237515338E+03 0.  0.
      99925    2    3    3    0    0 -0.68777286835E+02 -0.55518450159E+02  0.22969677390E+02  0.27843084333E+03  0.26302759351E+03 0.  0.
         25    1    4    4    0    0 -0.35155618819E+02 -0.36736243824E+02 -0.28123933625E+02  0.13792727391E+03  0.12509000000E+03 0.  0.
         25    1    4    4    0    0 -0.33621668016E+02 -0.18782206335E+02  0.51093611015E+02  0.14050356943E+03  0.12509000000E+03 0.  0.
         25    1    3    3    0    0  0.68777286835E+02  0.55518450159E+02 -0.93389161524E+02  0.17939246663E+03  0.12509000000E+03 0.  0.
<mgrwt>
<rscale>  2 0.45237515E+03</rscale>
<asrwt>0</asrwt>
<pdfrwt beam="1">  1       21 0.28485576E-01 0.45237515E+03</pdfrwt>
<pdfrwt beam="2">  1       21 0.38841381E-01 0.45237515E+03</pdfrwt>
<totfact> 0.69788900E+04</totfact>
</mgrwt>
</event>
<event>
 7    0  0.4685107E-002  0.4531140E+03  0.7546771E-02  0.1026797E+00
         21   -1    0    0  502  501  0.00000000000E+00  0.00000000000E+00  0.14782899580E+04  0.14782899580E+04  0.00000000000E+00 0.  1.
         21   -1    0    0  501  502 -0.00000000000E+00 -0.00000000000E+00 -0.34721244158E+02  0.34721244158E+02  0.00000000000E+00 0.  1.
      99926    2    1    2    0    0  0.00000000000E+00 -0.71054273576E-14  0.14435687139E+04  0.15130112022E+04  0.45311396610E+03 0.  0.
      99925    2    3    3    0    0 -0.56407560738E+02 -0.42062945058E+02  0.11977297056E+04  0.12283439748E+04  0.26328951465E+03 0.  0.
         25    1    3    3    0    0  0.56407560738E+02  0.42062945058E+02  0.24583900828E+03  0.28466722739E+03  0.12509000000E+03 0.  0.
         25    1    4    4    0    0 -0.40932608082E+02 -0.87979145248E+00  0.74727315283E+03  0.75877593891E+03  0.12509000000E+03 0.  0.
         25    1    4    4    0    0 -0.15474952656E+02 -0.41183153606E+02  0.45045655276E+03  0.46956803588E+03  0.12509000000E+03 0.  0.
<mgrwt>
<rscale>  2 0.45311397E+03</rscale>
<asrwt>0</asrwt>
<pdfrwt beam="1">  1       21 0.21739554E+00 0.45311397E+03</pdfrwt>
<pdfrwt beam="2">  1       21 0.51060663E-02 0.45311397E+03</pdfrwt>
<totfact> 0.23808903E+04</totfact>
</mgrwt>
</event>
<event>
 7    0  0.4685107E-002  0.4516169E+03  0.7546771E-02  0.1027241E+00
         21   -1    0    0  502  501  0.00000000000E+00  0.00000000000E+00  0.21550613524E+03  0.21550613524E+03  0.00000000000E+00 0.  1.
         21   -1    0    0  501  502 -0.00000000000E+00 -0.00000000000E+00 -0.23660328418E+03  0.23660328418E+03  0.00000000000E+00 0.  1.
      99926    2    1    2    0    0  0.00000000000E+00  0.53290705182E-14 -0.21097148940E+02  0.45210941941E+03  0.45161691446E+03 0.  0.
      99925    2    3    3    0    0 -0.17417418449E+02 -0.69212759412E+01 -0.12174466340E+03  0.29046567288E+03  0.26305374646E+03 0.  0.
         25    1    3    3    0    0  0.17417418449E+02  0.69212759412E+01  0.10064751446E+03  0.16164374653E+03  0.12509000000E+03 0.  0.
         25    1    4    4    0    0 -0.51061836534E+01 -0.42120032905E+02 -0.74488474068E+02  0.15164501691E+03  0.12509000000E+03 0.  0.
         25    1    4    4    0    0 -0.12311234795E+02  0.35198756964E+02 -0.47256189334E+02  0.13882065597E+03  0.12509000000E+03 0.  0.
<mgrwt>
<rscale>  2 0.45161691E+03</rscale>
<asrwt>0</asrwt>
<pdfrwt beam="1">  1       21 0.31692079E-01 0.45161691E+03</pdfrwt>
<pdfrwt beam="2">  1       21 0.34794601E-01 0.45161691E+03</pdfrwt>
<totfact> 0.70645886E+04</totfact>
</mgrwt>
</event>
<event>
 7    0  0.4685107E-002  0.4579068E+03  0.7546771E-02  0.1025390E+00
         21   -1    0    0  502  501  0.00000000000E+00  0.00000000000E+00  0.36240068178E+02  0.36240068178E+02  0.00000000000E+00 0.  1.
         21   -1    0    0  501  502 -0.00000000000E+00 -0.00000000000E+00 -0.14464558171E+04  0.14464558171E+04  0.00000000000E+00 0.  1.
      99926    2    1    2    0    0 -0.71054273576E-14  0.00000000000E+00 -0.14102157489E+04  0.14826958852E+04  0.45790679151E+03 0.  0.
      99925    2    3    3    0    0 -0.37667705493E+02  0.65938812202E+02 -0.60191009783E+03  0.66125062436E+03  0.26303961557E+03 0.  0.
         25    1    3    3    0    0  0.37667705493E+02 -0.65938812202E+02 -0.80830565106E+03  0.82144526088E+03  0.12509000000E+03 0.  0.
         25    1    4    4    0    0  0.21699665796E+02  0.38036223152E+02 -0.29007412058E+03  0.31891712606E+03  0.12509000000E+03 0.  0.
         25    1    4    4    0    0 -0.59367371288E+02  0.27902589050E+02 -0.31183597725E+03  0.34233349830E+03  0.12509000000E+03 0.  0.
<mgrwt>
<rscale>  2 0.45790679E+03</rscale>
<asrwt>0</asrwt>
<pdfrwt beam="1">  1       21 0.53294223E-02 0.45790679E+03</pdfrwt>
<pdfrwt beam="2">  1       21 0.21271407E+00 0.45790679E+03</pdfrwt>
<totfact> 0.23667508E+04</totfact>
</mgrwt>
</event>
<event>
 7    0  0.4685107E-002  0.4558145E+03  0.7546771E-02  0.1026002E+00
         21   -1    0    0  502  501  0.00000000000E+00  0.00000000000E+00  0.35466686554E+03  0.35466686554E+03  0.00000000000E+00 0.  1.
         21   -1    0    0  501  502 -0.00000000000E+00 -0.00000000000E+00 -0.14645211408E+03  0.14645211408E+03  0.00000000000E+00 0.  1.
      99926    2    1    2    0    0  0.88817841970E-15  0.14210854715E-13  0.20821475145E+03  0.50111897962E+03  0.45581448969E+03 0.  0.
      99925    2    3    3    0    0 -0.28086915918E+01  0.11287363182E+03  0.11401181481E+03  0.30806446172E+03  0.26297656388E+03 0.  0.
         25    1    4    4    0    0 -0.32650147011E+02  0.29168538501E+02  0.58833237204E+02  0.14500239184E+03  0.12509000000E+03 0.  0.
         25    1    3    3    0    0  0.28086915918E+01 -0.11287363182E+03  0.94202936643E+02  0.19305451790E+03  0.12509000000E+03 0.  0.
         25    1    4    4    0    0  0.29841455419E+02  0.83705093322E+02  0.55178577606E+02  0.16306206989E+03  0.12509000000E+03 0.  0.
<mgrwt>
<rscale>  2 0.45581449E+03</rscale>
<asrwt>0</asrwt>
<pdfrwt beam="1">  1       21 0.52156892E-01 0.45581449E+03</pdfrwt>
<pdfrwt beam="2">  1       21 0.21537076E-01 0.45581449E+03</pdfrwt>
<totfact> 0.64772329E+04</totfact>
</mgrwt>
</event>
<event>
 7    0  0.4685107E-002  0.4543379E+03  0.7546771E-02  0.1026436E+00
         21   -1    0    0  502  501  0.00000000000E+00  0.00000000000E+00  0.27317327025E+03  0.27317327025E+03  0.00000000000E+00 0. -1.
         21   -1    0    0  501  502 -0.00000000000E+00 -0.00000000000E+00 -0.18891210626E+03  0.18891210626E+03  0.00000000000E+00 0. -1.
      99926    2    1    2    0    0  0.00000000000E+00  0.00000000000E+00  0.84261163988E+02  0.46208537651E+03  0.45433792646E+03 0.  0.
      99925    2    3    3    0    0 -0.17958293980E+02  0.95270737706E+02  0.11111926076E+03  0.30156161114E+03  0.26304543603E+03 0.  0.
         25    1    4    4    0    0 -0.15662328405E+02  0.69538345225E+02  0.21599200281E+02  0.14558476411E+03  0.12509000000E+03 0.  0.
         25    1    4    4    0    0 -0.22959655751E+01  0.25732392482E+02  0.89520060481E+02  0.15597684703E+03  0.12509000000E+03 0.  0.
         25    1    3    3    0    0  0.17958293980E+02 -0.95270737706E+02 -0.26858096774E+02  0.16052376537E+03  0.12509000000E+03 0.  0.
<mgrwt>
<rscale>  2 0.45433793E+03</rscale>
<asrwt>0</asrwt>
<pdfrwt beam="1">  1       21 0.40172540E-01 0.45433793E+03</pdfrwt>
<pdfrwt beam="2">  1       21 0.27781192E-01 0.45433793E+03</pdfrwt>
<totfact> 0.68386263E+04</totfact>
</mgrwt>
</event>
<event>
 7    0  0.4685107E-002  0.4569076E+03  0.7546771E-02  0.1025682E+00
         21   -1    0    0  502  501  0.00000000000E+00  0.00000000000E+00  0.43985845491E+03  0.43985845491E+03  0.00000000000E+00 0.  1.
         21   -1    0    0  501  502 -0.00000000000E+00 -0.00000000000E+00 -0.11865439948E+03  0.11865439948E+03  0.00000000000E+00 0.  1.
      99926    2    1    2    0    0  0.71054273576E-14  0.00000000000E+00  0.32120405543E+03  0.55851285439E+03  0.45690760915E+03 0.  0.
      99925    2    3    3    0    0 -0.47766286382E+02  0.56694682223E+02  0.30917206023E+03  0.41260815222E+03  0.26298710871E+03 0.  0.
         25    1    4    4    0    0 -0.46867563207E+02  0.61581601351E+02  0.14976017571E+03  0.20991541257E+03  0.12509000000E+03 0.  0.
         25    1    3    3    0    0  0.47766286382E+02 -0.56694682223E+02  0.12031995203E+02  0.14590470217E+03  0.12509000000E+03 0.  0.
         25    1    4    4    0    0 -0.89872317517E+00 -0.48869191283E+01  0.15941188452E+03  0.20269273965E+03  0.12509000000E+03 0.  0.
<mgrwt>
<rscale>  2 0.45690761E+03</rscale>
<asrwt>0</asrwt>
<pdfrwt beam="1">  1       21 0.64685067E-01 0.45690761E+03</pdfrwt>
<pdfrwt beam="2">  1       21 0.17449177E-01 0.45690761E+03</pdfrwt>
<totfact> 0.60391008E+04</totfact>
</mgrwt>
</event>
<event>
 7    0  0.4685107E-002  0.4501134E+03  0.7546771E-02  0.1027688E+00
         21   -1    0    0  502  501  0.00000000000E+00  0.00000000000E+00  0.51316566124E+03  0.51316566124E+03  0.00000000000E+00 0. -1.
         21   -1    0    0  501  502 -0.00000000000E+00 -0.00000000000E+00 -0.98702072378E+02  0.98702072378E+02  0.00000000000E+00 0. -1.
      99926    2    1    2    0    0  0.17763568394E-14  0.00000000000E+00  0.41446358886E+03  0.61186773362E+03  0.45011338233E+03 0.  0.
      99925    2    3    3    0    0 -0.13494250661E+02 -0.74637255833E+02  0.36813248028E+03  0.45841775974E+03  0.26243571528E+03 0.  0.
         25    1    4    4    0    0 -0.34648549138E+02 -0.50502786931E+02  0.23333394114E+03  0.27174121814E+03  0.12509000000E+03 0.  0.
         25    1    3    3    0    0  0.13494250661E+02  0.74637255833E+02  0.46331108582E+02  0.15344997387E+03  0.12509000000E+03 0.  0.
         25    1    4    4    0    0  0.21154298476E+02 -0.24134468902E+02  0.13479853913E+03  0.18667654161E+03  0.12509000000E+03 0.  0.
<mgrwt>
<rscale>  2 0.45011338E+03</rscale>
<asrwt>0</asrwt>
<pdfrwt beam="1">  1       21 0.75465537E-01 0.45011338E+03</pdfrwt>
<pdfrwt beam="2">  1       21 0.14515011E-01 0.45011338E+03</pdfrwt>
<totfact> 0.60245429E+04</totfact>
</mgrwt>
</event>
<event>
 7    0  0.4685107E-002  0.4418997E+03  0.7546771E-02  0.1030166E+00
         21   -1    0    0  502  501  0.00000000000E+00  0.00000000000E+00  0.20291611506E+03  0.20291611506E+03  0.00000000000E+00 0.  1.
         21   -1    0    0  501  502 -0.00000000000E+00 -0.00000000000E+00 -0.24058633109E+03  0.24058633109E+03  0.00000000000E+00 0.  1.
      99926    2    1    2    0    0 -0.71054273576E-14 -0.71054273576E-14 -0.37670216030E+02  0.44350244614E+03  0.44189973360E+03 0.  0.
      99925    2    3    3    0    0 -0.57238476588E+02  0.58270546040E+02  0.34562671735E+02  0.27756029383E+03  0.26300843845E+03 0.  0.
         25    1    3    3    0    0  0.57238476588E+02 -0.58270546040E+02 -0.72232887766E+02  0.16594215231E+03  0.12509000000E+03 0.  0.
         25    1    4    4    0    0  0.81849579500E+01  0.19041669212E+02  0.33072685944E+02  0.13103774021E+03  0.12509000000E+03 0.  0.
         25    1    4    4    0    0 -0.65423434538E+02  0.39228876828E+02  0.14899857914E+01  0.14652255363E+03  0.12509000000E+03 0.  0.
<mgrwt>
<rscale>  2 0.44189973E+03</rscale>
<asrwt>0</asrwt>
<pdfrwt beam="1">  1       21 0.29840605E-01 0.44189973E+03</pdfrwt>
<pdfrwt beam="2">  1       21 0.35380343E-01 0.44189973E+03</pdfrwt>
<totfact> 0.77150548E+04</totfact>
</mgrwt>
</event>
<event>
 7    0  0.4685107E-002  0.4358421E+03  0.7546771E-02  0.1032030E+00
         21   -1    0    0  502  501  0.00000000000E+00  0.00000000000E+00  0.30621308188E+04  0.30621308188E+04  0.00000000000E+00 0.  1.
         21   -1    0    0  501  502 -0.00000000000E+00 -0.00000000000E+00 -0.15508672763E+02  0.15508672763E+02  0.00000000000E+00 0.  1.
      99926    2    1    2    0    0  0.00000000000E+00 -0.71054273576E-14  0.30466221461E+04  0.30776394916E+04  0.43584210364E+03 0.  0.
      99925    2    3    3    0    0 -0.47302927232E+02  0.54976891254E+02  0.15315339794E+04  0.15556671901E+04  0.26314264372E+03 0.  0.
         25    1    4    4    0    0  0.30185925627E-01 -0.33169367251E+01  0.79982175503E+03  0.80955132691E+03  0.12509000000E+03 0.  0.
         25    1    3    3    0    0  0.47302927232E+02 -0.54976891254E+02  0.15150881667E+04  0.15219723015E+04  0.12509000000E+03 0.  0.
         25    1    4    4    0    0 -0.47333113158E+02  0.58293827979E+02  0.73171222433E+03  0.74611586320E+03  0.12509000000E+03 0.  0.
<mgrwt>
<rscale>  2 0.43584210E+03</rscale>
<asrwt>0</asrwt>
<pdfrwt beam="1">  1       21 0.45031294E+00 0.43584210E+03</pdfrwt>
<pdfrwt beam="2">  1       21 0.22806893E-02 0.43584210E+03</pdfrwt>
<totfact> 0.33034870E+03</totfact>
</mgrwt>
</event>
<event>
 7    0  0.4685107E-002  0.4547824E+03  0.7546771E-02  0.1026305E+00
         21   -1    0    0  502  501  0.00000000000E+00  0.00000000000E+00  0.11833137308E+03  0.11833137308E+03  0.00000000000E+00 0. -1.
         21   -1    0    0  501  502 -0.00000000000E+00 -0.00000000000E+00 -0.43696571888E+03  0.43696571888E+03  0.00000000000E+00 0. -1.
      99926    2    1    2    0    0  0.00000000000E+00  0.00000000000E+00 -0.31863434580E+03  0.55529709196E+03  0.45478238094E+03 0.  0.
      99925    2    3    3    0    0  0.35403731517E+02 -0.99250441399E+02 -0.25048371169E+03  0.37810766972E+03  0.26290539317E+03 0.  0.
         25    1    4    4    0    0  0.53212290467E+02 -0.72522846616E+02 -0.13422887246E+03  0.20434287225E+03  0.12509000000E+03 0.  0.
         25    1    3    3    0    0 -0.35403731517E+02  0.99250441399E+02 -0.68150634109E+02  0.17718942224E+03  0.12509000000E+03 0.  0.
         25    1    4    4    0    0 -0.17808558950E+02 -0.26727594784E+02 -0.11625483924E+03  0.17376479747E+03  0.12509000000E+03 0.  0.
<mgrwt>
<rscale>  2 0.45478238E+03</rscale>
<asrwt>0</asrwt>
<pdfrwt beam="1">  1       21 0.17401673E-01 0.45478238E+03</pdfrwt>
<pdfrwt beam="2">  1       21 0.64259663E-01 0.45478238E+03</pdfrwt>
<totfact> 0.61623848E+04</totfact>
</mgrwt>
</event>
<event>
 7    0  0.4685107E-002  0.4614070E+03  0.7546771E-02  0.1024374E+00
         21   -1    0    0  502  501  0.00000000000E+00  0.00000000000E+00  0.20965987390E+03  0.20965987390E+03  0.00000000000E+00 0. -1.
         21   -1    0    0  501  502 -0.00000000000E+00 -0.00000000000E+00 -0.25385926542E+03  0.25385926542E+03  0.00000000000E+00 0. -1.
      99926    2    1    2    0    0  0.00000000000E+00  0.00000000000E+00 -0.44199391527E+02  0.46351913932E+03  0.46140698554E+03 0.  0.
      99925    2    3    3    0    0 -0.82441800431E+02  0.44153948128E+02 -0.10169973351E+03  0.29708591240E+03  0.26300376796E+03 0.  0.
         25    1    4    4    0    0 -0.64512254438E+02  0.57263772706E+02 -0.60085531319E+02  0.16339752082E+03  0.12509000000E+03 0.  0.
         25    1    3    3    0    0  0.82441800431E+02 -0.44153948128E+02  0.57500341979E+02  0.16643322691E+03  0.12509000000E+03 0.  0.
         25    1    4    4    0    0 -0.17929545994E+02 -0.13109824578E+02 -0.41614202187E+02  0.13368839158E+03  0.12509000000E+03 0.  0.
<mgrwt>
<rscale>  2 0.46140699E+03</rscale>
<asrwt>0</asrwt>
<pdfrwt beam="1">  1       21 0.30832334E-01 0.46140699E+03</pdfrwt>
<pdfrwt beam="2">  1       21 0.37332245E-01 0.46140699E+03</pdfrwt>
<totfact> 0.64562145E+04</totfact>
</mgrwt>
</event>
<event>
 7    0  0.4685107E-002  0.4570892E+03  0.7546771E-02  0.1025629E+00
         21   -1    0    0  502  501  0.00000000000E+00  0.00000000000E+00  0.22431444808E+03  0.22431444808E+03  0.00000000000E+00 0. -1.
         21   -1    0    0  501  502 -0.00000000000E+00 -0.00000000000E+00 -0.23285447748E+03  0.23285447748E+03  0.00000000000E+00 0. -1.
      99926    2    1    2    0    0  0.00000000000E+00 -0.35527136788E-14 -0.85400294058E+01  0.45716892556E+03  0.45708915366E+03 0.  0.
      99925    2    3    3    0    0 -0.76031093931E+01 -0.29346038710E+02 -0.11648233426E+03  0.28918664513E+03  0.26294825398E+03 0.  0.
         25    1    4    4    0    0 -0.43287882091E+02 -0.21643465826E+02 -0.65433884537E+02  0.14923599329E+03  0.12509000000E+03 0.  0.
         25    1    3    3    0    0  0.76031093931E+01  0.29346038710E+02  0.10794230485E+03  0.16798228043E+03  0.12509000000E+03 0.  0.
         25    1    4    4    0    0  0.35684772698E+02 -0.77025728841E+01 -0.51048449724E+02  0.13995065184E+03  0.12509000000E+03 0.  0.
<mgrwt>
<rscale>  2 0.45708915E+03</rscale>
<asrwt>0</asrwt>
<pdfrwt beam="1">  1       21 0.32987419E-01 0.45708915E+03</pdfrwt>
<pdfrwt beam="2">  1       21 0.34243305E-01 0.45708915E+03</pdfrwt>
<totfact> 0.67259024E+04</totfact>
</mgrwt>
</event>
<event>
 7    0  0.4685107E-002  0.4543267E+03  0.7546771E-02  0.1026440E+00
         21   -1    0    0  502  501  0.00000000000E+00  0.00000000000E+00  0.17343962007E+03  0.17343962007E+03  0.00000000000E+00 0. -1.
         21   -1    0    0  501  502 -0.00000000000E+00 -0.00000000000E+00 -0.29752827663E+03  0.29752827663E+03  0.00000000000E+00 0. -1.
      99926    2    1    2    0    0  0.00000000000E+00  0.00000000000E+00 -0.12408865656E+03  0.47096789671E+03  0.45432671619E+03 0.  0.
      99925    2    3    3    0    0 -0.69410908027E+02 -0.82121058345E+02 -0.11227568301E+03  0.30559318032E+03  0.26309621906E+03 0.  0.
         25    1    3    3    0    0  0.69410908027E+02  0.82121058345E+02 -0.11812973552E+02  0.16537471639E+03  0.12509000000E+03 0.  0.
         25    1    4    4    0    0 -0.67895758424E+02 -0.42422966477E+02 -0.86400605141E+02  0.17182000688E+03  0.12509000000E+03 0.  0.
         25    1    4    4    0    0 -0.15151496032E+01 -0.39698091868E+02 -0.25875077867E+02  0.13377317344E+03  0.12509000000E+03 0.  0.
<mgrwt>
<rscale>  2 0.45432672E+03</rscale>
<asrwt>0</asrwt>
<pdfrwt beam="1">  1       21 0.25505827E-01 0.45432672E+03</pdfrwt>
<pdfrwt beam="2">  1       21 0.43754158E-01 0.45432672E+03</pdfrwt>
<totfact> 0.67724833E+04</totfact>
</mgrwt>
</event>
<event>
 7    0  0.4685107E-002  0.4697133E+03  0.7546771E-02  0.1022001E+00
         21   -1    0    0  502  501  0.00000000000E+00  0.00000000000E+00  0.67736767268E+03  0.67736767268E+03  0.00000000000E+00 0. -1.
         21   -1    0    0  501  502 -0.00000000000E+00 -0.00000000000E+00 -0.81429416253E+02  0.81429416253E+02  0.00000000000E+00 0. -1.
      99926    2    1    2    0    0  0.14210854715E-13  0.00000000000E+00  0.59593825643E+03  0.75879708894E+03  0.46971333460E+03 0.  0.
      99925    2    3    3    0    0  0.10375972414E+03 -0.63379962847E+01  0.25360283902E+03  0.37978878209E+03  0.26290467567E+03 0.  0.
         25    1    3    3    0    0 -0.10375972414E+03  0.63379962847E+01  0.34233541741E+03  0.37900830685E+03  0.12509000000E+03 0.  0.
         25    1    4    4    0    0  0.30150633732E+02  0.15413748212E+02  0.15924148127E+03  0.20530952683E+03  0.12509000000E+03 0.  0.
         25    1    4    4    0    0  0.73609090407E+02 -0.21751744497E+02  0.94361357751E+02  0.17447925526E+03  0.12509000000E+03 0.  0.
<mgrwt>
<rscale>  2 0.46971333E+03</rscale>
<asrwt>0</asrwt>
<pdfrwt beam="1">  1       21 0.99612890E-01 0.46971333E+03</pdfrwt>
<pdfrwt beam="2">  1       21 0.11974915E-01 0.46971333E+03</pdfrwt>
<totfact> 0.44457006E+04</totfact>
</mgrwt>
</event>
<event>
 7    0  0.4685107E-002  0.4505199E+03  0.7546771E-02  0.1027567E+00
         21   -1    0    0  502  501  0.00000000000E+00  0.00000000000E+00  0.65367753601E+02  0.65367753601E+02  0.00000000000E+00 0.  1.
         21   -1    0    0  501  502 -0.00000000000E+00 -0.00000000000E+00 -0.77625486773E+03  0.77625486773E+03  0.00000000000E+00 0.  1.
      99926    2    1    2    0    0  0.00000000000E+00  0.00000000000E+00 -0.71088711412E+03  0.84162262133E+03  0.45051986382E+03 0.  0.
      99925    2    3    3    0    0 -0.74998406219E+02 -0.48592828389E+02 -0.33302149005E+03  0.43368149584E+03  0.26304049706E+03 0.  0.
         25    1    3    3    0    0  0.74998406219E+02  0.48592828389E+02 -0.37786562408E+03  0.40794112549E+03  0.12509000000E+03 0.  0.
         25    1    4    4    0    0 -0.63224629592E+02  0.36719667110E+01 -0.14633557297E+03  0.20266337889E+03  0.12509000000E+03 0.  0.
         25    1    4    4    0    0 -0.11773776627E+02 -0.52264795100E+02 -0.18668591708E+03  0.23101811695E+03  0.12509000000E+03 0.  0.
<mgrwt>
<rscale>  2 0.45051986E+03</rscale>
<asrwt>0</asrwt>
<pdfrwt beam="1">  1       21 0.96129057E-02 0.45051986E+03</pdfrwt>
<pdfrwt beam="2">  1       21 0.11415512E+00 0.45051986E+03</pdfrwt>
<totfact> 0.47462822E+04</totfact>
</mgrwt>
</event>
<event>
 7    0  0.4685107E-002  0.4187958E+03  0.7546771E-02  0.1037459E+00
         21   -1    0    0  502  501  0.00000000000E+00  0.00000000000E+00  0.48641861810E+03  0.48641861810E+03  0.00000000000E+00 0.  1.
         21   -1    0    0  501  502 -0.00000000000E+00 -0.00000000000E+00 -0.90143498551E+02  0.90143498551E+02  0.00000000000E+00 0.  1.
      99926    2    1    2    0    0  0.00000000000E+00 -0.71054273576E-14  0.39627511954E+03  0.57656211665E+03  0.41879577837E+03 0.  0.
      99925    2    3    3    0    0 -0.12654199356E+02  0.63241797506E+02  0.30940784025E+03  0.41117443263E+03  0.26300484544E+03 0.  0.
         25    1    3    3    0    0  0.12654199356E+02 -0.63241797506E+02  0.86867279292E+02  0.16538768402E+03  0.12509000000E+03 0.  0.
         25    1    4    4    0    0 -0.37835783721E+02  0.22235309544E+02  0.18997372178E+03  0.23165379036E+03  0.12509000000E+03 0.  0.
         25    1    4    4    0    0  0.25181584365E+02  0.41006487962E+02  0.11943411847E+03  0.17952064227E+03  0.12509000000E+03 0.  0.
<mgrwt>
<rscale>  2 0.41879578E+03</rscale>
<asrwt>0</asrwt>
<pdfrwt beam="1">  1       21 0.71532148E-01 0.41879578E+03</pdfrwt>
<pdfrwt beam="2">  1       21 0.13256397E-01 0.41879578E+03</pdfrwt>
<totfact> 0.80940685E+04</totfact>
</mgrwt>
</event>
<event>
 7    0  0.4685107E-002  0.4236886E+03  0.7546771E-02  0.1035872E+00
         21   -1    0    0  502  501  0.00000000000E+00  0.00000000000E+00  0.20389496805E+02  0.20389496805E+02  0.00000000000E+00 0. -1.
         21   -1    0    0  501  502 -0.00000000000E+00 -0.00000000000E+00 -0.22010355185E+04  0.22010355185E+04  0.00000000000E+00 0. -1.
      99926    2    1    2    0    0  0.00000000000E+00  0.71054273576E-14 -0.21806460217E+04  0.22214250153E+04  0.42368859636E+03 0.  0.
      99925    2    3    3    0    0 -0.22430367160E+02  0.61316679832E+02 -0.16615260586E+04  0.16834697191E+04  0.26294218929E+03 0.  0.
         25    1    3    3    0    0  0.22430367160E+02 -0.61316679832E+02 -0.51911996302E+03  0.53795529620E+03  0.12509000000E+03 0.  0.
         25    1    4    4    0    0 -0.63788867560E+01  0.53193889764E+02 -0.10682779979E+04  0.10769102418E+04  0.12509000000E+03 0.  0.
         25    1    4    4    0    0 -0.16051480404E+02  0.81227900681E+01 -0.59324806079E+03  0.60655947728E+03  0.12509000000E+03 0.  0.
<mgrwt>
<rscale>  2 0.42368860E+03</rscale>
<asrwt>0</asrwt>
<pdfrwt beam="1">  1       21 0.29984560E-02 0.42368860E+03</pdfrwt>
<pdfrwt beam="2">  1       21 0.32368163E+00 0.42368860E+03</pdfrwt>
<totfact> 0.13393341E+04</totfact>
</mgrwt>
</event>
<event>
 7    0  0.4685107E-002  0.4604879E+03  0.7546771E-02  0.1024640E+00
         21   -1    0    0  502  501  0.00000000000E+00  0.00000000000E+00  0.45162948393E+03  0.45162948393E+03  0.00000000000E+00 0. -1.
         21   -1    0    0  501  502 -0.00000000000E+00 -0.00000000000E+00 -0.11738004249E+03  0.11738004249E+03  0.00000000000E+00 0. -1.
      99926    2    1    2    0    0  0.00000000000E+00 -0.71054273576E-14  0.33424944144E+03  0.56900952641E+03  0.46048794995E+03 0.  0.
      99925    2    3    3    0    0  0.10724538198E+03  0.47269065231E+02  0.22923666310E+03  0.36798433347E+03  0.26292030253E+03 0.  0.
         25    1    4    4    0    0  0.32506599936E+02  0.52347934444E+02  0.13682530250E+03  0.19536032551E+03  0.12509000000E+03 0.  0.
         25    1    4    4    0    0  0.74738782047E+02 -0.50788692123E+01  0.92411360601E+02  0.17262400796E+03  0.12509000000E+03 0.  0.
         25    1    3    3    0    0 -0.10724538198E+03 -0.47269065231E+02  0.10501277834E+03  0.20102519295E+03  0.12509000000E+03 0.  0.
<mgrwt>
<rscale>  2 0.46048795E+03</rscale>
<asrwt>0</asrwt>
<pdfrwt beam="1">  1       21 0.66416100E-01 0.46048795E+03</pdfrwt>
<pdfrwt beam="2">  1       21 0.17261771E-01 0.46048795E+03</pdfrwt>
<totfact> 0.58066172E+04</totfact>
</mgrwt>
</event>
<event>
 7    0  0.4685107E-002  0.4558154E+03  0.7546771E-02  0.1026002E+00
         21   -1    0    0  502  501  0.00000000000E+00  0.00000000000E+00  0.58415952014E+02  0.58415952014E+02  0.00000000000E+00 0. -1.
         21   -1    0    0  501  502 -0.00000000000E+00 -0.00000000000E+00 -0.88917366677E+03  0.88917366677E+03  0.00000000000E+00 0. -1.
      99926    2    1    2    0    0 -0.35527136788E-14  0.00000000000E+00 -0.83075771476E+03  0.94758961878E+03  0.45581542865E+03 0.  0.
      99925    2    3    3    0    0 -0.14485447544E+02 -0.11299659373E+03 -0.51801259518E+03  0.59201251561E+03  0.26298994560E+03 0.  0.
         25    1    4    4    0    0  0.21807673613E+02 -0.33187215368E+02 -0.20002450509E+03  0.23923686302E+03  0.12509000000E+03 0.  0.
         25    1    3    3    0    0  0.14485447544E+02  0.11299659373E+03 -0.31274511957E+03  0.35557710317E+03  0.12509000000E+03 0.  0.
         25    1    4    4    0    0 -0.36293121156E+02 -0.79809378360E+02 -0.31798809009E+03  0.35277565259E+03  0.12509000000E+03 0.  0.
<mgrwt>
<rscale>  2 0.45581543E+03</rscale>
<asrwt>0</asrwt>
<pdfrwt beam="1">  1       21 0.85905818E-02 0.45581543E+03</pdfrwt>
<pdfrwt beam="2">  1       21 0.13076082E+00 0.45581543E+03</pdfrwt>
<totfact> 0.40976643E+04</totfact>
</mgrwt>
</event>
<event>
 7    0  0.4685107E-002  0.4683070E+03  0.7546771E-02  0.1022399E+00
         21   -1    0    0  502  501  0.00000000000E+00  0.00000000000E+00  0.18049611559E+03  0.18049611559E+03  0.00000000000E+00 0. -1.
         21   -1    0    0  501  502 -0.00000000000E+00 -0.00000000000E+00 -0.30376195911E+03  0.30376195911E+03  0.00000000000E+00 0. -1.
      99926    2    1    2    0    0  0.71054273576E-14  0.00000000000E+00 -0.12326584352E+03  0.48425807469E+03  0.46830696635E+03 0.  0.
      99925    2    3    3    0    0 -0.51307094302E+02 -0.62431676845E+02  0.22216619734E+02  0.27606876802E+03  0.26304040428E+03 0.  0.
         25    1    3    3    0    0  0.51307094302E+02  0.62431676845E+02 -0.14548246325E+03  0.20818930667E+03  0.12509000000E+03 0.  0.
         25    1    4    4    0    0  0.37751284401E+01 -0.47910426539E+02  0.33587467002E+02  0.13814950816E+03  0.12509000000E+03 0.  0.
         25    1    4    4    0    0 -0.55082222742E+02 -0.14521250307E+02 -0.11370847268E+02  0.13791925986E+03  0.12509000000E+03 0.  0.
<mgrwt>
<rscale>  2 0.46830697E+03</rscale>
<asrwt>0</asrwt>
<pdfrwt beam="1">  1       21 0.26543547E-01 0.46830697E+03</pdfrwt>
<pdfrwt beam="2">  1       21 0.44670876E-01 0.46830697E+03</pdfrwt>
<totfact> 0.59819985E+04</totfact>
</mgrwt>
</event>
<event>
 7    0  0.4685107E-002  0.4525435E+03  0.7546771E-02  0.1026966E+00
         21   -1    0    0  502  501  0.00000000000E+00  0.00000000000E+00  0.95834146879E+03  0.95834146879E+03  0.00000000000E+00 0.  1.
         21   -1    0    0  501  502 -0.00000000000E+00 -0.00000000000E+00 -0.53424493205E+02  0.53424493205E+02  0.00000000000E+00 0.  1.
      99926    2    1    2    0    0  0.00000000000E+00  0.14210854715E-13  0.90491697558E+03  0.10117659620E+04  0.45254351078E+03 0.  0.
      99925    2    3    3    0    0 -0.41140911445E+02 -0.10223114515E+03  0.59923476109E+03  0.66358080150E+03  0.26289427454E+03 0.  0.
         25    1    3    3    0    0  0.41140911445E+02  0.10223114515E+03  0.30568221449E+03  0.34818516049E+03  0.12509000000E+03 0.  0.
         25    1    4    4    0    0  0.14579117114E+02 -0.47991102303E+02  0.33452882519E+03  0.36065598503E+03  0.12509000000E+03 0.  0.
         25    1    4    4    0    0 -0.55720028559E+02 -0.54240042842E+02  0.26470593590E+03  0.30292481646E+03  0.12509000000E+03 0.  0.
<mgrwt>
<rscale>  2 0.45254351E+03</rscale>
<asrwt>0</asrwt>
<pdfrwt beam="1">  1       21 0.14093256E+00 0.45254351E+03</pdfrwt>
<pdfrwt beam="2">  1       21 0.78565438E-02 0.45254351E+03</pdfrwt>
<totfact> 0.39463799E+04</totfact>
</mgrwt>
</event>
<event>
 7    0  0.4685107E-002  0.4503748E+03  0.7546771E-02  0.1027610E+00
         21   -1    0    0  502  501  0.00000000000E+00  0.00000000000E+00  0.11409076730E+03  0.11409076730E+03  0.00000000000E+00 0. -1.
         21   -1    0    0  501  502 -0.00000000000E+00 -0.00000000000E+00 -0.44446514042E+03  0.44446514042E+03  0.00000000000E+00 0. -1.
      99926    2    1    2    0    0  0.00000000000E+00  0.14210854715E-13 -0.33037437312E+03  0.55855590772E+03  0.45037481683E+03 0.  0.
      99925    2    3    3    0    0 -0.62567212107E+02 -0.73516841701E+02 -0.14639257957E+03  0.31603541270E+03  0.26292244614E+03 0.  0.
         25    1    4    4    0    0 -0.33746509770E+02  0.43835918148E+01 -0.60627601207E+02  0.14311274201E+03  0.12509000000E+03 0.  0.
         25    1    3    3    0    0  0.62567212107E+02  0.73516841701E+02 -0.18398179355E+03  0.24252049502E+03  0.12509000000E+03 0.  0.
         25    1    4    4    0    0 -0.28820702337E+02 -0.77900433516E+02 -0.85764978360E+02  0.17292267069E+03  0.12509000000E+03 0.  0.
<mgrwt>
<rscale>  2 0.45037482E+03</rscale>
<asrwt>0</asrwt>
<pdfrwt beam="1">  1       21 0.16778054E-01 0.45037482E+03</pdfrwt>
<pdfrwt beam="2">  1       21 0.65362521E-01 0.45037482E+03</pdfrwt>
<totfact> 0.63599743E+04</totfact>
</mgrwt>
</event>
<event>
 7    0  0.4685107E-002  0.4544979E+03  0.7546771E-02  0.1026389E+00
         21   -1    0    0  502  501  0.00000000000E+00  0.00000000000E+00  0.11883943706E+03  0.11883943706E+03  0.00000000000E+00 0.  1.
         21   -1    0    0  501  502 -0.00000000000E+00 -0.00000000000E+00 -0.43455352622E+03  0.43455352622E+03  0.00000000000E+00 0.  1.
      99926    2    1    2    0    0  0.14210854715E-13 -0.17763568394E-14 -0.31571408916E+03  0.55339296327E+03  0.45449794907E+03 0.  0.
      99925    2    3    3    0    0 -0.11059919743E+03  0.14219891524E+02 -0.21882134919E+03  0.35982101555E+03  0.26297146723E+03 0.  0.
         25    1    4    4    0    0 -0.94064777855E+02  0.11552222970E+02 -0.97494891014E+02  0.18475496790E+03  0.12509000000E+03 0.  0.
         25    1    4    4    0    0 -0.16534419579E+02  0.26676685540E+01 -0.12132645818E+03  0.17506604765E+03  0.12509000000E+03 0.  0.
         25    1    3    3    0    0  0.11059919743E+03 -0.14219891524E+02 -0.96892739967E+02  0.19357194773E+03  0.12509000000E+03 0.  0.
<mgrwt>
<rscale>  2 0.45449795E+03</rscale>
<asrwt>0</asrwt>
<pdfrwt beam="1">  1       21 0.17476388E-01 0.45449795E+03</pdfrwt>
<pdfrwt beam="2">  1       21 0.63904931E-01 0.45449795E+03</pdfrwt>
<totfact> 0.61888301E+04</totfact>
</mgrwt>
</event>
<event>
 7    0  0.4685107E-002  0.4672616E+03  0.7546771E-02  0.1022696E+00
         21   -1    0    0  502  501  0.00000000000E+00  0.00000000000E+00  0.48759150589E+03  0.48759150589E+03  0.00000000000E+00 0.  1.
         21   -1    0    0  501  502 -0.00000000000E+00 -0.00000000000E+00 -0.11194482927E+03  0.11194482927E+03  0.00000000000E+00 0.  1.
      99926    2    1    2    0    0  0.00000000000E+00  0.00000000000E+00  0.37564667662E+03  0.59953633516E+03  0.46726158789E+03 0.  0.
      99925    2    3    3    0    0 -0.11161460463E+03  0.17519536380E+02  0.16827149982E+03  0.33229725461E+03  0.26332757859E+03 0.  0.
         25    1    4    4    0    0 -0.84985199383E+02 -0.19065291709E+02  0.75342489881E+02  0.17002931613E+03  0.12509000000E+03 0.  0.
         25    1    4    4    0    0 -0.26629405243E+02  0.36584828089E+02  0.92929009942E+02  0.16226793848E+03  0.12509000000E+03 0.  0.
         25    1    3    3    0    0  0.11161460463E+03 -0.17519536380E+02  0.20737517680E+03  0.26723908055E+03  0.12509000000E+03 0.  0.
<mgrwt>
<rscale>  2 0.46726159E+03</rscale>
<asrwt>0</asrwt>
<pdfrwt beam="1">  1       21 0.71704632E-01 0.46726159E+03</pdfrwt>
<pdfrwt beam="2">  1       21 0.16462475E-01 0.46726159E+03</pdfrwt>
<totfact> 0.53347104E+04</totfact>
</mgrwt>
</event>
<event>
 7    0  0.4685107E-002  0.4570761E+03  0.7546771E-02  0.1025633E+00
         21   -1    0    0  502  501  0.00000000000E+00  0.00000000000E+00  0.23220840886E+03  0.23220840886E+03  0.00000000000E+00 0. -1.
         21   -1    0    0  501  502 -0.00000000000E+00 -0.00000000000E+00 -0.22492568235E+03  0.22492568235E+03  0.00000000000E+00 0. -1.
      99926    2    1    2    0    0  0.00000000000E+00  0.00000000000E+00  0.72827265151E+01  0.45713409121E+03  0.45707607599E+03 0.  0.
      99925    2    3    3    0    0 -0.68835982798E+02  0.65163934152E+02 -0.60711816198E+02  0.28609170821E+03  0.26301674859E+03 0.  0.
         25    1    3    3    0    0  0.68835982798E+02 -0.65163934152E+02  0.67994542713E+02  0.17104238300E+03  0.12509000000E+03 0.  0.
         25    1    4    4    0    0 -0.61065847422E+02  0.34396931278E+01 -0.20727067574E+02  0.14077637813E+03  0.12509000000E+03 0.  0.
         25    1    4    4    0    0 -0.77701353766E+01  0.61724241024E+02 -0.39984748624E+02  0.14531533008E+03  0.12509000000E+03 0.  0.
<mgrwt>
<rscale>  2 0.45707608E+03</rscale>
<asrwt>0</asrwt>
<pdfrwt beam="1">  1       21 0.34148295E-01 0.45707608E+03</pdfrwt>
<pdfrwt beam="2">  1       21 0.33077306E-01 0.45707608E+03</pdfrwt>
<totfact> 0.67268512E+04</totfact>
</mgrwt>
</event>
<event>
 7    0  0.4685107E-002  0.4614331E+03  0.7546771E-02  0.1024366E+00
         21   -1    0    0  502  501  0.00000000000E+00  0.00000000000E+00  0.14221796366E+03  0.14221796366E+03  0.00000000000E+00 0. -1.
         21   -1    0    0  501  502 -0.00000000000E+00 -0.00000000000E+00 -0.37428549674E+03  0.37428549674E+03  0.00000000000E+00 0. -1.
      99926    2    1    2    0    0  0.00000000000E+00  0.00000000000E+00 -0.23206753308E+03  0.51650346040E+03  0.46143307716E+03 0.  0.
      99925    2    3    3    0    0  0.45113782828E+02  0.10650534560E+03 -0.17656705007E+03  0.33732072196E+03  0.26311728231E+03 0.  0.
         25    1    4    4    0    0  0.43043037003E+02  0.25049776757E+02 -0.11001425563E+03  0.17387017827E+03  0.12509000000E+03 0.  0.
         25    1    4    4    0    0  0.20707458249E+01  0.81455568844E+02 -0.66552794448E+02  0.16345054369E+03  0.12509000000E+03 0.  0.
         25    1    3    3    0    0 -0.45113782828E+02 -0.10650534560E+03 -0.55500483008E+02  0.17918273845E+03  0.12509000000E+03 0.  0.
<mgrwt>
<rscale>  2 0.46143308E+03</rscale>
<asrwt>0</asrwt>
<pdfrwt beam="1">  1       21 0.20914407E-01 0.46143308E+03</pdfrwt>
<pdfrwt beam="2">  1       21 0.55041984E-01 0.46143308E+03</pdfrwt>
<totfact> 0.60954419E+04</totfact>
</mgrwt>
</event>
<event>
 7    0  0.4685107E-002  0.4565409E+03  0.7546771E-02  0.1025789E+00
         21   -1    0    0  502  501  0.00000000000E+00  0.00000000000E+00  0.74152183221E+03  0.74152183221E+03  0.00000000000E+00 0.  1.
         21   -1    0    0  501  502 -0.00000000000E+00 -0.00000000000E+00 -0.70270891114E+02  0.70270891114E+02  0.00000000000E+00 0.  1.
      99926    2    1    2    0    0  0.00000000000E+00  0.00000000000E+00  0.67125094109E+03  0.81179272332E+03  0.45654090695E+03 0.  0.
      99925    2    3    3    0    0 -0.73346462108E+02 -0.84606265146E+02  0.37825269285E+03  0.47410439782E+03  0.26298660951E+03 0.  0.
         25    1    4    4    0    0 -0.13997380323E+01 -0.16245071233E+02  0.16546544667E+03  0.20806773836E+03  0.12509000000E+03 0.  0.
         25    1    4    4    0    0 -0.71946724076E+02 -0.68361193913E+02  0.21278724618E+03  0.26603665946E+03  0.12509000000E+03 0.  0.
         25    1    3    3    0    0  0.73346462108E+02  0.84606265146E+02  0.29299824824E+03  0.33768832550E+03  0.12509000000E+03 0.  0.
<mgrwt>
<rscale>  2 0.45654091E+03</rscale>
<asrwt>0</asrwt>
<pdfrwt beam="1">  1       21 0.10904732E+00 0.45654091E+03</pdfrwt>
<pdfrwt beam="2">  1       21 0.10333955E-01 0.45654091E+03</pdfrwt>
<totfact> 0.46633259E+04</totfact>
</mgrwt>
</event>
<event>
 7    0  0.4685107E-002  0.4490104E+03  0.7546771E-02  0.1028018E+00
         21   -1    0    0  502  501  0.00000000000E+00  0.00000000000E+00  0.16329678546E+03  0.16329678546E+03  0.00000000000E+00 0. -1.
         21   -1    0    0  501  502 -0.00000000000E+00 -0.00000000000E+00 -0.30865627584E+03  0.30865627584E+03  0.00000000000E+00 0. -1.
      99926    2    1    2    0    0  0.00000000000E+00 -0.71054273576E-14 -0.14535949038E+03  0.47195306130E+03  0.44901036806E+03 0.  0.
      99925    2    3    3    0    0  0.88431575220E+02 -0.60939362623E+02 -0.94791613294E+02  0.29950490182E+03  0.26302849057E+03 0.  0.
         25    1    3    3    0    0 -0.88431575220E+02  0.60939362623E+02 -0.50567877085E+02  0.17244815947E+03  0.12509000000E+03 0.  0.
         25    1    4    4    0    0  0.77524329712E+02 -0.54042457607E+02 -0.36861433292E+02  0.16104931632E+03  0.12509000000E+03 0.  0.
         25    1    4    4    0    0  0.10907245508E+02 -0.68969050166E+01 -0.57930180002E+02  0.13845558551E+03  0.12509000000E+03 0.  0.
<mgrwt>
<rscale>  2 0.44901037E+03</rscale>
<asrwt>0</asrwt>
<pdfrwt beam="1">  1       21 0.24014233E-01 0.44901037E+03</pdfrwt>
<pdfrwt beam="2">  1       21 0.45390629E-01 0.44901037E+03</pdfrwt>
<totfact> 0.70586738E+04</totfact>
</mgrwt>
</event>
<event>
 6    0  0.4685107E-002  0.4532734E+03  0.7546771E-02  0.1026750E+00
         21   -1    0    0  502  501  0.00000000000E+00  0.00000000000E+00  0.32790787785E+03  0.32790787785E+03  0.00000000000E+00 0. -1.
         21   -1    0    0  501  502 -0.00000000000E+00 -0.00000000000E+00 -0.15664217071E+03  0.15664217071E+03  0.00000000000E+00 0. -1.
      99926    2    1    2    0    0  0.00000000000E+00  0.00000000000E+00  0.17126570714E+03  0.48455004856E+03  0.45327343527E+03 0.  0.
         25    1    3    3    0    0  0.49903304732E+01  0.85849510255E+02  0.14486032864E+03  0.20982627272E+03  0.12509000000E+03 0.  0.
         25    1    3    3    0    0  0.17116470246E+02 -0.63379146328E+02  0.34656907658E+02  0.14545961327E+03  0.12509000000E+03 0.  0.
         25    1    3    3    0    0 -0.22106800719E+02 -0.22470363928E+02 -0.82515291566E+01  0.12926416258E+03  0.12509000000E+03 0.  0.
<mgrwt>
<rscale>  2 0.45327344E+03</rscale>
<asrwt>0</asrwt>
<pdfrwt beam="1">  1       21 0.48221747E-01 0.45327344E+03</pdfrwt>
<pdfrwt beam="2">  1       21 0.23035613E-01 0.45327344E+03</pdfrwt>
<totfact> 0.67287899E+04</totfact>
</mgrwt>
</event>
<event>
 7    0  0.4685107E-002  0.4380214E+03  0.7546771E-02  0.1031356E+00
         21   -1    0    0  502  501  0.00000000000E+00  0.00000000000E+00  0.93938647988E+03  0.93938647988E+03  0.00000000000E+00 0.  1.
         21   -1    0    0  501  502 -0.00000000000E+00 -0.00000000000E+00 -0.51060649185E+02  0.51060649185E+02  0.00000000000E+00 0.  1.
      99926    2    1    2    0    0  0.00000000000E+00 -0.14210854715E-13  0.88832583069E+03  0.99044712906E+03  0.43802138531E+03 0.  0.
      99925    2    3    3    0    0  0.22640537255E+02 -0.92953816037E+02  0.54119190374E+03  0.60926150868E+03  0.26297890304E+03 0.  0.
         25    1    4    4    0    0  0.30558057021E+02 -0.69834159191E+02  0.35069151735E+03  0.38005611833E+03  0.12509000000E+03 0.  0.
         25    1    3    3    0    0 -0.22640537255E+02  0.92953816037E+02  0.34713392696E+03  0.38118562038E+03  0.12509000000E+03 0.  0.
         25    1    4    4    0    0 -0.79175197666E+01 -0.23119656846E+02  0.19050038639E+03  0.22920539036E+03  0.12509000000E+03 0.  0.
<mgrwt>
<rscale>  2 0.43802139E+03</rscale>
<asrwt>0</asrwt>
<pdfrwt beam="1">  1       21 0.13814506E+00 0.43802139E+03</pdfrwt>
<pdfrwt beam="2">  1       21 0.75089196E-02 0.43802139E+03</pdfrwt>
<totfact> 0.45249887E+04</totfact>
</mgrwt>
</event>
<event>
 7    0  0.4685107E-002  0.4428180E+03  0.7546771E-02  0.1029886E+00
         21   -1    0    0  502  501  0.00000000000E+00  0.00000000000E+00  0.54392746055E+03  0.54392746055E+03  0.00000000000E+00 0.  1.
         21   -1    0    0  501  502 -0.00000000000E+00 -0.00000000000E+00 -0.90125870719E+02  0.90125870719E+02  0.00000000000E+00 0.  1.
      99926    2    1    2    0    0  0.00000000000E+00  0.00000000000E+00  0.45380158983E+03  0.63405333127E+03  0.44281795804E+03 0.  0.
      99925    2    3    3    0    0 -0.69637203964E+02 -0.41515461876E+02  0.37565283879E+03  0.46574525321E+03  0.26311729674E+03 0.  0.
         25    1    4    4    0    0 -0.37493616436E+02  0.11909033551E+02  0.22360124416E+03  0.25921539469E+03  0.12509000000E+03 0.  0.
         25    1    3    3    0    0  0.69637203964E+02  0.41515461876E+02  0.78148751038E+02  0.16830807806E+03  0.12509000000E+03 0.  0.
         25    1    4    4    0    0 -0.32143587529E+02 -0.53424495428E+02  0.15205159463E+03  0.20652985852E+03  0.12509000000E+03 0.  0.
<mgrwt>
<rscale>  2 0.44281796E+03</rscale>
<asrwt>0</asrwt>
<pdfrwt beam="1">  1       21 0.79989331E-01 0.44281796E+03</pdfrwt>
<pdfrwt beam="2">  1       21 0.13253805E-01 0.44281796E+03</pdfrwt>
<totfact> 0.62417780E+04</totfact>
</mgrwt>
</event>
<event>
 7    0  0.4685107E-002  0.4123161E+03  0.7546771E-02  0.1039597E+00
         21   -1    0    0  502  501  0.00000000000E+00  0.00000000000E+00  0.97975577265E+02  0.97975577265E+02  0.00000000000E+00 0. -1.
         21   -1    0    0  501  502 -0.00000000000E+00 -0.00000000000E+00 -0.43379323263E+03  0.43379323263E+03  0.00000000000E+00 0. -1.
      99926    2    1    2    0    0  0.00000000000E+00 -0.71054273576E-14 -0.33581765536E+03  0.53176880989E+03  0.41231610388E+03 0.  0.
      99925    2    3    3    0    0  0.36066383565E+02  0.54737964173E+02 -0.21972047352E+03  0.34894897378E+03  0.26304233703E+03 0.  0.
         25    1    4    4    0    0  0.21345784770E+02  0.93902633489E+00 -0.65910023195E+02  0.14299707534E+03  0.12509000000E+03 0.  0.
         25    1    3    3    0    0 -0.36066383565E+02 -0.54737964173E+02 -0.11609718184E+03  0.18281983611E+03  0.12509000000E+03 0.  0.
         25    1    4    4    0    0  0.14720598795E+02  0.53798937838E+02 -0.15381045033E+03  0.20595189844E+03  0.12509000000E+03 0.  0.
<mgrwt>
<rscale>  2 0.41231610E+03</rscale>
<asrwt>0</asrwt>
<pdfrwt beam="1">  1       21 0.14408173E-01 0.41231610E+03</pdfrwt>
<pdfrwt beam="2">  1       21 0.63793122E-01 0.41231610E+03</pdfrwt>
<totfact> 0.89793659E+04</totfact>
</mgrwt>
</event>
<event>
 7    0  0.4685107E-002  0.4646288E+03  0.7546771E-02  0.1023447E+00
         21   -1    0    0  502  501  0.00000000000E+00  0.00000000000E+00  0.11894580306E+04  0.11894580306E+04  0.00000000000E+00 0.  1.
         21   -1    0    0  501  502 -0.00000000000E+00 -0.00000000000E+00 -0.45373593455E+02  0.45373593455E+02  0.00000000000E+00 0.  1.
      99926    2    1    2    0    0  0.35527136788E-14  0.00000000000E+00  0.11440844372E+04  0.12348316241E+04  0.46462882008E+03 0.  0.
      99925    2    3    3    0    0  0.26940570363E+02 -0.53924399597E+02  0.99572029831E+03  0.10316246827E+04  0.26297706818E+03 0.  0.
         25    1    3    3    0    0 -0.26940570363E+02  0.53924399597E+02  0.14836413884E+03  0.20320694131E+03  0.12509000000E+03 0.  0.
         25    1    4    4    0    0 -0.59453553222E+01 -0.60681535825E+02  0.56253520112E+03  0.57949198151E+03  0.12509000000E+03 0.  0.
         25    1    4    4    0    0  0.32885925686E+02  0.67571362277E+01  0.43318509719E+03  0.45213270124E+03  0.12509000000E+03 0.  0.
<mgrwt>
<rscale>  2 0.46462882E+03</rscale>
<asrwt>0</asrwt>
<pdfrwt beam="1">  1       21 0.17492028E+00 0.46462882E+03</pdfrwt>
<pdfrwt beam="2">  1       21 0.66725880E-02 0.46462882E+03</pdfrwt>
<totfact> 0.28843884E+04</totfact>
</mgrwt>
</event>
<event>
 7    0  0.4685107E-002  0.4530250E+03  0.7546771E-02  0.1026824E+00
         21   -1    0    0  502  501  0.00000000000E+00  0.00000000000E+00  0.12442843040E+04  0.12442843040E+04  0.00000000000E+00 0.  1.
         21   -1    0    0  501  502 -0.00000000000E+00 -0.00000000000E+00 -0.41234879485E+02  0.41234879485E+02  0.00000000000E+00 0.  1.
      99926    2    1    2    0    0  0.14210854715E-13  0.35527136788E-14  0.12030494246E+04  0.12855191835E+04  0.45302500294E+03 0.  0.
      99925    2    3    3    0    0  0.10643834020E+03  0.26265929502E+02  0.70500651411E+03  0.76043512543E+03  0.26307484817E+03 0.  0.
         25    1    4    4    0    0  0.23907071460E+02 -0.15377029574E+02  0.35338740261E+03  0.37594968483E+03  0.12509000000E+03 0.  0.
         25    1    4    4    0    0  0.82531268738E+02  0.41642959076E+02  0.35161911150E+03  0.38448544060E+03  0.12509000000E+03 0.  0.
         25    1    3    3    0    0 -0.10643834020E+03 -0.26265929502E+02  0.49804291045E+03  0.52508405809E+03  0.12509000000E+03 0.  0.
<mgrwt>
<rscale>  2 0.45302500E+03</rscale>
<asrwt>0</asrwt>
<pdfrwt beam="1">  1       21 0.18298296E+00 0.45302500E+03</pdfrwt>
<pdfrwt beam="2">  1       21 0.60639537E-02 0.45302500E+03</pdfrwt>
<totfact> 0.29996390E+04</totfact>
</mgrwt>
</event>
<event>
 7    0  0.4685107E-002  0.4544677E+03  0.7546771E-02  0.1026398E+00
         21   -1    0    0  502  501  0.00000000000E+00  0.00000000000E+00  0.42471404775E+03  0.42471404775E+03  0.00000000000E+00 0. -1.
         21   -1    0    0  501  502 -0.00000000000E+00 -0.00000000000E+00 -0.12157643841E+03  0.12157643841E+03  0.00000000000E+00 0. -1.
      99926    2    1    2    0    0  0.00000000000E+00  0.14210854715E-13  0.30313760934E+03  0.54629048616E+03  0.45446769421E+03 0.  0.
      99925    2    3    3    0    0  0.32568287356E+02  0.50119095745E+02  0.76083364786E+02  0.28025711388E+03  0.26302614772E+03 0.  0.
         25    1    4    4    0    0  0.16793289270E+02  0.65903710885E+02  0.46622334826E+02  0.14982143998E+03  0.12509000000E+03 0.  0.
         25    1    4    4    0    0  0.15774998085E+02 -0.15784615140E+02  0.29461029960E+02  0.13043567390E+03  0.12509000000E+03 0.  0.
         25    1    3    3    0    0 -0.32568287356E+02 -0.50119095745E+02  0.22705424455E+03  0.26603337228E+03  0.12509000000E+03 0.  0.
<mgrwt>
<rscale>  2 0.45446769E+03</rscale>
<asrwt>0</asrwt>
<pdfrwt beam="1">  1       21 0.62457948E-01 0.45446769E+03</pdfrwt>
<pdfrwt beam="2">  1       21 0.17878888E-01 0.45446769E+03</pdfrwt>
<totfact> 0.62374611E+04</totfact>
</mgrwt>
</event>
<event>
 7    0  0.4685107E-002  0.4542714E+03  0.7546771E-02  0.1026456E+00
         21   -1    0    0  502  501  0.00000000000E+00  0.00000000000E+00  0.18749691629E+03  0.18749691629E+03  0.00000000000E+00 0.  1.
         21   -1    0    0  501  502 -0.00000000000E+00 -0.00000000000E+00 -0.27515453659E+03  0.27515453659E+03  0.00000000000E+00 0.  1.
      99926    2    1    2    0    0  0.00000000000E+00  0.00000000000E+00 -0.87657620301E+02  0.46265145288E+03  0.45427140396E+03 0.  0.
      99925    2    3    3    0    0  0.86500026005E+02  0.68128195251E+02 -0.31629694421E+02  0.28683808005E+03  0.26296756665E+03 0.  0.
         25    1    3    3    0    0 -0.86500026005E+02 -0.68128195251E+02 -0.56027925880E+02  0.17581337283E+03  0.12509000000E+03 0.  0.
         25    1    4    4    0    0  0.11250058506E+02  0.47209650137E+02  0.71130019011E+01  0.13436300748E+03  0.12509000000E+03 0.  0.
         25    1    4    4    0    0  0.75249967499E+02  0.20918545114E+02 -0.38742696322E+02  0.15247507257E+03  0.12509000000E+03 0.  0.
<mgrwt>
<rscale>  2 0.45427140E+03</rscale>
<asrwt>0</asrwt>
<pdfrwt beam="1">  1       21 0.27573076E-01 0.45427140E+03</pdfrwt>
<pdfrwt beam="2">  1       21 0.40463902E-01 0.45427140E+03</pdfrwt>
<totfact> 0.68380068E+04</totfact>
</mgrwt>
</event>
<event>
 7    0  0.4685107E-002  0.4477131E+03  0.7546771E-02  0.1028406E+00
         21   -1    0    0  502  501  0.00000000000E+00  0.00000000000E+00  0.22378681075E+03  0.22378681075E+03  0.00000000000E+00 0.  1.
         21   -1    0    0  501  502 -0.00000000000E+00 -0.00000000000E+00 -0.22392634830E+03  0.22392634830E+03  0.00000000000E+00 0.  1.
      99926    2    1    2    0    0  0.17763568394E-14  0.00000000000E+00 -0.13953755042E+00  0.44771315905E+03  0.44771313731E+03 0.  0.
      99925    2    3    3    0    0 -0.13801348699E+02 -0.88906474603E+02 -0.56462749463E+02  0.28365630686E+03  0.26301714752E+03 0.  0.
         25    1    3    3    0    0  0.13801348699E+02  0.88906474603E+02  0.56323211912E+02  0.16405685220E+03  0.12509000000E+03 0.  0.
         25    1    4    4    0    0  0.15773325180E+02 -0.16765975855E+02 -0.48230053329E+02  0.13602772467E+03  0.12509000000E+03 0.  0.
         25    1    4    4    0    0 -0.29574673879E+02 -0.72140498748E+02 -0.82326961339E+01  0.14762858219E+03  0.12509000000E+03 0.  0.
<mgrwt>
<rscale>  2 0.44771314E+03</rscale>
<asrwt>0</asrwt>
<pdfrwt beam="1">  1       21 0.32909825E-01 0.44771314E+03</pdfrwt>
<pdfrwt beam="2">  1       21 0.32930345E-01 0.44771314E+03</pdfrwt>
<totfact> 0.73250079E+04</totfact>
</mgrwt>
</event>
<event>
 7    0  0.4685107E-002  0.4571163E+03  0.7546771E-02  0.1025621E+00
         21   -1    0    0  502  501  0.00000000000E+00  0.00000000000E+00  0.29540896754E+03  0.29540896754E+03  0.00000000000E+00 0.  1.
         21   -1    0    0  501  502 -0.00000000000E+00 -0.00000000000E+00 -0.17683559391E+03  0.17683559391E+03  0.00000000000E+00 0.  1.
      99926    2    1    2    0    0  0.00000000000E+00 -0.14210854715E-13  0.11857337363E+03  0.47224456145E+03  0.45711626626E+03 0.  0.
      99925    2    3    3    0    0 -0.34984986886E+02 -0.96615055103E+02  0.20569531688E+02  0.28300746329E+03  0.26289104296E+03 0.  0.
         25    1    4    4    0    0 -0.10309665831E+02 -0.65663234408E+02 -0.25541533029E+02  0.14393688746E+03  0.12509000000E+03 0.  0.
         25    1    4    4    0    0 -0.24675321054E+02 -0.30951820695E+02  0.46111064717E+02  0.13907057583E+03  0.12509000000E+03 0.  0.
         25    1    3    3    0    0  0.34984986886E+02  0.96615055103E+02  0.98003841947E+02  0.18923709815E+03  0.12509000000E+03 0.  0.
<mgrwt>
<rscale>  2 0.45711627E+03</rscale>
<asrwt>0</asrwt>
<pdfrwt beam="1">  1       21 0.43442495E-01 0.45711627E+03</pdfrwt>
<pdfrwt beam="2">  1       21 0.26005234E-01 0.45711627E+03</pdfrwt>
<totfact> 0.66151533E+04</totfact>
</mgrwt>
</event>
<event>
 7    0  0.4685107E-002  0.4565987E+03  0.7546771E-02  0.1025772E+00
         21   -1    0    0  502  501  0.00000000000E+00  0.00000000000E+00  0.13552296936E+03  0.13552296936E+03  0.00000000000E+00 0. -1.
         21   -1    0    0  501  502 -0.00000000000E+00 -0.00000000000E+00 -0.38458871001E+03  0.38458871001E+03  0.00000000000E+00 0. -1.
      99926    2    1    2    0    0  0.00000000000E+00  0.00000000000E+00 -0.24906574065E+03  0.52011167937E+03  0.45659874710E+03 0.  0.
      99925    2    3    3    0    0 -0.28465038801E+02 -0.11068313582E+03 -0.14659767394E+03  0.32210100344E+03  0.26305353718E+03 0.  0.
         25    1    3    3    0    0  0.28465038801E+02  0.11068313582E+03 -0.10246806671E+03  0.19801067593E+03  0.12509000000E+03 0.  0.
         25    1    4    4    0    0 -0.49395355634E+01 -0.78928996336E+02 -0.11431882253E+03  0.18700397525E+03  0.12509000000E+03 0.  0.
         25    1    4    4    0    0 -0.23525503238E+02 -0.31754139481E+02 -0.32278851402E+02  0.13509702819E+03  0.12509000000E+03 0.  0.
<mgrwt>
<rscale>  2 0.45659875E+03</rscale>
<asrwt>0</asrwt>
<pdfrwt beam="1">  1       21 0.19929849E-01 0.45659875E+03</pdfrwt>
<pdfrwt beam="2">  1       21 0.56557162E-01 0.45659875E+03</pdfrwt>
<totfact> 0.63075773E+04</totfact>
</mgrwt>
</event>
<event>
 7    0  0.4685107E-002  0.4549353E+03  0.7546771E-02  0.1026260E+00
         21   -1    0    0  502  501  0.00000000000E+00  0.00000000000E+00  0.93046120675E+03  0.93046120675E+03  0.00000000000E+00 0.  1.
         21   -1    0    0  501  502 -0.00000000000E+00 -0.00000000000E+00 -0.55608472460E+02  0.55608472460E+02  0.00000000000E+00 0.  1.
      99926    2    1    2    0    0  0.00000000000E+00  0.00000000000E+00  0.87485273429E+03  0.98606967921E+03  0.45493527623E+03 0.  0.
      99925    2    3    3    0    0 -0.34033248662E+02  0.81606648488E+02  0.39808019444E+03  0.48529281279E+03  0.26310333681E+03 0.  0.
         25    1    4    4    0    0 -0.12784569931E+02  0.46548153820E+02  0.13059025736E+03  0.18716703575E+03  0.12509000000E+03 0.  0.
         25    1    4    4    0    0 -0.21248678731E+02  0.35058494667E+02  0.26748993708E+03  0.29812577704E+03  0.12509000000E+03 0.  0.
         25    1    3    3    0    0  0.34033248662E+02 -0.81606648488E+02  0.47677253985E+03  0.50077686643E+03  0.12509000000E+03 0.  0.
<mgrwt>
<rscale>  2 0.45493528E+03</rscale>
<asrwt>0</asrwt>
<pdfrwt beam="1">  1       21 0.13683252E+00 0.45493528E+03</pdfrwt>
<pdfrwt beam="2">  1       21 0.81777171E-02 0.45493528E+03</pdfrwt>
<totfact> 0.39732987E+04</totfact>
</mgrwt>
</event>
<event>
 7    0  0.4685107E-002  0.4663783E+03  0.7546771E-02  0.1022947E+00
         21   -1    0    0  502  501  0.00000000000E+00  0.00000000000E+00  0.72377726023E+02  0.72377726023E+02  0.00000000000E+00 0.  1.
         21   -1    0    0  501  502 -0.00000000000E+00 -0.00000000000E+00 -0.75129717081E+03  0.75129717081E+03  0.00000000000E+00 0.  1.
      99926    2    1    2    0    0  0.17763568394E-14 -0.14210854715E-13 -0.67891944479E+03  0.82367489683E+03  0.46637830477E+03 0.  0.
      99925    2    3    3    0    0  0.11791667444E+02 -0.82341400028E+02 -0.26175264385E+03  0.38028477799E+03  0.26302645538E+03 0.  0.
         25    1    4    4    0    0  0.23031407947E+02 -0.65570208623E+02 -0.98922756134E+02  0.17396297822E+03  0.12509000000E+03 0.  0.
         25    1    3    3    0    0 -0.11791667444E+02  0.82341400028E+02 -0.41716680094E+03  0.44339011884E+03  0.12509000000E+03 0.  0.
         25    1    4    4    0    0 -0.11239740502E+02 -0.16771191405E+02 -0.16282988772E+03  0.20632179977E+03  0.12509000000E+03 0.  0.
<mgrwt>
<rscale>  2 0.46637830E+03</rscale>
<asrwt>0</asrwt>
<pdfrwt beam="1">  1       21 0.10643784E-01 0.46637830E+03</pdfrwt>
<pdfrwt beam="2">  1       21 0.11048487E+00 0.46637830E+03</pdfrwt>
<totfact> 0.42699165E+04</totfact>
</mgrwt>
</event>
<event>
 7    0  0.4685107E-002  0.4585362E+03  0.7546771E-02  0.1025207E+00
         21   -1    0    0  502  501  0.00000000000E+00  0.00000000000E+00  0.54075468710E+03  0.54075468710E+03  0.00000000000E+00 0. -1.
         21   -1    0    0  501  502 -0.00000000000E+00 -0.00000000000E+00 -0.97204624381E+02  0.97204624381E+02  0.00000000000E+00 0. -1.
      99926    2    1    2    0    0  0.00000000000E+00  0.00000000000E+00  0.44355006272E+03  0.63795931148E+03  0.45853617629E+03 0.  0.
      99925    2    3    3    0    0 -0.32427204879E+02  0.57982828085E+02  0.41129745239E+03  0.49269654632E+03  0.26300334683E+03 0.  0.
         25    1    4    4    0    0 -0.21782674605E+02  0.57772969264E+01  0.25920243245E+03  0.28868888299E+03  0.12509000000E+03 0.  0.
         25    1    3    3    0    0  0.32427204879E+02 -0.57982828085E+02  0.32252610330E+02  0.14526276516E+03  0.12509000000E+03 0.  0.
         25    1    4    4    0    0 -0.10644530274E+02  0.52205531158E+02  0.15209501994E+03  0.20400766333E+03  0.12509000000E+03 0.  0.
<mgrwt>
<rscale>  2 0.45853618E+03</rscale>
<asrwt>0</asrwt>
<pdfrwt beam="1">  1       21 0.79522747E-01 0.45853618E+03</pdfrwt>
<pdfrwt beam="2">  1       21 0.14294798E-01 0.45853618E+03</pdfrwt>
<totfact> 0.54853554E+04</totfact>
</mgrwt>
</event>
<event>
 7    0  0.4685107E-002  0.4531240E+03  0.7546771E-02  0.1026795E+00
         21   -1    0    0  502  501  0.00000000000E+00  0.00000000000E+00  0.15749097658E+03  0.15749097658E+03  0.00000000000E+00 0. -1.
         21   -1    0    0  501  502 -0.00000000000E+00 -0.00000000000E+00 -0.32592556692E+03  0.32592556692E+03  0.00000000000E+00 0. -1.
      99926    2    1    2    0    0  0.35527136788E-14  0.14210854715E-13 -0.16843459033E+03  0.48341654350E+03  0.45312398227E+03 0.  0.
      99925    2    3    3    0    0 -0.14318535861E+02  0.10901951740E+03 -0.87366274388E+02  0.29818734604E+03  0.26304477146E+03 0.  0.
         25    1    3    3    0    0  0.14318535861E+02 -0.10901951740E+03 -0.81068315944E+02  0.18522919746E+03  0.12509000000E+03 0.  0.
         25    1    4    4    0    0  0.30871010180E+02  0.69078599271E+02 -0.47253266480E+02  0.15364000599E+03  0.12509000000E+03 0.  0.
         25    1    4    4    0    0 -0.45189546041E+02  0.39940918126E+02 -0.40113007908E+02  0.14454734005E+03  0.12509000000E+03 0.  0.
<mgrwt>
<rscale>  2 0.45312398E+03</rscale>
<asrwt>0</asrwt>
<pdfrwt beam="1">  1       21 0.23160438E-01 0.45312398E+03</pdfrwt>
<pdfrwt beam="2">  1       21 0.47930230E-01 0.45312398E+03</pdfrwt>
<totfact> 0.67451159E+04</totfact>
</mgrwt>
</event>
<event>
 7    0  0.4685107E-002  0.4591691E+03  0.7546771E-02  0.1025022E+00
         21   -1    0    0  502  501  0.00000000000E+00  0.00000000000E+00  0.84307757692E+03  0.84307757692E+03  0.00000000000E+00 0.  1.
         21   -1    0    0  501  502 -0.00000000000E+00 -0.00000000000E+00 -0.62519840589E+02  0.62519840589E+02  0.00000000000E+00 0.  1.
      99926    2    1    2    0    0  0.00000000000E+00  0.71054273576E-14  0.78055773633E+03  0.90559741750E+03  0.45916914405E+03 0.  0.
      99925    2    3    3    0    0  0.76173388309E+02 -0.34131996270E+02  0.65092181944E+03  0.70705181241E+03  0.26316472436E+03 0.  0.
         25    1    4    4    0    0  0.17215053444E+01  0.53313398288E+01  0.30167504006E+03  0.32662933834E+03  0.12509000000E+03 0.  0.
         25    1    4    4    0    0  0.74451882965E+02 -0.39463336099E+02  0.34924677938E+03  0.38042247407E+03  0.12509000000E+03 0.  0.
         25    1    3    3    0    0 -0.76173388309E+02  0.34131996270E+02  0.12963591688E+03  0.19854560509E+03  0.12509000000E+03 0.  0.
<mgrwt>
<rscale>  2 0.45916914E+03</rscale>
<asrwt>0</asrwt>
<pdfrwt beam="1">  1       21 0.12398199E+00 0.45916914E+03</pdfrwt>
<pdfrwt beam="2">  1       21 0.91940947E-02 0.45916914E+03</pdfrwt>
<totfact> 0.41617475E+04</totfact>
</mgrwt>
</event>
<event>
 7    0  0.4685107E-002  0.4553820E+03  0.7546771E-02  0.1026129E+00
         21   -1    0    0  502  501  0.00000000000E+00  0.00000000000E+00  0.16510395189E+03  0.16510395189E+03  0.00000000000E+00 0.  1.
         21   -1    0    0  501  502 -0.00000000000E+00 -0.00000000000E+00 -0.31400330094E+03  0.31400330094E+03  0.00000000000E+00 0.  1.
      99926    2    1    2    0    0  0.00000000000E+00  0.00000000000E+00 -0.14889934905E+03  0.47910725284E+03  0.45538197546E+03 0.  0.
      99925    2    3    3    0    0 -0.10627891184E+03  0.25203941538E+02 -0.12674899203E+03  0.31157041454E+03  0.26283144877E+03 0.  0.
         25    1    3    3    0    0  0.10627891184E+03 -0.25203941538E+02 -0.22150357024E+02  0.16753683830E+03  0.12509000000E+03 0.  0.
         25    1    4    4    0    0 -0.74615117679E+02 -0.38848519270E+00 -0.10173217885E+03  0.17766403975E+03  0.12509000000E+03 0.  0.
         25    1    4    4    0    0 -0.31663794159E+02  0.25592426731E+02 -0.25016813176E+02  0.13390637478E+03  0.12509000000E+03 0.  0.
<mgrwt>
<rscale>  2 0.45538198E+03</rscale>
<asrwt>0</asrwt>
<pdfrwt beam="1">  1       21 0.24279993E-01 0.45538198E+03</pdfrwt>
<pdfrwt beam="2">  1       21 0.46176955E-01 0.45538198E+03</pdfrwt>
<totfact> 0.66563103E+04</totfact>
</mgrwt>
</event>
<event>
 7    0  0.4685107E-002  0.4520808E+03  0.7546771E-02  0.1027103E+00
         21   -1    0    0  502  501  0.00000000000E+00  0.00000000000E+00  0.10669972986E+03  0.10669972986E+03  0.00000000000E+00 0. -1.
         21   -1    0    0  501  502 -0.00000000000E+00 -0.00000000000E+00 -0.47886031343E+03  0.47886031343E+03  0.00000000000E+00 0. -1.
      99926    2    1    2    0    0  0.00000000000E+00  0.00000000000E+00 -0.37216058357E+03  0.58556004329E+03  0.45208081615E+03 0.  0.
      99925    2    3    3    0    0  0.57234381097E+02  0.85575340171E+02 -0.28679798768E+03  0.40243933419E+03  0.26287909528E+03 0.  0.
         25    1    3    3    0    0 -0.57234381097E+02 -0.85575340171E+02 -0.85362595886E+02  0.18312070910E+03  0.12509000000E+03 0.  0.
         25    1    4    4    0    0  0.40657408510E+02  0.81743600223E+02 -0.13932369965E+03  0.20831140734E+03  0.12509000000E+03 0.  0.
         25    1    4    4    0    0  0.16576972587E+02  0.38317399482E+01 -0.14747428803E+03  0.19412792685E+03  0.12509000000E+03 0.  0.
<mgrwt>
<rscale>  2 0.45208082E+03</rscale>
<asrwt>0</asrwt>
<pdfrwt beam="1">  1       21 0.15691137E-01 0.45208082E+03</pdfrwt>
<pdfrwt beam="2">  1       21 0.70420634E-01 0.45208082E+03</pdfrwt>
<totfact> 0.60970737E+04</totfact>
</mgrwt>
</event>
<event>
 7    0  0.4685107E-002  0.4563559E+03  0.7546771E-02  0.1025843E+00
         21   -1    0    0  502  501  0.00000000000E+00  0.00000000000E+00  0.13375498534E+03  0.13375498534E+03  0.00000000000E+00 0. -1.
         21   -1    0    0  501  502 -0.00000000000E+00 -0.00000000000E+00 -0.38925782069E+03  0.38925782069E+03  0.00000000000E+00 0. -1.
      99926    2    1    2    0    0 -0.71054273576E-14  0.00000000000E+00 -0.25550283534E+03  0.52301280603E+03  0.45635588788E+03 0.  0.
      99925    2    3    3    0    0  0.62713686534E+02  0.91800553282E+02 -0.19154738919E+03  0.34385322562E+03  0.26302906759E+03 0.  0.
         25    1    4    4    0    0  0.17939942244E+02  0.12223524921E+02 -0.58968171048E+02  0.13998574708E+03  0.12509000000E+03 0.  0.
         25    1    3    3    0    0 -0.62713686534E+02 -0.91800553282E+02 -0.63955446150E+02  0.17915958041E+03  0.12509000000E+03 0.  0.
         25    1    4    4    0    0  0.44773744290E+02  0.79577028360E+02 -0.13257921815E+03  0.20386747854E+03  0.12509000000E+03 0.  0.
<mgrwt>
<rscale>  2 0.45635589E+03</rscale>
<asrwt>0</asrwt>
<pdfrwt beam="1">  1       21 0.19669851E-01 0.45635589E+03</pdfrwt>
<pdfrwt beam="2">  1       21 0.57243798E-01 0.45635589E+03</pdfrwt>
<totfact> 0.63001971E+04</totfact>
</mgrwt>
</event>
<event>
 7    0  0.4685107E-002  0.4511273E+03  0.7546771E-02  0.1027386E+00
         21   -1    0    0  502  501  0.00000000000E+00  0.00000000000E+00  0.17709001938E+02  0.17709001938E+02  0.00000000000E+00 0.  1.
         21   -1    0    0  501  502 -0.00000000000E+00 -0.00000000000E+00 -0.28730557425E+04  0.28730557425E+04  0.00000000000E+00 0.  1.
      99926    2    1    2    0    0  0.00000000000E+00 -0.88817841970E-15 -0.28553467405E+04  0.28907647444E+04  0.45112725349E+03 0.  0.
      99925    2    3    3    0    0  0.52642990439E+02 -0.58108269972E+01 -0.11881835788E+04  0.12180766187E+04  0.26291706257E+03 0.  0.
         25    1    4    4    0    0  0.14992622689E+02 -0.34398461355E+02 -0.48408996813E+03  0.50139668749E+03  0.12509000000E+03 0.  0.
         25    1    3    3    0    0 -0.52642990439E+02  0.58108269972E+01 -0.16671631617E+04  0.16726881257E+04  0.12509000000E+03 0.  0.
         25    1    4    4    0    0  0.37650367750E+02  0.28587634357E+02 -0.70409361071E+03  0.71667993120E+03  0.12509000000E+03 0.  0.
<mgrwt>
<rscale>  2 0.45112725E+03</rscale>
<asrwt>0</asrwt>
<pdfrwt beam="1">  1       21 0.26042658E-02 0.45112725E+03</pdfrwt>
<pdfrwt beam="2">  1       21 0.42250806E+00 0.45112725E+03</pdfrwt>
<totfact> 0.40225761E+03</totfact>
</mgrwt>
</event>
<event>
 7    0  0.4685107E-002  0.4532498E+03  0.7546771E-02  0.1026757E+00
         21   -1    0    0  502  501  0.00000000000E+00  0.00000000000E+00  0.13598301614E+04  0.13598301614E+04  0.00000000000E+00 0. -1.
         21   -1    0    0  501  502 -0.00000000000E+00 -0.00000000000E+00 -0.37768581242E+02  0.37768581242E+02  0.00000000000E+00 0. -1.
      99926    2    1    2    0    0  0.00000000000E+00  0.00000000000E+00  0.13220615801E+04  0.13975987426E+04  0.45324984688E+03 0.  0.
      99925    2    3    3    0    0  0.25642388954E+02  0.67568171179E+02  0.10956124138E+04  0.11289917380E+04  0.26274092459E+03 0.  0.
         25    1    4    4    0    0  0.68341786519E+01  0.40964573207E+02  0.71448056055E+03  0.72653615310E+03  0.12509000000E+03 0.  0.
         25    1    3    3    0    0 -0.25642388954E+02 -0.67568171179E+02  0.22644916635E+03  0.26860700457E+03  0.12509000000E+03 0.  0.
         25    1    4    4    0    0  0.18808210302E+02  0.26603597973E+02  0.38113185323E+03  0.40245558494E+03  0.12509000000E+03 0.  0.
<mgrwt>
<rscale>  2 0.45324985E+03</rscale>
<asrwt>0</asrwt>
<pdfrwt beam="1">  1       21 0.19997499E+00 0.45324985E+03</pdfrwt>
<pdfrwt beam="2">  1       21 0.55542040E-02 0.45324985E+03</pdfrwt>
<totfact> 0.26758153E+04</totfact>
</mgrwt>
</event>
<event>
 7    0  0.4685107E-002  0.4636719E+03  0.7546771E-02  0.1023722E+00
         21   -1    0    0  502  501  0.00000000000E+00  0.00000000000E+00  0.10707943586E+04  0.10707943586E+04  0.00000000000E+00 0.  1.
         21   -1    0    0  501  502 -0.00000000000E+00 -0.00000000000E+00 -0.50194417835E+02  0.50194417835E+02  0.00000000000E+00 0.  1.
      99926    2    1    2    0    0  0.00000000000E+00  0.00000000000E+00  0.10205999407E+04  0.11209887764E+04  0.46367186436E+03 0.  0.
      99925    2    3    3    0    0 -0.11130281847E+03 -0.47290731540E+02  0.62644116445E+03  0.69013685322E+03  0.26312661015E+03 0.  0.
         25    1    3    3    0    0  0.11130281847E+03  0.47290731540E+02  0.39415877630E+03  0.43085192320E+03  0.12509000000E+03 0.  0.
         25    1    4    4    0    0 -0.34809605722E+02 -0.18025451098E+02  0.37900802693E+03  0.40103767668E+03  0.12509000000E+03 0.  0.
         25    1    4    4    0    0 -0.76493212746E+02 -0.29265280441E+02  0.24743313752E+03  0.28909917655E+03  0.12509000000E+03 0.  0.
<mgrwt>
<rscale>  2 0.46367186E+03</rscale>
<asrwt>0</asrwt>
<pdfrwt beam="1">  1       21 0.15746974E+00 0.46367186E+03</pdfrwt>
<pdfrwt beam="2">  1       21 0.73815327E-02 0.46367186E+03</pdfrwt>
<totfact> 0.32511615E+04</totfact>
</mgrwt>
</event>
<event>
 7    0  0.4685107E-002  0.4498091E+03  0.7546771E-02  0.1027779E+00
         21   -1    0    0  502  501  0.00000000000E+00  0.00000000000E+00  0.63383241192E+02  0.63383241192E+02  0.00000000000E+00 0.  1.
         21   -1    0    0  501  502 -0.00000000000E+00 -0.00000000000E+00 -0.79803505017E+03  0.79803505017E+03  0.00000000000E+00 0.  1.
      99926    2    1    2    0    0  0.00000000000E+00  0.00000000000E+00 -0.73465180898E+03  0.86141829136E+03  0.44980906200E+03 0.  0.
      99925    2    3    3    0    0  0.42473599597E+02 -0.32250190693E+02 -0.64488861907E+03  0.69847959177E+03  0.26296069602E+03 0.  0.
         25    1    3    3    0    0 -0.42473599597E+02  0.32250190693E+02 -0.89763189911E+02  0.16293869959E+03  0.12509000000E+03 0.  0.
         25    1    4    4    0    0  0.12572293274E+02 -0.29574116948E+02 -0.41986722955E+03  0.43928201591E+03  0.12509000000E+03 0.  0.
         25    1    4    4    0    0  0.29901306323E+02 -0.26760737453E+01 -0.22502138951E+03  0.25919757585E+03  0.12509000000E+03 0.  0.
<mgrwt>
<rscale>  2 0.44980906E+03</rscale>
<asrwt>0</asrwt>
<pdfrwt beam="1">  1       21 0.93210654E-02 0.44980906E+03</pdfrwt>
<pdfrwt beam="2">  1       21 0.11735809E+00 0.44980906E+03</pdfrwt>
<totfact> 0.46809692E+04</totfact>
</mgrwt>
</event>
<event>
 7    0  0.4685107E-002  0.4499483E+03  0.7546771E-02  0.1027737E+00
         21   -1    0    0  502  501  0.00000000000E+00  0.00000000000E+00  0.35530743324E+03  0.35530743324E+03  0.00000000000E+00 0. -1.
         21   -1    0    0  501  502 -0.00000000000E+00 -0.00000000000E+00 -0.14244949241E+03  0.14244949241E+03  0.00000000000E+00 0. -1.
      99926    2    1    2    0    0  0.00000000000E+00  0.00000000000E+00  0.21285794084E+03  0.49775692565E+03  0.44994827931E+03 0.  0.
      99925    2    3    3    0    0 -0.41994474552E+02  0.86532483981E+02  0.79436772950E+02  0.29111684527E+03  0.26303499773E+03 0.  0.
         25    1    3    3    0    0  0.41994474552E+02 -0.86532483981E+02  0.13342116789E+03  0.20664008037E+03  0.12509000000E+03 0.  0.
         25    1    4    4    0    0  0.20082466012E+02  0.43174835329E+02  0.38263966085E+02  0.13920851643E+03  0.12509000000E+03 0.  0.
         25    1    4    4    0    0 -0.62076940564E+02  0.43357648651E+02  0.41172806865E+02  0.15190832884E+03  0.12509000000E+03 0.  0.
<mgrwt>
<rscale>  2 0.44994828E+03</rscale>
<asrwt>0</asrwt>
<pdfrwt beam="1">  1       21 0.52251093E-01 0.44994828E+03</pdfrwt>
<pdfrwt beam="2">  1       21 0.20948455E-01 0.44994828E+03</pdfrwt>
<totfact> 0.68119435E+04</totfact>
</mgrwt>
</event>
<event>
 7    0  0.4685107E-002  0.4442336E+03  0.7546771E-02  0.1029456E+00
         21   -1    0    0  502  501  0.00000000000E+00  0.00000000000E+00  0.11674118151E+03  0.11674118151E+03  0.00000000000E+00 0.  1.
         21   -1    0    0  501  502 -0.00000000000E+00 -0.00000000000E+00 -0.42260904412E+03  0.42260904412E+03  0.00000000000E+00 0.  1.
      99926    2    1    2    0    0 -0.14210854715E-13  0.00000000000E+00 -0.30586786261E+03  0.53935022563E+03  0.44423362830E+03 0.  0.
      99925    2    3    3    0    0  0.83583206983E+02 -0.36664157561E+02 -0.13726588009E+03  0.31042982560E+03  0.26304817401E+03 0.  0.
         25    1    4    4    0    0  0.57246747907E+02 -0.61471044726E+01 -0.30350571652E+02  0.14100936968E+03  0.12509000000E+03 0.  0.
         25    1    3    3    0    0 -0.83583206983E+02  0.36664157561E+02 -0.16860198252E+03  0.22892040003E+03  0.12509000000E+03 0.  0.
         25    1    4    4    0    0  0.26336459077E+02 -0.30517053089E+02 -0.10691530844E+03  0.16942045592E+03  0.12509000000E+03 0.  0.
<mgrwt>
<rscale>  2 0.44423363E+03</rscale>
<asrwt>0</asrwt>
<pdfrwt beam="1">  1       21 0.17167820E-01 0.44423363E+03</pdfrwt>
<pdfrwt beam="2">  1       21 0.62148390E-01 0.44423363E+03</pdfrwt>
<totfact> 0.68203931E+04</totfact>
</mgrwt>
</event>
<event>
 7    0  0.4685107E-002  0.4549051E+03  0.7546771E-02  0.1026269E+00
         21   -1    0    0  502  501  0.00000000000E+00  0.00000000000E+00  0.10253649617E+04  0.10253649617E+04  0.00000000000E+00 0. -1.
         21   -1    0    0  501  502 -0.00000000000E+00 -0.00000000000E+00 -0.50454868126E+02  0.50454868126E+02  0.00000000000E+00 0. -1.
      99926    2    1    2    0    0  0.00000000000E+00  0.00000000000E+00  0.97491009357E+03  0.10758198298E+04  0.45490506228E+03 0.  0.
      99925    2    3    3    0    0  0.82521957600E+02  0.50062661197E+02  0.47325629455E+03  0.54987288791E+03  0.26281653106E+03 0.  0.
         25    1    4    4    0    0  0.19532558313E+02  0.56994069996E+02  0.21329932335E+03  0.25450727748E+03  0.12509000000E+03 0.  0.
         25    1    3    3    0    0 -0.82521957600E+02 -0.50062661197E+02  0.50165379902E+03  0.52594694191E+03  0.12509000000E+03 0.  0.
         25    1    4    4    0    0  0.62989399287E+02 -0.69314087985E+01  0.25995697120E+03  0.29536561044E+03  0.12509000000E+03 0.  0.
<mgrwt>
<rscale>  2 0.45490506E+03</rscale>
<asrwt>0</asrwt>
<pdfrwt beam="1">  1       21 0.15078895E+00 0.45490506E+03</pdfrwt>
<pdfrwt beam="2">  1       21 0.74198342E-02 0.45490506E+03</pdfrwt>
<totfact> 0.36370956E+04</totfact>
</mgrwt>
</event>
<event>
 7    0  0.4685107E-002  0.4389986E+03  0.7546771E-02  0.1031054E+00
         21   -1    0    0  502  501  0.00000000000E+00  0.00000000000E+00  0.50534347070E+02  0.50534347070E+02  0.00000000000E+00 0. -1.
         21   -1    0    0  501  502 -0.00000000000E+00 -0.00000000000E+00 -0.95340987544E+03  0.95340987544E+03  0.00000000000E+00 0. -1.
      99926    2    1    2    0    0  0.00000000000E+00  0.00000000000E+00 -0.90287552837E+03  0.10039442225E+04  0.43899861296E+03 0.  0.
      99925    2    3    3    0    0 -0.26412083325E+02  0.97096157079E+01 -0.36362146446E+03  0.44965699703E+03  0.26301895518E+03 0.  0.
         25    1    4    4    0    0 -0.17627366005E+02 -0.24445565315E+01 -0.24949979279E+03  0.27966829386E+03  0.12509000000E+03 0.  0.
         25    1    4    4    0    0 -0.87847173199E+01  0.12154172239E+02 -0.11412167167E+03  0.16998870317E+03  0.12509000000E+03 0.  0.
         25    1    3    3    0    0  0.26412083325E+02 -0.97096157079E+01 -0.53925406391E+03  0.55428722547E+03  0.12509000000E+03 0.  0.
<mgrwt>
<rscale>  2 0.43899861E+03</rscale>
<asrwt>0</asrwt>
<pdfrwt beam="1">  1       21 0.74315215E-02 0.43899861E+03</pdfrwt>
<pdfrwt beam="2">  1       21 0.14020734E+00 0.43899861E+03</pdfrwt>
<totfact> 0.44295341E+04</totfact>
</mgrwt>
</event>
<event>
 7    0  0.4685107E-002  0.4547493E+03  0.7546771E-02  0.1026315E+00
         21   -1    0    0  502  501  0.00000000000E+00  0.00000000000E+00  0.12152915611E+03  0.12152915611E+03  0.00000000000E+00 0.  1.
         21   -1    0    0  501  502 -0.00000000000E+00 -0.00000000000E+00 -0.42540597366E+03  0.42540597366E+03  0.00000000000E+00 0.  1.
      99926    2    1    2    0    0  0.00000000000E+00  0.00000000000E+00 -0.30387681755E+03  0.54693512977E+03  0.45474928909E+03 0.  0.
      99925    2    3    3    0    0 -0.70991262682E+02  0.53255651614E+02 -0.10757150809E+03  0.29781827680E+03  0.26315047566E+03 0.  0.
         25    1    3    3    0    0  0.70991262682E+02 -0.53255651614E+02 -0.19630530946E+03  0.24911685296E+03  0.12509000000E+03 0.  0.
         25    1    4    4    0    0 -0.54539309343E+02 -0.91935043377E+01 -0.58121169496E+02  0.14860900117E+03  0.12509000000E+03 0.  0.
         25    1    4    4    0    0 -0.16451953340E+02  0.62449155952E+02 -0.49450338594E+02  0.14920927563E+03  0.12509000000E+03 0.  0.
<mgrwt>
<rscale>  2 0.45474929E+03</rscale>
<asrwt>0</asrwt>
<pdfrwt beam="1">  1       21 0.17871935E-01 0.45474929E+03</pdfrwt>
<pdfrwt beam="2">  1       21 0.62559700E-01 0.45474929E+03</pdfrwt>
<totfact> 0.62192781E+04</totfact>
</mgrwt>
</event>
<event>
 7    0  0.4685107E-002  0.4546933E+03  0.7546771E-02  0.1026332E+00
         21   -1    0    0  502  501  0.00000000000E+00  0.00000000000E+00  0.34768340799E+03  0.34768340799E+03  0.00000000000E+00 0. -1.
         21   -1    0    0  501  502 -0.00000000000E+00 -0.00000000000E+00 -0.14865969473E+03  0.14865969473E+03  0.00000000000E+00 0. -1.
      99926    2    1    2    0    0  0.00000000000E+00  0.00000000000E+00  0.19902371326E+03  0.49634310272E+03  0.45469334411E+03 0.  0.
      99925    2    3    3    0    0  0.35540599766E+02  0.70354590336E+02  0.21286998681E+03  0.34784350674E+03  0.26356891183E+03 0.  0.
         25    1    4    4    0    0 -0.18771668507E+02  0.54778982214E+02  0.10612688230E+03  0.17396417930E+03  0.12509000000E+03 0.  0.
         25    1    3    3    0    0 -0.35540599766E+02 -0.70354590336E+02 -0.13846273552E+02  0.14849959597E+03  0.12509000000E+03 0.  0.
         25    1    4    4    0    0  0.54312268273E+02  0.15575608122E+02  0.10674310451E+03  0.17387932745E+03  0.12509000000E+03 0.  0.
<mgrwt>
<rscale>  2 0.45469334E+03</rscale>
<asrwt>0</asrwt>
<pdfrwt beam="1">  1       21 0.51129913E-01 0.45469334E+03</pdfrwt>
<pdfrwt beam="2">  1       21 0.21861720E-01 0.45469334E+03</pdfrwt>
<totfact> 0.65688100E+04</totfact>
</mgrwt>
</event>
<event>
 7    0  0.4685107E-002  0.4505557E+03  0.7546771E-02  0.1027556E+00
         21   -1    0    0  502  501  0.00000000000E+00  0.00000000000E+00  0.40210246001E+03  0.40210246001E+03  0.00000000000E+00 0.  1.
         21   -1    0    0  501  502 -0.00000000000E+00 -0.00000000000E+00 -0.12621190642E+03  0.12621190642E+03  0.00000000000E+00 0.  1.
      99926    2    1    2    0    0  0.00000000000E+00  0.00000000000E+00  0.27589055359E+03  0.52831436643E+03  0.45055573708E+03 0.  0.
      99925    2    3    3    0    0  0.69723887675E+02  0.53649770394E+02  0.98844269592E+02  0.29436434366E+03  0.26294573358E+03 0.  0.
         25    1    4    4    0    0  0.64780614257E+02  0.34647271872E+02  0.81968050123E+02  0.16662301994E+03  0.12509000000E+03 0.  0.
         25    1    3    3    0    0 -0.69723887675E+02 -0.53649770394E+02  0.17704628400E+03  0.23395002277E+03  0.12509000000E+03 0.  0.
         25    1    4    4    0    0  0.49432734184E+01  0.19002498523E+02  0.16876219470E+02  0.12774132372E+03  0.12509000000E+03 0.  0.
<mgrwt>
<rscale>  2 0.45055574E+03</rscale>
<asrwt>0</asrwt>
<pdfrwt beam="1">  1       21 0.59132715E-01 0.45055574E+03</pdfrwt>
<pdfrwt beam="2">  1       21 0.18560575E-01 0.45055574E+03</pdfrwt>
<totfact> 0.65600309E+04</totfact>
</mgrwt>
</event>
<event>
 7    0  0.4685107E-002  0.4566076E+03  0.7546771E-02  0.1025770E+00
         21   -1    0    0  502  501  0.00000000000E+00  0.00000000000E+00  0.93512541345E+03  0.93512541345E+03  0.00000000000E+00 0.  1.
         21   -1    0    0  501  502 -0.00000000000E+00 -0.00000000000E+00 -0.55738657810E+02  0.55738657810E+02  0.00000000000E+00 0.  1.
      99926    2    1    2    0    0  0.44408920985E-15  0.00000000000E+00  0.87938675564E+03  0.99086407126E+03  0.45660764527E+03 0.  0.
      99925    2    3    3    0    0 -0.32967140041E+01 -0.96074747370E+02  0.68827188522E+03  0.74304634147E+03  0.26297994633E+03 0.  0.
         25    1    3    3    0    0  0.32967140041E+01  0.96074747370E+02  0.19111487042E+03  0.24781772980E+03  0.12509000000E+03 0.  0.
         25    1    4    4    0    0 -0.13014547182E+02 -0.88284961373E+02  0.35359143514E+03  0.38553602160E+03  0.12509000000E+03 0.  0.
         25    1    4    4    0    0  0.97178331778E+01 -0.77897859975E+01  0.33468045008E+03  0.35751031987E+03  0.12509000000E+03 0.  0.
<mgrwt>
<rscale>  2 0.45660765E+03</rscale>
<asrwt>0</asrwt>
<pdfrwt beam="1">  1       21 0.13751843E+00 0.45660765E+03</pdfrwt>
<pdfrwt beam="2">  1       21 0.81968620E-02 0.45660765E+03</pdfrwt>
<totfact> 0.39031559E+04</totfact>
</mgrwt>
</event>
<event>
 7    0  0.4685107E-002  0.4560803E+03  0.7546771E-02  0.1025924E+00
         21   -1    0    0  502  501  0.00000000000E+00  0.00000000000E+00  0.66583292450E+02  0.66583292450E+02  0.00000000000E+00 0.  1.
         21   -1    0    0  501  502 -0.00000000000E+00 -0.00000000000E+00 -0.78101142185E+03  0.78101142185E+03  0.00000000000E+00 0.  1.
      99926    2    1    2    0    0  0.00000000000E+00  0.26645352591E-14 -0.71442812940E+03  0.84759471430E+03  0.45608030831E+03 0.  0.
      99925    2    3    3    0    0 -0.83862592633E+02  0.37840457737E+01 -0.30512009970E+03  0.41144356536E+03  0.26294539127E+03 0.  0.
         25    1    3    3    0    0  0.83862592633E+02 -0.37840457737E+01 -0.40930802970E+03  0.43615114894E+03  0.12509000000E+03 0.  0.
         25    1    4    4    0    0 -0.61415366261E+02 -0.16218186562E+02 -0.11259321028E+03  0.17988778694E+03  0.12509000000E+03 0.  0.
         25    1    4    4    0    0 -0.22447226372E+02  0.20002232335E+02 -0.19252688942E+03  0.23155577842E+03  0.12509000000E+03 0.  0.
<mgrwt>
<rscale>  2 0.45608031E+03</rscale>
<asrwt>0</asrwt>
<pdfrwt beam="1">  1       21 0.97916615E-02 0.45608031E+03</pdfrwt>
<pdfrwt beam="2">  1       21 0.11485461E+00 0.45608031E+03</pdfrwt>
<totfact> 0.45163202E+04</totfact>
</mgrwt>
</event>
<event>
 7    0  0.4685107E-002  0.4527762E+03  0.7546771E-02  0.1026897E+00
         21   -1    0    0  502  501  0.00000000000E+00  0.00000000000E+00  0.69247044419E+02  0.69247044419E+02  0.00000000000E+00 0. -1.
         21   -1    0    0  501  502 -0.00000000000E+00 -0.00000000000E+00 -0.74012646260E+03  0.74012646260E+03  0.00000000000E+00 0. -1.
      99926    2    1    2    0    0  0.00000000000E+00  0.00000000000E+00 -0.67087941818E+03  0.80937350702E+03  0.45277619209E+03 0.  0.
      99925    2    3    3    0    0  0.49315378781E+02  0.99304202723E+02 -0.40894577403E+03  0.49864843030E+03  0.26290735951E+03 0.  0.
         25    1    4    4    0    0  0.33801515113E+02  0.54330177652E+02 -0.27759405812E+03  0.31112743342E+03  0.12509000000E+03 0.  0.
         25    1    3    3    0    0 -0.49315378781E+02 -0.99304202723E+02 -0.26193364415E+03  0.31072507672E+03  0.12509000000E+03 0.  0.
         25    1    4    4    0    0  0.15513863668E+02  0.44974025071E+02 -0.13135171591E+03  0.18752099688E+03  0.12509000000E+03 0.  0.
<mgrwt>
<rscale>  2 0.45277619E+03</rscale>
<asrwt>0</asrwt>
<pdfrwt beam="1">  1       21 0.10183389E-01 0.45277619E+03</pdfrwt>
<pdfrwt beam="2">  1       21 0.10884213E+00 0.45277619E+03</pdfrwt>
<totfact> 0.48149529E+04</totfact>
</mgrwt>
</event>
<event>
 7    0  0.4685107E-002  0.4575247E+03  0.7546771E-02  0.1025502E+00
         21   -1    0    0  502  501  0.00000000000E+00  0.00000000000E+00  0.77658926130E+03  0.77658926130E+03  0.00000000000E+00 0. -1.
         21   -1    0    0  501  502 -0.00000000000E+00 -0.00000000000E+00 -0.67387245591E+02  0.67387245591E+02  0.00000000000E+00 0. -1.
      99926    2    1    2    0    0  0.00000000000E+00  0.00000000000E+00  0.70920201571E+03  0.84397650689E+03  0.45752469343E+03 0.  0.
      99925    2    3    3    0    0  0.69172809547E+02  0.80009115306E+02  0.35934255550E+03  0.45766641628E+03  0.26295463541E+03 0.  0.
         25    1    4    4    0    0  0.55609348550E+02  0.44833579997E+02  0.13160403332E+03  0.19511427223E+03  0.12509000000E+03 0.  0.
         25    1    3    3    0    0 -0.69172809547E+02 -0.80009115306E+02  0.34985946021E+03  0.38631009061E+03  0.12509000000E+03 0.  0.
         25    1    4    4    0    0  0.13563460997E+02  0.35175535310E+02  0.22773852219E+03  0.26255214405E+03  0.12509000000E+03 0.  0.
<mgrwt>
<rscale>  2 0.45752469E+03</rscale>
<asrwt>0</asrwt>
<pdfrwt beam="1">  1       21 0.11420430E+00 0.45752469E+03</pdfrwt>
<pdfrwt beam="2">  1       21 0.99098895E-02 0.45752469E+03</pdfrwt>
<totfact> 0.44815785E+04</totfact>
</mgrwt>
</event>
<event>
 7    0  0.4685107E-002  0.4675101E+03  0.7546771E-02  0.1022625E+00
         21   -1    0    0  502  501  0.00000000000E+00  0.00000000000E+00  0.14623592518E+04  0.14623592518E+04  0.00000000000E+00 0.  1.
         21   -1    0    0  501  502 -0.00000000000E+00 -0.00000000000E+00 -0.37365254975E+02  0.37365254975E+02  0.00000000000E+00 0.  1.
      99926    2    1    2    0    0  0.17763568394E-14 -0.14210854715E-13  0.14249939969E+04  0.14997245068E+04  0.46751011244E+03 0.  0.
      99925    2    3    3    0    0 -0.10108963198E+02 -0.12196166221E+03  0.96124489816E+03  0.10040556932E+04  0.26298144902E+03 0.  0.
         25    1    4    4    0    0  0.11101983518E+02 -0.10131377442E+03  0.55167977667E+03  0.57479197890E+03  0.12509000000E+03 0.  0.
         25    1    3    3    0    0  0.10108963198E+02  0.12196166221E+03  0.46374909870E+03  0.49566881365E+03  0.12509000000E+03 0.  0.
         25    1    4    4    0    0 -0.21210946715E+02 -0.20647887786E+02  0.40956512149E+03  0.42926371425E+03  0.12509000000E+03 0.  0.
<mgrwt>
<rscale>  2 0.46751011E+03</rscale>
<asrwt>0</asrwt>
<pdfrwt beam="1">  1       21 0.21505279E+00 0.46751011E+03</pdfrwt>
<pdfrwt beam="2">  1       21 0.54948914E-02 0.46751011E+03</pdfrwt>
<totfact> 0.21608694E+04</totfact>
</mgrwt>
</event>
<event>
 7    0  0.4685107E-002  0.4665374E+03  0.7546771E-02  0.1022902E+00
         21   -1    0    0  502  501  0.00000000000E+00  0.00000000000E+00  0.33435315301E+03  0.33435315301E+03  0.00000000000E+00 0. -1.
         21   -1    0    0  501  502 -0.00000000000E+00 -0.00000000000E+00 -0.16274491531E+03  0.16274491531E+03  0.00000000000E+00 0. -1.
      99926    2    1    2    0    0  0.00000000000E+00  0.00000000000E+00  0.17160823771E+03  0.49709806832E+03  0.46653735358E+03 0.  0.
      99925    2    3    3    0    0 -0.19845145683E+02  0.12010083125E+03  0.13032233779E+03  0.31773789129E+03  0.26297417432E+03 0.  0.
         25    1    4    4    0    0 -0.76533439307E+01  0.35370290597E+02  0.23552555987E+02  0.13233239257E+03  0.12509000000E+03 0.  0.
         25    1    3    3    0    0  0.19845145683E+02 -0.12010083125E+03  0.41285899911E+02  0.17936017703E+03  0.12509000000E+03 0.  0.
         25    1    4    4    0    0 -0.12191801753E+02  0.84730540650E+02  0.10676978181E+03  0.18540549872E+03  0.12509000000E+03 0.  0.
<mgrwt>
<rscale>  2 0.46653735E+03</rscale>
<asrwt>0</asrwt>
<pdfrwt beam="1">  1       21 0.49169581E-01 0.46653735E+03</pdfrwt>
<pdfrwt beam="2">  1       21 0.23933076E-01 0.46653735E+03</pdfrwt>
<totfact> 0.59806721E+04</totfact>
</mgrwt>
</event>
<event>
 7    0  0.4685107E-002  0.4535240E+03  0.7546771E-02  0.1026676E+00
         21   -1    0    0  502  501  0.00000000000E+00  0.00000000000E+00  0.99527590487E+03  0.99527590487E+03  0.00000000000E+00 0.  1.
         21   -1    0    0  501  502 -0.00000000000E+00 -0.00000000000E+00 -0.51665072483E+02  0.51665072483E+02  0.00000000000E+00 0.  1.
      99926    2    1    2    0    0  0.00000000000E+00  0.00000000000E+00  0.94361083239E+03  0.10469409774E+04  0.45352398731E+03 0.  0.
      99925    2    3    3    0    0  0.64431543475E+02  0.76142758865E+02  0.71102162029E+03  0.76463902340E+03  0.26300560463E+03 0.  0.
         25    1    4    4    0    0  0.35080248648E+02  0.76499937674E+02  0.33774928781E+03  0.36987153692E+03  0.12509000000E+03 0.  0.
         25    1    4    4    0    0  0.29351294827E+02 -0.35717880899E+00  0.37327233248E+03  0.39476748648E+03  0.12509000000E+03 0.  0.
         25    1    3    3    0    0 -0.64431543475E+02 -0.76142758865E+02  0.23258921210E+03  0.28230195396E+03  0.12509000000E+03 0.  0.
<mgrwt>
<rscale>  2 0.45352399E+03</rscale>
<asrwt>0</asrwt>
<pdfrwt beam="1">  1       21 0.14636409E+00 0.45352399E+03</pdfrwt>
<pdfrwt beam="2">  1       21 0.75978054E-02 0.45352399E+03</pdfrwt>
<totfact> 0.37823726E+04</totfact>
</mgrwt>
</event>
<event>
 7    0  0.4685107E-002  0.4267754E+03  0.7546771E-02  0.1034883E+00
         21   -1    0    0  502  501  0.00000000000E+00  0.00000000000E+00  0.45400821591E+02  0.45400821591E+02  0.00000000000E+00 0.  1.
         21   -1    0    0  501  502 -0.00000000000E+00 -0.00000000000E+00 -0.10029404522E+04  0.10029404522E+04  0.00000000000E+00 0.  1.
      99926    2    1    2    0    0  0.00000000000E+00  0.71054273576E-14 -0.95753963063E+03  0.10483412738E+04  0.42677544698E+03 0.  0.
      99925    2    3    3    0    0  0.67767816150E+02  0.44858725718E+02 -0.56785826078E+03  0.63108372710E+03  0.26305680774E+03 0.  0.
         25    1    4    4    0    0  0.48691818355E+02 -0.10743534198E+02 -0.23830855885E+03  0.27372393762E+03  0.12509000000E+03 0.  0.
         25    1    3    3    0    0 -0.67767816150E+02 -0.44858725718E+02 -0.38968136985E+03  0.41725754671E+03  0.12509000000E+03 0.  0.
         25    1    4    4    0    0  0.19075997795E+02  0.55602259917E+02 -0.32954970193E+03  0.35735978948E+03  0.12509000000E+03 0.  0.
<mgrwt>
<rscale>  2 0.42677545E+03</rscale>
<asrwt>0</asrwt>
<pdfrwt beam="1">  1       21 0.66765920E-02 0.42677545E+03</pdfrwt>
<pdfrwt beam="2">  1       21 0.14749123E+00 0.42677545E+03</pdfrwt>
<totfact> 0.46836661E+04</totfact>
</mgrwt>
</event>
<event>
 7    0  0.4685107E-002  0.4538828E+03  0.7546771E-02  0.1026570E+00
         21   -1    0    0  502  501  0.00000000000E+00  0.00000000000E+00  0.81480551573E+02  0.81480551573E+02  0.00000000000E+00 0. -1.
         21   -1    0    0  501  502 -0.00000000000E+00 -0.00000000000E+00 -0.63208200106E+03  0.63208200106E+03  0.00000000000E+00 0. -1.
      99926    2    1    2    0    0  0.00000000000E+00  0.00000000000E+00 -0.55060144948E+03  0.71356255263E+03  0.45388276057E+03 0.  0.
      99925    2    3    3    0    0  0.90236485505E+02  0.66009171631E+02 -0.36005896841E+03  0.45968506397E+03  0.26299821909E+03 0.  0.
         25    1    4    4    0    0  0.54584992549E+02 -0.68684357674E+01 -0.16908589543E+03  0.21740341523E+03  0.12509000000E+03 0.  0.
         25    1    4    4    0    0  0.35651492956E+02  0.72877607399E+02 -0.19097307298E+03  0.24228164874E+03  0.12509000000E+03 0.  0.
         25    1    3    3    0    0 -0.90236485505E+02 -0.66009171631E+02 -0.19054248107E+03  0.25387748866E+03  0.12509000000E+03 0.  0.
<mgrwt>
<rscale>  2 0.45388276E+03</rscale>
<asrwt>0</asrwt>
<pdfrwt beam="1">  1       21 0.11982435E-01 0.45388276E+03</pdfrwt>
<pdfrwt beam="2">  1       21 0.92953232E-01 0.45388276E+03</pdfrwt>
<totfact> 0.52633888E+04</totfact>
</mgrwt>
</event>
<event>
 7    0  0.4685107E-002  0.4451639E+03  0.7546771E-02  0.1029174E+00
         21   -1    0    0  502  501  0.00000000000E+00  0.00000000000E+00  0.54696395256E+03  0.54696395256E+03  0.00000000000E+00 0.  1.
         21   -1    0    0  501  502 -0.00000000000E+00 -0.00000000000E+00 -0.90577672882E+02  0.90577672882E+02  0.00000000000E+00 0.  1.
      99926    2    1    2    0    0  0.00000000000E+00 -0.14210854715E-13  0.45638627968E+03  0.63754162544E+03  0.44516388880E+03 0.  0.
      99925    2    3    3    0    0  0.37479374189E+01  0.10308653641E+03  0.29620267969E+03  0.40962239671E+03  0.26346460749E+03 0.  0.
         25    1    4    4    0    0  0.14927952112E+02  0.14181897186E+02  0.15993923637E+03  0.20408830783E+03  0.12509000000E+03 0.  0.
         25    1    3    3    0    0 -0.37479374189E+01 -0.10308653641E+03  0.16018359999E+03  0.22791922874E+03  0.12509000000E+03 0.  0.
         25    1    4    4    0    0 -0.11180014694E+02  0.88904639223E+02  0.13626344332E+03  0.20553408887E+03  0.12509000000E+03 0.  0.
<mgrwt>
<rscale>  2 0.44516389E+03</rscale>
<asrwt>0</asrwt>
<pdfrwt beam="1">  1       21 0.80435874E-01 0.44516389E+03</pdfrwt>
<pdfrwt beam="2">  1       21 0.13320246E-01 0.44516389E+03</pdfrwt>
<totfact> 0.61025772E+04</totfact>
</mgrwt>
</event>
<event>
 7    0  0.4685107E-002  0.4595027E+03  0.7546771E-02  0.1024926E+00
         21   -1    0    0  502  501  0.00000000000E+00  0.00000000000E+00  0.65945708030E+02  0.65945708030E+02  0.00000000000E+00 0. -1.
         21   -1    0    0  501  502 -0.00000000000E+00 -0.00000000000E+00 -0.80044137648E+03  0.80044137648E+03  0.00000000000E+00 0. -1.
      99926    2    1    2    0    0  0.14210854715E-13  0.00000000000E+00 -0.73449566845E+03  0.86638708451E+03  0.45950265857E+03 0.  0.
      99925    2    3    3    0    0  0.92240447655E+02  0.46962948521E+02 -0.35620590563E+03  0.45472645793E+03  0.26302031409E+03 0.  0.
         25    1    4    4    0    0  0.26547541096E+02  0.13047219516E+02 -0.11164461526E+03  0.17025577844E+03  0.12509000000E+03 0.  0.
         25    1    4    4    0    0  0.65692906559E+02  0.33915729006E+02 -0.24456129036E+03  0.28447067949E+03  0.12509000000E+03 0.  0.
         25    1    3    3    0    0 -0.92240447655E+02 -0.46962948521E+02 -0.37828976283E+03  0.41166062658E+03  0.12509000000E+03 0.  0.
<mgrwt>
<rscale>  2 0.45950266E+03</rscale>
<asrwt>0</asrwt>
<pdfrwt beam="1">  1       21 0.96978989E-02 0.45950266E+03</pdfrwt>
<pdfrwt beam="2">  1       21 0.11771196E+00 0.45950266E+03</pdfrwt>
<totfact> 0.43170065E+04</totfact>
</mgrwt>
</event>
<event>
 7    0  0.4685107E-002  0.4016863E+03  0.7546771E-02  0.1043197E+00
         21   -1    0    0  502  501  0.00000000000E+00  0.00000000000E+00  0.79391865903E+02  0.79391865903E+02  0.00000000000E+00 0.  1.
         21   -1    0    0  501  502 -0.00000000000E+00 -0.00000000000E+00 -0.50808702999E+03  0.50808702999E+03  0.00000000000E+00 0.  1.
      99926    2    1    2    0    0  0.00000000000E+00  0.35527136788E-14 -0.42869516409E+03  0.58747889589E+03  0.40168633211E+03 0.  0.
      99925    2    3    3    0    0 -0.43347755317E+02 -0.21631263580E+02 -0.26152635200E+03  0.37314303961E+03  0.26171120679E+03 0.  0.
         25    1    3    3    0    0  0.43347755317E+02  0.21631263580E+02 -0.16716881208E+03  0.21433585628E+03  0.12509000000E+03 0.  0.
         25    1    4    4    0    0 -0.37309040521E+02 -0.32230268289E+02 -0.95545250421E+02  0.16494592349E+03  0.12509000000E+03 0.  0.
         25    1    4    4    0    0 -0.60387147965E+01  0.10599004710E+02 -0.16598110158E+03  0.20819711612E+03  0.12509000000E+03 0.  0.
<mgrwt>
<rscale>  2 0.40168633E+03</rscale>
<asrwt>0</asrwt>
<pdfrwt beam="1">  1       21 0.11675274E-01 0.40168633E+03</pdfrwt>
<pdfrwt beam="2">  1       21 0.74718681E-01 0.40168633E+03</pdfrwt>
<totfact> 0.92787924E+04</totfact>
</mgrwt>
</event>
<event>
 7    0  0.4685107E-002  0.4502583E+03  0.7546771E-02  0.1027645E+00
         21   -1    0    0  502  501  0.00000000000E+00  0.00000000000E+00  0.14250981812E+03  0.14250981812E+03  0.00000000000E+00 0.  1.
         21   -1    0    0  501  502 -0.00000000000E+00 -0.00000000000E+00 -0.35564658170E+03  0.35564658170E+03  0.00000000000E+00 0.  1.
      99926    2    1    2    0    0  0.00000000000E+00 -0.17763568394E-14 -0.21313676357E+03  0.49815639982E+03  0.45025827999E+03 0.  0.
      99925    2    3    3    0    0 -0.10653620821E+03 -0.10659384192E+02 -0.15515966299E+03  0.32359283425E+03  0.26300991470E+03 0.  0.
         25    1    3    3    0    0  0.10653620821E+03  0.10659384192E+02 -0.57977100581E+02  0.17456356557E+03  0.12509000000E+03 0.  0.
         25    1    4    4    0    0 -0.88002013318E+02  0.77476526290E+01 -0.10794725877E+03  0.18736194717E+03  0.12509000000E+03 0.  0.
         25    1    4    4    0    0 -0.18534194895E+02 -0.18407036821E+02 -0.47212404220E+02  0.13623088709E+03  0.12509000000E+03 0.  0.
<mgrwt>
<rscale>  2 0.45025828E+03</rscale>
<asrwt>0</asrwt>
<pdfrwt beam="1">  1       21 0.20957327E-01 0.45025828E+03</pdfrwt>
<pdfrwt beam="2">  1       21 0.52300966E-01 0.45025828E+03</pdfrwt>
<totfact> 0.67921110E+04</totfact>
</mgrwt>
</event>
<event>
 7    0  0.4685107E-002  0.4532038E+03  0.7546771E-02  0.1026771E+00
         21   -1    0    0  502  501  0.00000000000E+00  0.00000000000E+00  0.89122865754E+02  0.89122865754E+02  0.00000000000E+00 0. -1.
         21   -1    0    0  501  502 -0.00000000000E+00 -0.00000000000E+00 -0.57615316161E+03  0.57615316161E+03  0.00000000000E+00 0. -1.
      99926    2    1    2    0    0 -0.71054273576E-14  0.00000000000E+00 -0.48703029585E+03  0.66527602736E+03  0.45320379908E+03 0.  0.
      99925    2    3    3    0    0  0.45745670766E+02  0.26919290927E+02 -0.16357642330E+03  0.31443812977E+03  0.26324280916E+03 0.  0.
         25    1    4    4    0    0  0.55032668855E+02 -0.11749588924E+02 -0.88216067980E+02  0.16308350693E+03  0.12509000000E+03 0.  0.
         25    1    4    4    0    0 -0.92869980887E+01  0.38668879851E+02 -0.75360355324E+02  0.15135462285E+03  0.12509000000E+03 0.  0.
         25    1    3    3    0    0 -0.45745670766E+02 -0.26919290927E+02 -0.32345387255E+03  0.35083789759E+03  0.12509000000E+03 0.  0.
<mgrwt>
<rscale>  2 0.45320380E+03</rscale>
<asrwt>0</asrwt>
<pdfrwt beam="1">  1       21 0.13106304E-01 0.45320380E+03</pdfrwt>
<pdfrwt beam="2">  1       21 0.84728404E-01 0.45320380E+03</pdfrwt>
<totfact> 0.55612297E+04</totfact>
</mgrwt>
</event>
<event>
 7    0  0.4685107E-002  0.4554848E+03  0.7546771E-02  0.1026099E+00
         21   -1    0    0  502  501  0.00000000000E+00  0.00000000000E+00  0.31276608507E+03  0.31276608507E+03  0.00000000000E+00 0.  1.
         21   -1    0    0  501  502 -0.00000000000E+00 -0.00000000000E+00 -0.16583191920E+03  0.16583191920E+03  0.00000000000E+00 0.  1.
      99926    2    1    2    0    0  0.00000000000E+00  0.00000000000E+00  0.14693416587E+03  0.47859800427E+03  0.45548479733E+03 0.  0.
      99925    2    3    3    0    0 -0.96297445430E+02  0.35724808298E+02  0.41228660921E+02  0.28528317866E+03  0.26293959311E+03 0.  0.
         25    1    3    3    0    0  0.96297445430E+02 -0.35724808298E+02  0.10570550495E+03  0.19331482561E+03  0.12509000000E+03 0.  0.
         25    1    4    4    0    0 -0.80426787185E+02 -0.46921660005E+01  0.34295906643E+02  0.15268988778E+03  0.12509000000E+03 0.  0.
         25    1    4    4    0    0 -0.15870658246E+02  0.40416974298E+02  0.69327542780E+01  0.13259329088E+03  0.12509000000E+03 0.  0.
<mgrwt>
<rscale>  2 0.45548480E+03</rscale>
<asrwt>0</asrwt>
<pdfrwt beam="1">  1       21 0.45995012E-01 0.45548480E+03</pdfrwt>
<pdfrwt beam="2">  1       21 0.24387047E-01 0.45548480E+03</pdfrwt>
<totfact> 0.66545866E+04</totfact>
</mgrwt>
</event>
<event>
 7    0  0.4685107E-002  0.4140837E+03  0.7546771E-02  0.1039009E+00
         21   -1    0    0  502  501  0.00000000000E+00  0.00000000000E+00  0.14025696169E+03  0.14025696169E+03  0.00000000000E+00 0. -1.
         21   -1    0    0  501  502 -0.00000000000E+00 -0.00000000000E+00 -0.30562709467E+03  0.30562709467E+03  0.00000000000E+00 0. -1.
      99926    2    1    2    0    0  0.00000000000E+00  0.00000000000E+00 -0.16537013299E+03  0.44588405636E+03  0.41408370028E+03 0.  0.
      99925    2    3    3    0    0 -0.52438819119E+02 -0.37460699704E+02 -0.84775341111E+02  0.28372314137E+03  0.26298066225E+03 0.  0.
         25    1    4    4    0    0 -0.47531940057E+02  0.13837889441E+02 -0.54098005354E+02  0.14499956825E+03  0.12509000000E+03 0.  0.
         25    1    3    3    0    0  0.52438819119E+02  0.37460699704E+02 -0.80594791874E+02  0.16216091499E+03  0.12509000000E+03 0.  0.
         25    1    4    4    0    0 -0.49068790618E+01 -0.51298589145E+02 -0.30677335757E+02  0.13872357312E+03  0.12509000000E+03 0.  0.
<mgrwt>
<rscale>  2 0.41408370E+03</rscale>
<asrwt>0</asrwt>
<pdfrwt beam="1">  1       21 0.20626024E-01 0.41408370E+03</pdfrwt>
<pdfrwt beam="2">  1       21 0.44945160E-01 0.41408370E+03</pdfrwt>
<totfact> 0.97200558E+04</totfact>
</mgrwt>
</event>
<event>
 7    0  0.4685107E-002  0.4524275E+03  0.7546771E-02  0.1027001E+00
         21   -1    0    0  502  501  0.00000000000E+00  0.00000000000E+00  0.11566582358E+04  0.11566582358E+04  0.00000000000E+00 0. -1.
         21   -1    0    0  501  502 -0.00000000000E+00 -0.00000000000E+00 -0.44241821852E+02  0.44241821852E+02  0.00000000000E+00 0. -1.
      99926    2    1    2    0    0  0.00000000000E+00 -0.17763568394E-14  0.11124164140E+04  0.12009000577E+04  0.45242753061E+03 0.  0.
      99925    2    3    3    0    0 -0.10995889876E+03 -0.12797517073E+02  0.71098954518E+03  0.76610611228E+03  0.26297852777E+03 0.  0.
         25    1    3    3    0    0  0.10995889876E+03  0.12797517073E+02  0.40142686879E+03  0.43479394539E+03  0.12509000000E+03 0.  0.
         25    1    4    4    0    0 -0.50439502562E+02 -0.42933041039E+02  0.40067057041E+03  0.42493741131E+03  0.12509000000E+03 0.  0.
         25    1    4    4    0    0 -0.59519396199E+02  0.30135523966E+02  0.31031897476E+03  0.34116870098E+03  0.12509000000E+03 0.  0.
<mgrwt>
<rscale>  2 0.45242753E+03</rscale>
<asrwt>0</asrwt>
<pdfrwt beam="1">  1       21 0.17009678E+00 0.45242753E+03</pdfrwt>
<pdfrwt beam="2">  1       21 0.65061510E-02 0.45242753E+03</pdfrwt>
<totfact> 0.32779397E+04</totfact>
</mgrwt>
</event>
<event>
 7    0  0.4685107E-002  0.4553581E+03  0.7546771E-02  0.1026136E+00
         21   -1    0    0  502  501  0.00000000000E+00  0.00000000000E+00  0.83851676246E+03  0.83851676246E+03  0.00000000000E+00 0.  1.
         21   -1    0    0  501  502 -0.00000000000E+00 -0.00000000000E+00 -0.61820768318E+02  0.61820768318E+02  0.00000000000E+00 0.  1.
      99926    2    1    2    0    0  0.00000000000E+00  0.71054273576E-14  0.77669599414E+03  0.90033753078E+03  0.45535810305E+03 0.  0.
      99925    2    3    3    0    0  0.90882510788E+02 -0.62979081092E+02  0.53936314882E+03  0.61016450827E+03  0.26298693015E+03 0.  0.
         25    1    3    3    0    0 -0.90882510788E+02  0.62979081092E+02  0.23733284533E+03  0.29017302251E+03  0.12509000000E+03 0.  0.
         25    1    4    4    0    0  0.59348479197E+02 -0.43952604489E+02  0.36172260768E+03  0.38980100876E+03  0.12509000000E+03 0.  0.
         25    1    4    4    0    0  0.31534031591E+02 -0.19026476603E+02  0.17764054114E+03  0.22036349951E+03  0.12509000000E+03 0.  0.
<mgrwt>
<rscale>  2 0.45535810E+03</rscale>
<asrwt>0</asrwt>
<pdfrwt beam="1">  1       21 0.12331128E+00 0.45535810E+03</pdfrwt>
<pdfrwt beam="2">  1       21 0.90912900E-02 0.45535810E+03</pdfrwt>
<totfact> 0.43098136E+04</totfact>
</mgrwt>
</event>
<event>
 7    0  0.4685107E-002  0.4521698E+03  0.7546771E-02  0.1027077E+00
         21   -1    0    0  502  501  0.00000000000E+00  0.00000000000E+00  0.78726619292E+02  0.78726619292E+02  0.00000000000E+00 0. -1.
         21   -1    0    0  501  502 -0.00000000000E+00 -0.00000000000E+00 -0.64926417772E+03  0.64926417772E+03  0.00000000000E+00 0. -1.
      99926    2    1    2    0    0  0.00000000000E+00  0.00000000000E+00 -0.57053755843E+03  0.72799079701E+03  0.45216976343E+03 0.  0.
      99925    2    3    3    0    0 -0.40729324340E+02  0.83262081810E+02 -0.26411330948E+03  0.38428339155E+03  0.26329913150E+03 0.  0.
         25    1    4    4    0    0 -0.33482472004E+01  0.75149749873E+02 -0.11425300815E+03  0.18536438071E+03  0.12509000000E+03 0.  0.
         25    1    3    3    0    0  0.40729324340E+02 -0.83262081810E+02 -0.30642424895E+03  0.34370740546E+03  0.12509000000E+03 0.  0.
         25    1    4    4    0    0 -0.37381077140E+02  0.81123319374E+01 -0.14986030133E+03  0.19891901084E+03  0.12509000000E+03 0.  0.
<mgrwt>
<rscale>  2 0.45216976E+03</rscale>
<asrwt>0</asrwt>
<pdfrwt beam="1">  1       21 0.11577444E-01 0.45216976E+03</pdfrwt>
<pdfrwt beam="2">  1       21 0.95480028E-01 0.45216976E+03</pdfrwt>
<totfact> 0.52569782E+04</totfact>
</mgrwt>
</event>
<event>
 7    0  0.4685107E-002  0.4776621E+03  0.7546771E-02  0.1019780E+00
         21   -1    0    0  502  501  0.00000000000E+00  0.00000000000E+00  0.13283413692E+04  0.13283413692E+04  0.00000000000E+00 0. -1.
         21   -1    0    0  501  502 -0.00000000000E+00 -0.00000000000E+00 -0.42940970254E+02  0.42940970254E+02  0.00000000000E+00 0. -1.
      99926    2    1    2    0    0  0.14210854715E-13  0.00000000000E+00  0.12854003990E+04  0.13712823395E+04  0.47766208651E+03 0.  0.
      99925    2    3    3    0    0  0.69802448273E+02 -0.33826901465E+02  0.48298802767E+03  0.55548226423E+03  0.26318523888E+03 0.  0.
         25    1    4    4    0    0  0.41750592879E+02 -0.18224219988E+02  0.16325744423E+03  0.21065548984E+03  0.12509000000E+03 0.  0.
         25    1    4    4    0    0  0.28051855394E+02 -0.15602681477E+02  0.31973058343E+03  0.34482677440E+03  0.12509000000E+03 0.  0.
         25    1    3    3    0    0 -0.69802448273E+02  0.33826901465E+02  0.80241237130E+03  0.81580007524E+03  0.12509000000E+03 0.  0.
<mgrwt>
<rscale>  2 0.47766209E+03</rscale>
<asrwt>0</asrwt>
<pdfrwt beam="1">  1       21 0.19534429E+00 0.47766209E+03</pdfrwt>
<pdfrwt beam="2">  1       21 0.63148494E-02 0.47766209E+03</pdfrwt>
<totfact> 0.22815527E+04</totfact>
</mgrwt>
</event>
<event>
 7    0  0.4685107E-002  0.4481545E+03  0.7546771E-02  0.1028274E+00
         21   -1    0    0  502  501  0.00000000000E+00  0.00000000000E+00  0.15929757806E+04  0.15929757806E+04  0.00000000000E+00 0. -1.
         21   -1    0    0  501  502 -0.00000000000E+00 -0.00000000000E+00 -0.31520013503E+02  0.31520013503E+02  0.00000000000E+00 0. -1.
      99926    2    1    2    0    0  0.00000000000E+00  0.00000000000E+00  0.15614557671E+04  0.16244957941E+04  0.44815451850E+03 0.  0.
      99925    2    3    3    0    0  0.15815904610E+02  0.45604454492E+02  0.13332586180E+04  0.13598236269E+04  0.26308144143E+03 0.  0.
         25    1    3    3    0    0 -0.15815904610E+02 -0.45604454492E+02  0.22819714906E+03  0.26467216712E+03  0.12509000000E+03 0.  0.
         25    1    4    4    0    0 -0.87756238980E+01 -0.14664635457E+02  0.65664160418E+03  0.66866865304E+03  0.12509000000E+03 0.  0.
         25    1    4    4    0    0  0.24591528508E+02  0.60269089949E+02  0.67661701382E+03  0.69115497391E+03  0.12509000000E+03 0.  0.
<mgrwt>
<rscale>  2 0.44815452E+03</rscale>
<asrwt>0</asrwt>
<pdfrwt beam="1">  1       21 0.23426109E+00 0.44815452E+03</pdfrwt>
<pdfrwt beam="2">  1       21 0.46352972E-02 0.44815452E+03</pdfrwt>
<totfact> 0.22029754E+04</totfact>
</mgrwt>
</event>
<event>
 7    0  0.4685107E-002  0.4476336E+03  0.7546771E-02  0.1028430E+00
         21   -1    0    0  502  501  0.00000000000E+00  0.00000000000E+00  0.37650408251E+03  0.37650408251E+03  0.00000000000E+00 0.  1.
         21   -1    0    0  501  502 -0.00000000000E+00 -0.00000000000E+00 -0.13305025760E+03  0.13305025760E+03  0.00000000000E+00 0.  1.
      99926    2    1    2    0    0  0.00000000000E+00  0.00000000000E+00  0.24345382491E+03  0.50955434011E+03  0.44763362325E+03 0.  0.
      99925    2    3    3    0    0  0.82105104361E+02 -0.29478630380E+02  0.85503834985E+02  0.28999581664E+03  0.26301412521E+03 0.  0.
         25    1    4    4    0    0  0.41760259032E+02 -0.16946207734E+01  0.82612535566E+02  0.15562496621E+03  0.12509000000E+03 0.  0.
         25    1    3    3    0    0 -0.82105104361E+02  0.29478630380E+02  0.15794998993E+03  0.21955852347E+03  0.12509000000E+03 0.  0.
         25    1    4    4    0    0  0.40344845329E+02 -0.27784009606E+02  0.28912994186E+01  0.13437085044E+03  0.12509000000E+03 0.  0.
<mgrwt>
<rscale>  2 0.44763362E+03</rscale>
<asrwt>0</asrwt>
<pdfrwt beam="1">  1       21 0.55368247E-01 0.44763362E+03</pdfrwt>
<pdfrwt beam="2">  1       21 0.19566214E-01 0.44763362E+03</pdfrwt>
<totfact> 0.68523285E+04</totfact>
</mgrwt>
</event>
<event>
 7    0  0.4685107E-002  0.4524139E+03  0.7546771E-02  0.1027005E+00
         21   -1    0    0  502  501  0.00000000000E+00  0.00000000000E+00  0.17870812621E+04  0.17870812621E+04  0.00000000000E+00 0. -1.
         21   -1    0    0  501  502 -0.00000000000E+00 -0.00000000000E+00 -0.28633042451E+02  0.28633042451E+02  0.00000000000E+00 0. -1.
      99926    2    1    2    0    0  0.00000000000E+00  0.71054273576E-14  0.17584482197E+04  0.18157143046E+04  0.45241385320E+03 0.  0.
      99925    2    3    3    0    0  0.85293057726E+02  0.37492913201E+02  0.13491435718E+04  0.13776978355E+04  0.26302533074E+03 0.  0.
         25    1    4    4    0    0  0.87191847786E+01  0.21630914333E+02  0.74606306908E+03  0.75683652910E+03  0.12509000000E+03 0.  0.
         25    1    4    4    0    0  0.76573872947E+02  0.15861998868E+02  0.60308050269E+03  0.62086130645E+03  0.12509000000E+03 0.  0.
         25    1    3    3    0    0 -0.85293057726E+02 -0.37492913201E+02  0.40930464789E+03  0.43801646900E+03  0.12509000000E+03 0.  0.
<mgrwt>
<rscale>  2 0.45241385E+03</rscale>
<asrwt>0</asrwt>
<pdfrwt beam="1">  1       21 0.26280599E+00 0.45241385E+03</pdfrwt>
<pdfrwt beam="2">  1       21 0.42107428E-02 0.45241385E+03</pdfrwt>
<totfact> 0.17304260E+04</totfact>
</mgrwt>
</event>
<event>
 7    0  0.4685107E-002  0.4313229E+03  0.7546771E-02  0.1033443E+00
         21   -1    0    0  502  501  0.00000000000E+00  0.00000000000E+00  0.76737407376E+02  0.76737407376E+02  0.00000000000E+00 0.  1.
         21   -1    0    0  501  502 -0.00000000000E+00 -0.00000000000E+00 -0.60609111239E+03  0.60609111239E+03  0.00000000000E+00 0.  1.
      99926    2    1    2    0    0  0.71054273576E-14  0.00000000000E+00 -0.52935370501E+03  0.68282851977E+03  0.43132289806E+03 0.  0.
      99925    2    3    3    0    0  0.59483865828E+02  0.57454401430E+02 -0.28877905057E+03  0.39934481477E+03  0.26314179162E+03 0.  0.
         25    1    3    3    0    0 -0.59483865828E+02 -0.57454401430E+02 -0.24057465444E+03  0.28348370500E+03  0.12509000000E+03 0.  0.
         25    1    4    4    0    0  0.61634306159E+01  0.23856261369E+02 -0.89531696504E+02  0.15579005701E+03  0.12509000000E+03 0.  0.
         25    1    4    4    0    0  0.53320435212E+02  0.33598140061E+02 -0.19924735407E+03  0.24355475776E+03  0.12509000000E+03 0.  0.
<mgrwt>
<rscale>  2 0.43132290E+03</rscale>
<asrwt>0</asrwt>
<pdfrwt beam="1">  1       21 0.11284914E-01 0.43132290E+03</pdfrwt>
<pdfrwt beam="2">  1       21 0.89131039E-01 0.43132290E+03</pdfrwt>
<totfact> 0.65170928E+04</totfact>
</mgrwt>
</event>
<event>
 7    0  0.4685107E-002  0.4586113E+03  0.7546771E-02  0.1025185E+00
         21   -1    0    0  502  501  0.00000000000E+00  0.00000000000E+00  0.80018211880E+02  0.80018211880E+02  0.00000000000E+00 0. -1.
         21   -1    0    0  501  502 -0.00000000000E+00 -0.00000000000E+00 -0.65711392643E+03  0.65711392643E+03  0.00000000000E+00 0. -1.
      99926    2    1    2    0    0  0.00000000000E+00  0.00000000000E+00 -0.57709571455E+03  0.73713213831E+03  0.45861130119E+03 0.  0.
      99925    2    3    3    0    0 -0.41802707298E+02 -0.10650257151E+03 -0.32700382376E+03  0.43500017043E+03  0.26306535965E+03 0.  0.
         25    1    4    4    0    0  0.35613173243E+01 -0.31313049099E+02 -0.19058029921E+03  0.23013376235E+03  0.12509000000E+03 0.  0.
         25    1    3    3    0    0  0.41802707298E+02  0.10650257151E+03 -0.25009189079E+03  0.30213196788E+03  0.12509000000E+03 0.  0.
         25    1    4    4    0    0 -0.45364024622E+02 -0.75189522412E+02 -0.13642352455E+03  0.20486640808E+03  0.12509000000E+03 0.  0.
<mgrwt>
<rscale>  2 0.45861130E+03</rscale>
<asrwt>0</asrwt>
<pdfrwt beam="1">  1       21 0.11767384E-01 0.45861130E+03</pdfrwt>
<pdfrwt beam="2">  1       21 0.96634401E-01 0.45861130E+03</pdfrwt>
<totfact> 0.49512054E+04</totfact>
</mgrwt>
</event>
<event>
 7    0  0.4685107E-002  0.4567593E+03  0.7546771E-02  0.1025725E+00
         21   -1    0    0  502  501  0.00000000000E+00  0.00000000000E+00  0.79096525748E+03  0.79096525748E+03  0.00000000000E+00 0.  1.
         21   -1    0    0  501  502 -0.00000000000E+00 -0.00000000000E+00 -0.65941283090E+02  0.65941283090E+02  0.00000000000E+00 0.  1.
      99926    2    1    2    0    0 -0.26645352591E-14  0.00000000000E+00  0.72502397439E+03  0.85690654057E+03  0.45675929748E+03 0.  0.
      99925    2    3    3    0    0 -0.95933233899E+00 -0.41616494777E+02  0.25453939967E+03  0.36830026134E+03  0.26291048583E+03 0.  0.
         25    1    3    3    0    0  0.95933233899E+00  0.41616494777E+02  0.47048457472E+03  0.48860627923E+03  0.12509000000E+03 0.  0.
         25    1    4    4    0    0 -0.17223956063E+02 -0.13027618404E+02  0.76403772694E+02  0.14816014338E+03  0.12509000000E+03 0.  0.
         25    1    4    4    0    0  0.16264623724E+02 -0.28588876372E+02  0.17813562698E+03  0.22014011796E+03  0.12509000000E+03 0.  0.
<mgrwt>
<rscale>  2 0.45675930E+03</rscale>
<asrwt>0</asrwt>
<pdfrwt beam="1">  1       21 0.11631841E+00 0.45675930E+03</pdfrwt>
<pdfrwt beam="2">  1       21 0.96972480E-02 0.45675930E+03</pdfrwt>
<totfact> 0.44514498E+04</totfact>
</mgrwt>
</event>
<event>
 7    0  0.4685107E-002  0.4568424E+03  0.7546771E-02  0.1025701E+00
         21   -1    0    0  502  501  0.00000000000E+00  0.00000000000E+00  0.41991366249E+03  0.41991366249E+03  0.00000000000E+00 0. -1.
         21   -1    0    0  501  502 -0.00000000000E+00 -0.00000000000E+00 -0.12425471773E+03  0.12425471773E+03  0.00000000000E+00 0. -1.
      99926    2    1    2    0    0 -0.71054273576E-14  0.14210854715E-13  0.29565894476E+03  0.54416838022E+03  0.45684243937E+03 0.  0.
      99925    2    3    3    0    0 -0.45930814001E+02  0.84182195032E+02  0.11036075311E+03  0.30090060684E+03  0.26299315150E+03 0.  0.
         25    1    3    3    0    0  0.45930814001E+02 -0.84182195032E+02  0.18529819165E+03  0.24326777338E+03  0.12509000000E+03 0.  0.
         25    1    4    4    0    0 -0.11053354309E+01  0.60311395812E+01  0.40250153161E+02  0.13154915180E+03  0.12509000000E+03 0.  0.
         25    1    4    4    0    0 -0.44825478570E+02  0.78151055451E+02  0.70110599948E+02  0.16935145503E+03  0.12509000000E+03 0.  0.
<mgrwt>
<rscale>  2 0.45684244E+03</rscale>
<asrwt>0</asrwt>
<pdfrwt beam="1">  1       21 0.61752009E-01 0.45684244E+03</pdfrwt>
<pdfrwt beam="2">  1       21 0.18272753E-01 0.45684244E+03</pdfrwt>
<totfact> 0.61354110E+04</totfact>
</mgrwt>
</event>
<event>
 7    0  0.4685107E-002  0.4531609E+03  0.7546771E-02  0.1026784E+00
         21   -1    0    0  502  501  0.00000000000E+00  0.00000000000E+00  0.99815609668E+03  0.99815609668E+03  0.00000000000E+00 0. -1.
         21   -1    0    0  501  502 -0.00000000000E+00 -0.00000000000E+00 -0.51433536141E+02  0.51433536141E+02  0.00000000000E+00 0. -1.
      99926    2    1    2    0    0  0.00000000000E+00  0.17763568394E-14  0.94672256054E+03  0.10495896328E+04  0.45316088831E+03 0.  0.
      99925    2    3    3    0    0  0.10414289202E+03  0.13469850127E+02  0.50976480033E+03  0.58310622355E+03  0.26291735862E+03 0.  0.
         25    1    4    4    0    0  0.13045020796E+02 -0.10207526417E+02  0.24266851502E+03  0.27351395293E+03  0.12509000000E+03 0.  0.
         25    1    3    3    0    0 -0.10414289202E+03 -0.13469850127E+02  0.43695776020E+03  0.46648340927E+03  0.12509000000E+03 0.  0.
         25    1    4    4    0    0  0.91097871227E+02  0.23677376544E+02  0.26709628531E+03  0.30959227062E+03  0.12509000000E+03 0.  0.
<mgrwt>
<rscale>  2 0.45316089E+03</rscale>
<asrwt>0</asrwt>
<pdfrwt beam="1">  1       21 0.14678765E+00 0.45316089E+03</pdfrwt>
<pdfrwt beam="2">  1       21 0.75637559E-02 0.45316089E+03</pdfrwt>
<totfact> 0.37832616E+04</totfact>
</mgrwt>
</event>
<event>
 7    0  0.4685107E-002  0.4705755E+03  0.7546771E-02  0.1021758E+00
         21   -1    0    0  502  501  0.00000000000E+00  0.00000000000E+00  0.20816632499E+03  0.20816632499E+03  0.00000000000E+00 0. -1.
         21   -1    0    0  501  502 -0.00000000000E+00 -0.00000000000E+00 -0.26594270858E+03  0.26594270858E+03  0.00000000000E+00 0. -1.
      99926    2    1    2    0    0  0.00000000000E+00  0.17763568394E-14 -0.57776383593E+02  0.47410903357E+03  0.47057546176E+03 0.  0.
      99925    2    3    3    0    0 -0.93104980552E+02  0.12385063567E+02 -0.12230605638E+03  0.30489463119E+03  0.26302098300E+03 0.  0.
         25    1    4    4    0    0 -0.59333398432E+02 -0.31309713642E+02 -0.52256655112E+02  0.15125811199E+03  0.12509000000E+03 0.  0.
         25    1    3    3    0    0  0.93104980552E+02 -0.12385063567E+02  0.64529672790E+02  0.16921440238E+03  0.12509000000E+03 0.  0.
         25    1    4    4    0    0 -0.33771582121E+02  0.43694777209E+02 -0.70049401271E+02  0.15363651920E+03  0.12509000000E+03 0.  0.
<mgrwt>
<rscale>  2 0.47057546E+03</rscale>
<asrwt>0</asrwt>
<pdfrwt beam="1">  1       21 0.30612695E-01 0.47057546E+03</pdfrwt>
<pdfrwt beam="2">  1       21 0.39109222E-01 0.47057546E+03</pdfrwt>
<totfact> 0.59431821E+04</totfact>
</mgrwt>
</event>
<event>
 7    0  0.4685107E-002  0.4028307E+03  0.7546771E-02  0.1042804E+00
         21   -1    0    0  502  501  0.00000000000E+00  0.00000000000E+00  0.38680859530E+03  0.38680859530E+03  0.00000000000E+00 0. -1.
         21   -1    0    0  501  502 -0.00000000000E+00 -0.00000000000E+00 -0.10487909014E+03  0.10487909014E+03  0.00000000000E+00 0. -1.
      99926    2    1    2    0    0 -0.17763568394E-14  0.35527136788E-14  0.28192950516E+03  0.49168768544E+03  0.40283065193E+03 0.  0.
      99925    2    3    3    0    0  0.82609575392E+01 -0.23176448413E+02  0.13276757808E+03  0.29546796225E+03  0.26280923832E+03 0.  0.
         25    1    4    4    0    0  0.31365985864E+02 -0.32784400825E+02  0.44376027073E+02  0.14026896266E+03  0.12509000000E+03 0.  0.
         25    1    4    4    0    0 -0.23105028325E+02  0.96079524121E+01  0.88391551009E+02  0.15519899959E+03  0.12509000000E+03 0.  0.
         25    1    3    3    0    0 -0.82609575392E+01  0.23176448413E+02  0.14916192708E+03  0.19621972320E+03  0.12509000000E+03 0.  0.
<mgrwt>
<rscale>  2 0.40283065E+03</rscale>
<asrwt>0</asrwt>
<pdfrwt beam="1">  1       21 0.56883616E-01 0.40283065E+03</pdfrwt>
<pdfrwt beam="2">  1       21 0.15423396E-01 0.40283065E+03</pdfrwt>
<totfact> 0.10193888E+05</totfact>
</mgrwt>
</event>
<event>
 7    0  0.4685107E-002  0.4431433E+03  0.7546771E-02  0.1029787E+00
         21   -1    0    0  502  501  0.00000000000E+00  0.00000000000E+00  0.14525308242E+03  0.14525308242E+03  0.00000000000E+00 0.  1.
         21   -1    0    0  501  502 -0.00000000000E+00 -0.00000000000E+00 -0.33798941430E+03  0.33798941430E+03  0.00000000000E+00 0.  1.
      99926    2    1    2    0    0 -0.71054273576E-14  0.00000000000E+00 -0.19273633188E+03  0.48324249672E+03  0.44314333686E+03 0.  0.
      99925    2    3    3    0    0 -0.38115386772E+02  0.28884543708E+02 -0.22041839159E+03  0.34649124771E+03  0.26303007017E+03 0.  0.
         25    1    4    4    0    0  0.18355990954E+02  0.16791726136E+02 -0.84755692757E+02  0.15313373249E+03  0.12509000000E+03 0.  0.
         25    1    4    4    0    0 -0.56471377726E+02  0.12092817572E+02 -0.13566269884E+03  0.19335751523E+03  0.12509000000E+03 0.  0.
         25    1    3    3    0    0  0.38115386772E+02 -0.28884543708E+02  0.27682059709E+02  0.13675124900E+03  0.12509000000E+03 0.  0.
<mgrwt>
<rscale>  2 0.44314334E+03</rscale>
<asrwt>0</asrwt>
<pdfrwt beam="1">  1       21 0.21360748E-01 0.44314334E+03</pdfrwt>
<pdfrwt beam="2">  1       21 0.49704325E-01 0.44314334E+03</pdfrwt>
<totfact> 0.73107553E+04</totfact>
</mgrwt>
</event>
<event>
 7    0  0.4685107E-002  0.4552301E+03  0.7546771E-02  0.1026174E+00
         21   -1    0    0  502  501  0.00000000000E+00  0.00000000000E+00  0.16453734368E+03  0.16453734368E+03  0.00000000000E+00 0. -1.
         21   -1    0    0  501  502 -0.00000000000E+00 -0.00000000000E+00 -0.31487451506E+03  0.31487451506E+03  0.00000000000E+00 0. -1.
      99926    2    1    2    0    0 -0.71054273576E-14  0.14210854715E-13 -0.15033717139E+03  0.47941185874E+03  0.45523012335E+03 0.  0.
      99925    2    3    3    0    0  0.54783455216E+02 -0.74260671857E+02 -0.25257320546E+02  0.27989155518E+03  0.26303132146E+03 0.  0.
         25    1    4    4    0    0 -0.38344129009E-01 -0.34833881405E+02 -0.42659638719E+02  0.13667755353E+03  0.12509000000E+03 0.  0.
         25    1    4    4    0    0  0.54821799345E+02 -0.39426790452E+02  0.17402318172E+02  0.14321400164E+03  0.12509000000E+03 0.  0.
         25    1    3    3    0    0 -0.54783455216E+02  0.74260671857E+02 -0.12507985084E+03  0.19952030357E+03  0.12509000000E+03 0.  0.
<mgrwt>
<rscale>  2 0.45523012E+03</rscale>
<asrwt>0</asrwt>
<pdfrwt beam="1">  1       21 0.24196669E-01 0.45523012E+03</pdfrwt>
<pdfrwt beam="2">  1       21 0.46305075E-01 0.45523012E+03</pdfrwt>
<totfact> 0.66621163E+04</totfact>
</mgrwt>
</event>
<event>
 7    0  0.4685107E-002  0.4658780E+03  0.7546771E-02  0.1023090E+00
         21   -1    0    0  502  501  0.00000000000E+00  0.00000000000E+00  0.28686310043E+03  0.28686310043E+03  0.00000000000E+00 0. -1.
         21   -1    0    0  501  502 -0.00000000000E+00 -0.00000000000E+00 -0.18915149133E+03  0.18915149133E+03  0.00000000000E+00 0. -1.
      99926    2    1    2    0    0  0.44408920985E-15  0.00000000000E+00  0.97711609100E+02  0.47601459176E+03  0.46587802375E+03 0.  0.
      99925    2    3    3    0    0  0.17219942792E+01 -0.10283062032E+03  0.12999797780E+03  0.31088730920E+03  0.26301015770E+03 0.  0.
         25    1    4    4    0    0  0.11517186819E+02 -0.86944826179E+02  0.47912444399E+02  0.16010983361E+03  0.12509000000E+03 0.  0.
         25    1    3    3    0    0 -0.17219942792E+01  0.10283062032E+03 -0.32286368696E+02  0.16512728255E+03  0.12509000000E+03 0.  0.
         25    1    4    4    0    0 -0.97951925399E+01 -0.15885794143E+02  0.82085533396E+02  0.15077747559E+03  0.12509000000E+03 0.  0.
<mgrwt>
<rscale>  2 0.46587802E+03</rscale>
<asrwt>0</asrwt>
<pdfrwt beam="1">  1       21 0.42185750E-01 0.46587802E+03</pdfrwt>
<pdfrwt beam="2">  1       21 0.27816396E-01 0.46587802E+03</pdfrwt>
<totfact> 0.61507301E+04</totfact>
</mgrwt>
</event>
<event>
 7    0  0.4685107E-002  0.4327972E+03  0.7546771E-02  0.1032980E+00
         21   -1    0    0  502  501  0.00000000000E+00  0.00000000000E+00  0.18017003097E+03  0.18017003097E+03  0.00000000000E+00 0.  1.
         21   -1    0    0  501  502 -0.00000000000E+00 -0.00000000000E+00 -0.25991203339E+03  0.25991203339E+03  0.00000000000E+00 0.  1.
      99926    2    1    2    0    0  0.00000000000E+00  0.00000000000E+00 -0.79742002427E+02  0.44008206436E+03  0.43279722321E+03 0.  0.
      99925    2    3    3    0    0 -0.24818085893E+02 -0.94770977690E+01 -0.13961004828E+03  0.29888205096E+03  0.26293299914E+03 0.  0.
         25    1    4    4    0    0  0.95359363875E+01 -0.69376926729E+01 -0.10716821495E+03  0.16514115192E+03  0.12509000000E+03 0.  0.
         25    1    3    3    0    0  0.24818085893E+02  0.94770977690E+01  0.59868045854E+02  0.14120001340E+03  0.12509000000E+03 0.  0.
         25    1    4    4    0    0 -0.34354022281E+02 -0.25394050961E+01 -0.32441833329E+02  0.13374089904E+03  0.12509000000E+03 0.  0.
<mgrwt>
<rscale>  2 0.43279722E+03</rscale>
<asrwt>0</asrwt>
<pdfrwt beam="1">  1       21 0.26495593E-01 0.43279722E+03</pdfrwt>
<pdfrwt beam="2">  1       21 0.38222358E-01 0.43279722E+03</pdfrwt>
<totfact> 0.83484110E+04</totfact>
</mgrwt>
</event>
<event>
 7    0  0.4685107E-002  0.4558655E+03  0.7546771E-02  0.1025987E+00
         21   -1    0    0  502  501  0.00000000000E+00  0.00000000000E+00  0.20115269000E+04  0.20115269000E+04  0.00000000000E+00 0. -1.
         21   -1    0    0  501  502 -0.00000000000E+00 -0.00000000000E+00 -0.25827808744E+02  0.25827808744E+02  0.00000000000E+00 0. -1.
      99926    2    1    2    0    0  0.00000000000E+00 -0.53290705182E-14  0.19856990912E+04  0.20373547087E+04  0.45586547163E+03 0.  0.
      99925    2    3    3    0    0 -0.56836802186E+02  0.10820658007E+02  0.80891424744E+03  0.85252662608E+03  0.26289138394E+03 0.  0.
         25    1    4    4    0    0 -0.37611760589E+02 -0.32973627718E+02  0.43267145954E+03  0.45316002103E+03  0.12509000000E+03 0.  0.
         25    1    4    4    0    0 -0.19225041597E+02  0.43794285725E+02  0.37624278790E+03  0.39936660505E+03  0.12509000000E+03 0.  0.
         25    1    3    3    0    0  0.56836802186E+02 -0.10820658007E+02  0.11767848438E+04  0.11848280826E+04  0.12509000000E+03 0.  0.
<mgrwt>
<rscale>  2 0.45586547E+03</rscale>
<asrwt>0</asrwt>
<pdfrwt beam="1">  1       21 0.29581267E+00 0.45586547E+03</pdfrwt>
<pdfrwt beam="2">  1       21 0.37982085E-02 0.45586547E+03</pdfrwt>
<totfact> 0.13021679E+04</totfact>
</mgrwt>
</event>
<event>
 7    0  0.4685107E-002  0.4492055E+03  0.7546771E-02  0.1027959E+00
         21   -1    0    0  502  501  0.00000000000E+00  0.00000000000E+00  0.15755910213E+03  0.15755910213E+03  0.00000000000E+00 0.  1.
         21   -1    0    0  501  502 -0.00000000000E+00 -0.00000000000E+00 -0.32017441563E+03  0.32017441563E+03  0.00000000000E+00 0.  1.
      99926    2    1    2    0    0  0.44408920985E-15 -0.14210854715E-13 -0.16261531350E+03  0.47773351777E+03  0.44920549175E+03 0.  0.
      99925    2    3    3    0    0 -0.20804696075E+01  0.96748983924E+02 -0.15315073190E+03  0.31929810301E+03  0.26292857901E+03 0.  0.
         25    1    3    3    0    0  0.20804696075E+01 -0.96748983924E+02 -0.94645816020E+01  0.15843541476E+03  0.12509000000E+03 0.  0.
         25    1    4    4    0    0 -0.26636743508E+02  0.37014825784E+02 -0.10805432294E+03  0.17147261658E+03  0.12509000000E+03 0.  0.
         25    1    4    4    0    0  0.24556273901E+02  0.59734158140E+02 -0.45096408963E+02  0.14782548643E+03  0.12509000000E+03 0.  0.
<mgrwt>
<rscale>  2 0.44920549E+03</rscale>
<asrwt>0</asrwt>
<pdfrwt beam="1">  1       21 0.23170456E-01 0.44920549E+03</pdfrwt>
<pdfrwt beam="2">  1       21 0.47084472E-01 0.44920549E+03</pdfrwt>
<totfact> 0.70031542E+04</totfact>
</mgrwt>
</event>
<event>
 7    0  0.4685107E-002  0.4621420E+03  0.7546771E-02  0.1024162E+00
         21   -1    0    0  502  501  0.00000000000E+00  0.00000000000E+00  0.54403149186E+03  0.54403149186E+03  0.00000000000E+00 0. -1.
         21   -1    0    0  501  502 -0.00000000000E+00 -0.00000000000E+00 -0.98144715254E+02  0.98144715254E+02  0.00000000000E+00 0. -1.
      99926    2    1    2    0    0 -0.35527136788E-14  0.00000000000E+00  0.44588677661E+03  0.64217620712E+03  0.46214203816E+03 0.  0.
      99925    2    3    3    0    0  0.29218556772E+02  0.23109222234E+02  0.12059069687E+03  0.29167255834E+03  0.26295057502E+03 0.  0.
         25    1    4    4    0    0  0.33150583796E+02  0.55643989518E+01  0.99983109447E+02  0.16362779109E+03  0.12509000000E+03 0.  0.
         25    1    4    4    0    0 -0.39320270239E+01  0.17544823282E+02  0.20607587420E+02  0.12804476725E+03  0.12509000000E+03 0.  0.
         25    1    3    3    0    0 -0.29218556772E+02 -0.23109222234E+02  0.32529607974E+03  0.35050364878E+03  0.12509000000E+03 0.  0.
<mgrwt>
<rscale>  2 0.46214204E+03</rscale>
<asrwt>0</asrwt>
<pdfrwt beam="1">  1       21 0.80004630E-01 0.46214204E+03</pdfrwt>
<pdfrwt beam="2">  1       21 0.14433047E-01 0.46214204E+03</pdfrwt>
<totfact> 0.53097950E+04</totfact>
</mgrwt>
</event>
<event>
 7    0  0.4685107E-002  0.4376607E+03  0.7546771E-02  0.1031467E+00
         21   -1    0    0  502  501  0.00000000000E+00  0.00000000000E+00  0.81282240266E+02  0.81282240266E+02  0.00000000000E+00 0. -1.
         21   -1    0    0  501  502 -0.00000000000E+00 -0.00000000000E+00 -0.58914125666E+03  0.58914125666E+03  0.00000000000E+00 0. -1.
      99926    2    1    2    0    0  0.00000000000E+00  0.71054273576E-14 -0.50785901639E+03  0.67042349692E+03  0.43766069586E+03 0.  0.
      99925    2    3    3    0    0  0.62313895961E+02  0.44062776252E+02 -0.41388564744E+03  0.49634577850E+03  0.26312212524E+03 0.  0.
         25    1    3    3    0    0 -0.62313895961E+02 -0.44062776252E+02 -0.93973368948E+02  0.17407771843E+03  0.12509000000E+03 0.  0.
         25    1    4    4    0    0  0.69658614640E+02  0.34717753052E+02 -0.20227740460E+03  0.25024248536E+03  0.12509000000E+03 0.  0.
         25    1    4    4    0    0 -0.73447186790E+01  0.93450232004E+01 -0.21160824285E+03  0.24610329314E+03  0.12509000000E+03 0.  0.
<mgrwt>
<rscale>  2 0.43766070E+03</rscale>
<asrwt>0</asrwt>
<pdfrwt beam="1">  1       21 0.11953271E-01 0.43766070E+03</pdfrwt>
<pdfrwt beam="2">  1       21 0.86638420E-01 0.43766070E+03</pdfrwt>
<totfact> 0.62669166E+04</totfact>
</mgrwt>
</event>
<event>
 7    0  0.4685107E-002  0.4612196E+03  0.7546771E-02  0.1024428E+00
         21   -1    0    0  502  501  0.00000000000E+00  0.00000000000E+00  0.26151586795E+03  0.26151586795E+03  0.00000000000E+00 0.  1.
         21   -1    0    0  501  502 -0.00000000000E+00 -0.00000000000E+00 -0.20335623419E+03  0.20335623419E+03  0.00000000000E+00 0.  1.
      99926    2    1    2    0    0 -0.35527136788E-14  0.00000000000E+00  0.58159633766E+02  0.46487210214E+03  0.46121960967E+03 0.  0.
      99925    2    3    3    0    0  0.28334623121E+02 -0.79582259250E+02  0.12118219014E+03  0.30130090184E+03  0.26260411914E+03 0.  0.
         25    1    3    3    0    0 -0.28334623121E+02  0.79582259250E+02 -0.63022556375E+02  0.16357120030E+03  0.12509000000E+03 0.  0.
         25    1    4    4    0    0  0.41113489885E+01 -0.66304430912E+01  0.80463180283E+02  0.14893856937E+03  0.12509000000E+03 0.  0.
         25    1    4    4    0    0  0.24223274133E+02 -0.72951816158E+02  0.40719009858E+02  0.15236233247E+03  0.12509000000E+03 0.  0.
<mgrwt>
<rscale>  2 0.46121961E+03</rscale>
<asrwt>0</asrwt>
<pdfrwt beam="1">  1       21 0.38458216E-01 0.46121961E+03</pdfrwt>
<pdfrwt beam="2">  1       21 0.29905328E-01 0.46121961E+03</pdfrwt>
<totfact> 0.64564552E+04</totfact>
</mgrwt>
</event>
<event>
 7    0  0.4685107E-002  0.4534646E+03  0.7546771E-02  0.1026694E+00
         21   -1    0    0  502  501  0.00000000000E+00  0.00000000000E+00  0.47553663921E+02  0.47553663921E+02  0.00000000000E+00 0. -1.
         21   -1    0    0  501  502 -0.00000000000E+00 -0.00000000000E+00 -0.10810425709E+04  0.10810425709E+04  0.00000000000E+00 0. -1.
      99926    2    1    2    0    0  0.12975731600E-14 -0.71054273576E-14 -0.10334889070E+04  0.11285962348E+04  0.45346459664E+03 0.  0.
      99925    2    3    3    0    0 -0.58748913820E-01 -0.62481522888E+02 -0.42156509694E+03  0.50090028809E+03  0.26321098665E+03 0.  0.
         25    1    4    4    0    0  0.19919404946E+02  0.50145624621E+01 -0.20791676076E+03  0.24351348224E+03  0.12509000000E+03 0.  0.
         25    1    4    4    0    0 -0.19978153860E+02 -0.67496085350E+02 -0.21364833618E+03  0.25738680585E+03  0.12509000000E+03 0.  0.
         25    1    3    3    0    0  0.58748913820E-01  0.62481522888E+02 -0.61192381005E+03  0.62769594674E+03  0.12509000000E+03 0.  0.
<mgrwt>
<rscale>  2 0.45346460E+03</rscale>
<asrwt>0</asrwt>
<pdfrwt beam="1">  1       21 0.69931857E-02 0.45346460E+03</pdfrwt>
<pdfrwt beam="2">  1       21 0.15897685E+00 0.45346460E+03</pdfrwt>
<totfact> 0.34921189E+04</totfact>
</mgrwt>
</event>
<event>
 7    0  0.4685107E-002  0.4575629E+03  0.7546771E-02  0.1025490E+00
         21   -1    0    0  502  501  0.00000000000E+00  0.00000000000E+00  0.73967711691E+02  0.73967711691E+02  0.00000000000E+00 0. -1.
         21   -1    0    0  501  502 -0.00000000000E+00 -0.00000000000E+00 -0.70761891036E+03  0.70761891036E+03  0.00000000000E+00 0. -1.
      99926    2    1    2    0    0 -0.13322676296E-14  0.00000000000E+00 -0.63365119867E+03  0.78158662205E+03  0.45756289862E+03 0.  0.
      99925    2    3    3    0    0 -0.33221873665E+01  0.50417357809E+02 -0.57532425296E+03  0.63460877476E+03  0.26301588178E+03 0.  0.
         25    1    4    4    0    0  0.20535166931E+02 -0.82608424905E+01 -0.29435404627E+03  0.32059592520E+03  0.12509000000E+03 0.  0.
         25    1    3    3    0    0  0.33221873665E+01 -0.50417357809E+02 -0.58326945712E+02  0.14697784729E+03  0.12509000000E+03 0.  0.
         25    1    4    4    0    0 -0.23857354297E+02  0.58678200300E+02 -0.28097020668E+03  0.31401284956E+03  0.12509000000E+03 0.  0.
<mgrwt>
<rscale>  2 0.45756290E+03</rscale>
<asrwt>0</asrwt>
<pdfrwt beam="1">  1       21 0.10877605E-01 0.45756290E+03</pdfrwt>
<pdfrwt beam="2">  1       21 0.10406160E+00 0.45756290E+03</pdfrwt>
<totfact> 0.47701538E+04</totfact>
</mgrwt>
</event>
<event>
 7    0  0.4685107E-002  0.4423189E+03  0.7546771E-02  0.1030038E+00
         21   -1    0    0  502  501  0.00000000000E+00  0.00000000000E+00  0.17510331253E+03  0.17510331253E+03  0.00000000000E+00 0.  1.
         21   -1    0    0  501  502 -0.00000000000E+00 -0.00000000000E+00 -0.27932935730E+03  0.27932935730E+03  0.00000000000E+00 0.  1.
      99926    2    1    2    0    0  0.00000000000E+00 -0.35527136788E-14 -0.10422604476E+03  0.45443266983E+03  0.44231887028E+03 0.  0.
      99925    2    3    3    0    0 -0.85017737917E+02  0.23349097034E+02 -0.11672593618E+03  0.30088478975E+03  0.26293253209E+03 0.  0.
         25    1    4    4    0    0 -0.80579152882E+02  0.30868421885E+01 -0.46422643890E+02  0.15590092508E+03  0.12509000000E+03 0.  0.
         25    1    4    4    0    0 -0.44385850353E+01  0.20262254846E+02 -0.70303292286E+02  0.14498386467E+03  0.12509000000E+03 0.  0.
         25    1    3    3    0    0  0.85017737917E+02 -0.23349097034E+02  0.12499891414E+02  0.15354788008E+03  0.12509000000E+03 0.  0.
<mgrwt>
<rscale>  2 0.44231887E+03</rscale>
<asrwt>0</asrwt>
<pdfrwt beam="1">  1       21 0.25750487E-01 0.44231887E+03</pdfrwt>
<pdfrwt beam="2">  1       21 0.41077847E-01 0.44231887E+03</pdfrwt>
<totfact> 0.75970108E+04</totfact>
</mgrwt>
</event>
<event>
 7    0  0.4685107E-002  0.4578287E+03  0.7546771E-02  0.1025413E+00
         21   -1    0    0  502  501  0.00000000000E+00  0.00000000000E+00  0.69988206069E+03  0.69988206069E+03  0.00000000000E+00 0. -1.
         21   -1    0    0  501  502 -0.00000000000E+00 -0.00000000000E+00 -0.74872296777E+02  0.74872296777E+02  0.00000000000E+00 0. -1.
      99926    2    1    2    0    0 -0.71054273576E-14  0.00000000000E+00  0.62500976391E+03  0.77475435746E+03  0.45782869004E+03 0.  0.
      99925    2    3    3    0    0 -0.50899920888E+02 -0.99836243244E+02  0.34264156086E+03  0.44621609849E+03  0.26295910313E+03 0.  0.
         25    1    4    4    0    0 -0.25436364542E+02 -0.52442770720E+02  0.23547265627E+03  0.27293246929E+03  0.12509000000E+03 0.  0.
         25    1    4    4    0    0 -0.25463556346E+02 -0.47393472524E+02  0.10716890459E+03  0.17328362920E+03  0.12509000000E+03 0.  0.
         25    1    3    3    0    0  0.50899920888E+02  0.99836243244E+02  0.28236820306E+03  0.32853825897E+03  0.12509000000E+03 0.  0.
<mgrwt>
<rscale>  2 0.45782869E+03</rscale>
<asrwt>0</asrwt>
<pdfrwt beam="1">  1       21 0.10292383E+00 0.45782869E+03</pdfrwt>
<pdfrwt beam="2">  1       21 0.11010632E-01 0.45782869E+03</pdfrwt>
<totfact> 0.47936873E+04</totfact>
</mgrwt>
</event>
<event>
 7    0  0.4685107E-002  0.4582253E+03  0.7546771E-02  0.1025297E+00
         21   -1    0    0  502  501  0.00000000000E+00  0.00000000000E+00  0.11875844846E+04  0.11875844846E+04  0.00000000000E+00 0. -1.
         21   -1    0    0  501  502 -0.00000000000E+00 -0.00000000000E+00 -0.44201156073E+02  0.44201156073E+02  0.00000000000E+00 0. -1.
      99926    2    1    2    0    0 -0.35527136788E-14  0.00000000000E+00  0.11433833286E+04  0.12317856407E+04  0.45822530334E+03 0.  0.
      99925    2    3    3    0    0  0.23838263194E+02 -0.11074383431E+03  0.64812311748E+03  0.70856231897E+03  0.26299149192E+03 0.  0.
         25    1    3    3    0    0 -0.23838263194E+02  0.11074383431E+03  0.49526021108E+03  0.52322332174E+03  0.12509000000E+03 0.  0.
         25    1    4    4    0    0  0.41110577694E+02 -0.85353874417E+02  0.37918665794E+03  0.41037226165E+03  0.12509000000E+03 0.  0.
         25    1    4    4    0    0 -0.17272314500E+02 -0.25389959893E+02  0.26893645954E+03  0.29819005731E+03  0.12509000000E+03 0.  0.
<mgrwt>
<rscale>  2 0.45822530E+03</rscale>
<asrwt>0</asrwt>
<pdfrwt beam="1">  1       21 0.17464476E+00 0.45822530E+03</pdfrwt>
<pdfrwt beam="2">  1       21 0.65001707E-02 0.45822530E+03</pdfrwt>
<totfact> 0.30391538E+04</totfact>
</mgrwt>
</event>
<event>
 7    0  0.4685107E-002  0.4150872E+03  0.7546771E-02  0.1038677E+00
         21   -1    0    0  502  501  0.00000000000E+00  0.00000000000E+00  0.13927601013E+03  0.13927601013E+03  0.00000000000E+00 0. -1.
         21   -1    0    0  501  502 -0.00000000000E+00 -0.00000000000E+00 -0.30927322339E+03  0.30927322339E+03  0.00000000000E+00 0. -1.
      99926    2    1    2    0    0  0.00000000000E+00 -0.71054273576E-14 -0.16999721326E+03  0.44854923352E+03  0.41508717443E+03 0.  0.
      99925    2    3    3    0    0  0.55531341679E+02 -0.38386982673E+02 -0.12837875638E+03  0.30043814548E+03  0.26310584148E+03 0.  0.
         25    1    3    3    0    0 -0.55531341679E+02  0.38386982673E+02 -0.41618456887E+02  0.14811108804E+03  0.12509000000E+03 0.  0.
         25    1    4    4    0    0  0.14078572294E+02 -0.44482444297E+02 -0.96467343629E+02  0.16471293372E+03  0.12509000000E+03 0.  0.
         25    1    4    4    0    0  0.41452769385E+02  0.60954616247E+01 -0.31911412746E+02  0.13572521175E+03  0.12509000000E+03 0.  0.
<mgrwt>
<rscale>  2 0.41508717E+03</rscale>
<asrwt>0</asrwt>
<pdfrwt beam="1">  1       21 0.20481767E-01 0.41508717E+03</pdfrwt>
<pdfrwt beam="2">  1       21 0.45481356E-01 0.41508717E+03</pdfrwt>
<totfact> 0.96075182E+04</totfact>
</mgrwt>
</event>
<event>
 7    0  0.4685107E-002  0.4577611E+03  0.7546771E-02  0.1025433E+00
         21   -1    0    0  502  501  0.00000000000E+00  0.00000000000E+00  0.47139638922E+03  0.47139638922E+03  0.00000000000E+00 0. -1.
         21   -1    0    0  501  502 -0.00000000000E+00 -0.00000000000E+00 -0.11113003118E+03  0.11113003118E+03  0.00000000000E+00 0. -1.
      99926    2    1    2    0    0  0.00000000000E+00 -0.14210854715E-13  0.36026635805E+03  0.58252642040E+03  0.45776105309E+03 0.  0.
      99925    2    3    3    0    0  0.42753420510E+02 -0.10700276463E+03  0.23993492551E+03  0.37418869371E+03  0.26300373271E+03 0.  0.
         25    1    4    4    0    0  0.15225884094E+02 -0.14734539234E+02  0.13117861155E+03  0.18249457641E+03  0.12509000000E+03 0.  0.
         25    1    4    4    0    0  0.27527536416E+02 -0.92268225401E+02  0.10875631396E+03  0.19169411730E+03  0.12509000000E+03 0.  0.
         25    1    3    3    0    0 -0.42753420510E+02  0.10700276463E+03  0.12033143254E+03  0.20833772669E+03  0.12509000000E+03 0.  0.
<mgrwt>
<rscale>  2 0.45776105E+03</rscale>
<asrwt>0</asrwt>
<pdfrwt beam="1">  1       21 0.69322998E-01 0.45776105E+03</pdfrwt>
<pdfrwt beam="2">  1       21 0.16342652E-01 0.45776105E+03</pdfrwt>
<totfact> 0.58479990E+04</totfact>
</mgrwt>
</event>
<event>
 7    0  0.4685107E-002  0.4554491E+03  0.7546771E-02  0.1026109E+00
         21   -1    0    0  502  501  0.00000000000E+00  0.00000000000E+00  0.22501653790E+02  0.22501653790E+02  0.00000000000E+00 0.  1.
         21   -1    0    0  501  502 -0.00000000000E+00 -0.00000000000E+00 -0.23046519694E+04  0.23046519694E+04  0.00000000000E+00 0.  1.
      99926    2    1    2    0    0  0.00000000000E+00  0.00000000000E+00 -0.22821503156E+04  0.23271536232E+04  0.45544914413E+03 0.  0.
      99925    2    3    3    0    0 -0.66008915210E+02 -0.43493918694E+02 -0.18517165749E+04  0.18719947376E+04  0.26317508650E+03 0.  0.
         25    1    4    4    0    0 -0.72938774660E+02 -0.36399314887E+02 -0.10028759426E+04  0.10139293068E+04  0.12509000000E+03 0.  0.
         25    1    4    4    0    0  0.69298594495E+01 -0.70946038074E+01 -0.84884063230E+03  0.85806543078E+03  0.12509000000E+03 0.  0.
         25    1    3    3    0    0  0.66008915210E+02  0.43493918694E+02 -0.43043374073E+03  0.45515888556E+03  0.12509000000E+03 0.  0.
<mgrwt>
<rscale>  2 0.45544914E+03</rscale>
<asrwt>0</asrwt>
<pdfrwt beam="1">  1       21 0.33090657E-02 0.45544914E+03</pdfrwt>
<pdfrwt beam="2">  1       21 0.33891951E+00 0.45544914E+03</pdfrwt>
<totfact> 0.90346265E+03</totfact>
</mgrwt>
</event>
<event>
 7    0  0.4685107E-002  0.4425982E+03  0.7546771E-02  0.1029953E+00
         21   -1    0    0  502  501  0.00000000000E+00  0.00000000000E+00  0.27780433411E+03  0.27780433411E+03  0.00000000000E+00 0. -1.
         21   -1    0    0  501  502 -0.00000000000E+00 -0.00000000000E+00 -0.17628702495E+03  0.17628702495E+03  0.00000000000E+00 0. -1.
      99926    2    1    2    0    0  0.00000000000E+00  0.00000000000E+00  0.10151730916E+03  0.45409135906E+03  0.44259823578E+03 0.  0.
      99925    2    3    3    0    0 -0.63826579936E+02  0.65461524149E+02  0.10888831174E+03  0.29897564990E+03  0.26300329151E+03 0.  0.
         25    1    4    4    0    0 -0.67300633164E+02  0.13075029432E+02  0.51160047573E+02  0.15154270087E+03  0.12509000000E+03 0.  0.
         25    1    3    3    0    0  0.63826579936E+02 -0.65461524149E+02 -0.73710025845E+01  0.15511570916E+03  0.12509000000E+03 0.  0.
         25    1    4    4    0    0  0.34740532285E+01  0.52386494717E+02  0.57728264171E+02  0.14743294903E+03  0.12509000000E+03 0.  0.
<mgrwt>
<rscale>  2 0.44259824E+03</rscale>
<asrwt>0</asrwt>
<pdfrwt beam="1">  1       21 0.40853578E-01 0.44259824E+03</pdfrwt>
<pdfrwt beam="2">  1       21 0.25924563E-01 0.44259824E+03</pdfrwt>
<totfact> 0.75826560E+04</totfact>
</mgrwt>
</event>
<event>
 7    0  0.4685107E-002  0.4589897E+03  0.7546771E-02  0.1025075E+00
         21   -1    0    0  502  501  0.00000000000E+00  0.00000000000E+00  0.18711853489E+03  0.18711853489E+03  0.00000000000E+00 0.  1.
         21   -1    0    0  501  502 -0.00000000000E+00 -0.00000000000E+00 -0.28146804028E+03  0.28146804028E+03  0.00000000000E+00 0.  1.
      99926    2    1    2    0    0  0.14210854715E-13  0.00000000000E+00 -0.94349505381E+02  0.46858657517E+03  0.45898970496E+03 0.  0.
      99925    2    3    3    0    0 -0.93047590162E+02 -0.50326194711E+02 -0.84436448646E+01  0.28360575216E+03  0.26300256199E+03 0.  0.
         25    1    4    4    0    0 -0.13275324352E+02 -0.47247011581E+02  0.60316587903E+01  0.13450800477E+03  0.12509000000E+03 0.  0.
         25    1    4    4    0    0 -0.79772265810E+02 -0.30791831300E+01 -0.14475303655E+02  0.14909774739E+03  0.12509000000E+03 0.  0.
         25    1    3    3    0    0  0.93047590162E+02  0.50326194711E+02 -0.85905860516E+02  0.18498082301E+03  0.12509000000E+03 0.  0.
<mgrwt>
<rscale>  2 0.45898970E+03</rscale>
<asrwt>0</asrwt>
<pdfrwt beam="1">  1       21 0.27517432E-01 0.45898970E+03</pdfrwt>
<pdfrwt beam="2">  1       21 0.41392358E-01 0.45898970E+03</pdfrwt>
<totfact> 0.65444552E+04</totfact>
</mgrwt>
</event>
<event>
 7    0  0.4685107E-002  0.4555639E+03  0.7546771E-02  0.1026076E+00
         21   -1    0    0  502  501  0.00000000000E+00  0.00000000000E+00  0.16323885447E+03  0.16323885447E+03  0.00000000000E+00 0. -1.
         21   -1    0    0  501  502 -0.00000000000E+00 -0.00000000000E+00 -0.31784476377E+03  0.31784476377E+03  0.00000000000E+00 0. -1.
      99926    2    1    2    0    0 -0.71054273576E-14  0.00000000000E+00 -0.15460590930E+03  0.48108361824E+03  0.45556389294E+03 0.  0.
      99925    2    3    3    0    0  0.60124717969E+02  0.56229687536E+02 -0.18010593216E+03  0.32918062704E+03  0.26295432863E+03 0.  0.
         25    1    3    3    0    0 -0.60124717969E+02 -0.56229687536E+02  0.25500022862E+02  0.15190299121E+03  0.12509000000E+03 0.  0.
         25    1    4    4    0    0  0.54511988323E+02  0.49098314540E+02 -0.64886352597E+02  0.15887085389E+03  0.12509000000E+03 0.  0.
         25    1    4    4    0    0  0.56127296452E+01  0.71313729955E+01 -0.11521957956E+03  0.17030977315E+03  0.12509000000E+03 0.  0.
<mgrwt>
<rscale>  2 0.45556389E+03</rscale>
<asrwt>0</asrwt>
<pdfrwt beam="1">  1       21 0.24005714E-01 0.45556389E+03</pdfrwt>
<pdfrwt beam="2">  1       21 0.46741876E-01 0.45556389E+03</pdfrwt>
<totfact> 0.66323942E+04</totfact>
</mgrwt>
</event>
<event>
 7    0  0.4685107E-002  0.4262377E+03  0.7546771E-02  0.1035055E+00
         21   -1    0    0  502  501  0.00000000000E+00  0.00000000000E+00  0.55857080601E+03  0.55857080601E+03  0.00000000000E+00 0.  1.
         21   -1    0    0  501  502 -0.00000000000E+00 -0.00000000000E+00 -0.81314046705E+02  0.81314046705E+02  0.00000000000E+00 0.  1.
      99926    2    1    2    0    0  0.00000000000E+00  0.00000000000E+00  0.47725675931E+03  0.63988485272E+03  0.42623773933E+03 0.  0.
      99925    2    3    3    0    0 -0.61127291502E+02 -0.47514691844E+02  0.25948448123E+03  0.37707985865E+03  0.26241728619E+03 0.  0.
         25    1    4    4    0    0 -0.49723408341E+02 -0.23371344182E+02  0.18185197044E+03  0.22745611515E+03  0.12509000000E+03 0.  0.
         25    1    4    4    0    0 -0.11403883160E+02 -0.24143347662E+02  0.77632510785E+02  0.14962374350E+03  0.12509000000E+03 0.  0.
         25    1    3    3    0    0  0.61127291502E+02  0.47514691844E+02  0.21777227808E+03  0.26280499407E+03  0.12509000000E+03 0.  0.
<mgrwt>
<rscale>  2 0.42623774E+03</rscale>
<asrwt>0</asrwt>
<pdfrwt beam="1">  1       21 0.82142764E-01 0.42623774E+03</pdfrwt>
<pdfrwt beam="2">  1       21 0.11957948E-01 0.42623774E+03</pdfrwt>
<totfact> 0.71094342E+04</totfact>
</mgrwt>
</event>
<event>
 7    0  0.4685107E-002  0.4401859E+03  0.7546771E-02  0.1030690E+00
         21   -1    0    0  502  501  0.00000000000E+00  0.00000000000E+00  0.40652236840E+03  0.40652236840E+03  0.00000000000E+00 0. -1.
         21   -1    0    0  501  502 -0.00000000000E+00 -0.00000000000E+00 -0.11915925290E+03  0.11915925290E+03  0.00000000000E+00 0. -1.
      99926    2    1    2    0    0  0.00000000000E+00  0.00000000000E+00  0.28736311550E+03  0.52568162130E+03  0.44018587758E+03 0.  0.
      99925    2    3    3    0    0  0.44518067946E+02 -0.69365599750E+02  0.24789181407E+03  0.37076571979E+03  0.26310344484E+03 0.  0.
         25    1    4    4    0    0  0.17151912719E+02 -0.39556111270E+02  0.17824287157E+03  0.22198401612E+03  0.12509000000E+03 0.  0.
         25    1    3    3    0    0 -0.44518067946E+02  0.69365599750E+02  0.39471301426E+02  0.15491590150E+03  0.12509000000E+03 0.  0.
         25    1    4    4    0    0  0.27366155227E+02 -0.29809488480E+02  0.69648942500E+02  0.14878170367E+03  0.12509000000E+03 0.  0.
<mgrwt>
<rscale>  2 0.44018588E+03</rscale>
<asrwt>0</asrwt>
<pdfrwt beam="1">  1       21 0.59782701E-01 0.44018588E+03</pdfrwt>
<pdfrwt beam="2">  1       21 0.17523420E-01 0.44018588E+03</pdfrwt>
<totfact> 0.71529638E+04</totfact>
</mgrwt>
</event>
<event>
 7    0  0.4685107E-002  0.4486830E+03  0.7546771E-02  0.1028116E+00
         21   -1    0    0  502  501  0.00000000000E+00  0.00000000000E+00  0.29865288964E+03  0.29865288964E+03  0.00000000000E+00 0. -1.
         21   -1    0    0  501  502 -0.00000000000E+00 -0.00000000000E+00 -0.16852041874E+03  0.16852041874E+03  0.00000000000E+00 0. -1.
      99926    2    1    2    0    0 -0.14210854715E-13  0.00000000000E+00  0.13013247090E+03  0.46717330839E+03  0.44868300624E+03 0.  0.
      99925    2    3    3    0    0  0.87148475065E+02 -0.23648121457E+02  0.22572555063E+02  0.27910222090E+03  0.26312437955E+03 0.  0.
         25    1    4    4    0    0  0.41396634132E+02 -0.21324093837E+02  0.51000810432E+02  0.14288802980E+03  0.12509000000E+03 0.  0.
         25    1    4    4    0    0  0.45751840934E+02 -0.23240276198E+01 -0.28428255369E+02  0.13621419110E+03  0.12509000000E+03 0.  0.
         25    1    3    3    0    0 -0.87148475065E+02  0.23648121457E+02  0.10755991583E+03  0.18807108749E+03  0.12509000000E+03 0.  0.
<mgrwt>
<rscale>  2 0.44868301E+03</rscale>
<asrwt>0</asrwt>
<pdfrwt beam="1">  1       21 0.43919543E-01 0.44868301E+03</pdfrwt>
<pdfrwt beam="2">  1       21 0.24782415E-01 0.44868301E+03</pdfrwt>
<totfact> 0.71145845E+04</totfact>
</mgrwt>
</event>
<event>
 7    0  0.4685107E-002  0.4514118E+03  0.7546771E-02  0.1027302E+00
         21   -1    0    0  502  501  0.00000000000E+00  0.00000000000E+00  0.24778471755E+03  0.24778471755E+03  0.00000000000E+00 0. -1.
         21   -1    0    0  501  502 -0.00000000000E+00 -0.00000000000E+00 -0.20559439727E+03  0.20559439727E+03  0.00000000000E+00 0. -1.
      99926    2    1    2    0    0  0.00000000000E+00  0.00000000000E+00  0.42190320280E+02  0.45337911482E+03  0.45141178388E+03 0.  0.
      99925    2    3    3    0    0 -0.42166808738E+02 -0.99173204566E+02 -0.68794603965E+00  0.28279359935E+03  0.26145435989E+03 0.  0.
         25    1    3    3    0    0  0.42166808738E+02  0.99173204566E+02  0.42878266319E+02  0.17058551546E+03  0.12509000000E+03 0.  0.
         25    1    4    4    0    0 -0.54115381359E+02 -0.61074862528E+02  0.16930925135E+02  0.15030894071E+03  0.12509000000E+03 0.  0.
         25    1    4    4    0    0  0.11948572621E+02 -0.38098342038E+02 -0.17618871174E+02  0.13248465864E+03  0.12509000000E+03 0.  0.
<mgrwt>
<rscale>  2 0.45141178E+03</rscale>
<asrwt>0</asrwt>
<pdfrwt beam="1">  1       21 0.36438929E-01 0.45141178E+03</pdfrwt>
<pdfrwt beam="2">  1       21 0.30234470E-01 0.45141178E+03</pdfrwt>
<totfact> 0.70666246E+04</totfact>
</mgrwt>
</event>
<event>
 7    0  0.4685107E-002  0.4548292E+03  0.7546771E-02  0.1026292E+00
         21   -1    0    0  502  501  0.00000000000E+00  0.00000000000E+00  0.38388173621E+03  0.38388173621E+03  0.00000000000E+00 0.  1.
         21   -1    0    0  501  502 -0.00000000000E+00 -0.00000000000E+00 -0.13472223638E+03  0.13472223638E+03  0.00000000000E+00 0.  1.
      99926    2    1    2    0    0  0.00000000000E+00  0.00000000000E+00  0.24915949983E+03  0.51860397258E+03  0.45482922512E+03 0.  0.
      99925    2    3    3    0    0  0.18013458842E+02  0.10040470510E+03  0.10158326063E+03  0.29989904812E+03  0.26308685014E+03 0.  0.
         25    1    3    3    0    0 -0.18013458842E+02 -0.10040470510E+03  0.14757623920E+03  0.21870492446E+03  0.12509000000E+03 0.  0.
         25    1    4    4    0    0 -0.99078056674E+01  0.87393906740E+02  0.63341961169E+02  0.16551607684E+03  0.12509000000E+03 0.  0.
         25    1    4    4    0    0  0.27921264509E+02  0.13010798365E+02  0.38241299458E+02  0.13438297128E+03  0.12509000000E+03 0.  0.
<mgrwt>
<rscale>  2 0.45482923E+03</rscale>
<asrwt>0</asrwt>
<pdfrwt beam="1">  1       21 0.56453196E-01 0.45482923E+03</pdfrwt>
<pdfrwt beam="2">  1       21 0.19812094E-01 0.45482923E+03</pdfrwt>
<totfact> 0.64069251E+04</totfact>
</mgrwt>
</event>
<event>
 7    0  0.4685107E-002  0.4579878E+03  0.7546771E-02  0.1025366E+00
         21   -1    0    0  502  501  0.00000000000E+00  0.00000000000E+00  0.14473710672E+03  0.14473710672E+03  0.00000000000E+00 0.  1.
         21   -1    0    0  501  502 -0.00000000000E+00 -0.00000000000E+00 -0.36229970297E+03  0.36229970297E+03  0.00000000000E+00 0.  1.
      99926    2    1    2    0    0  0.00000000000E+00  0.00000000000E+00 -0.21756259625E+03  0.50703680969E+03  0.45798781981E+03 0.  0.
      99925    2    3    3    0    0 -0.10302767048E+03  0.51966048229E+02 -0.14259482638E+03  0.32107217414E+03  0.26351259068E+03 0.  0.
         25    1    4    4    0    0 -0.35218189043E+02  0.63086683864E+02 -0.81113774279E+02  0.16567197409E+03  0.12509000000E+03 0.  0.
         25    1    3    3    0    0  0.10302767048E+03 -0.51966048229E+02 -0.74967769868E+02  0.18596463554E+03  0.12509000000E+03 0.  0.
         25    1    4    4    0    0 -0.67809481440E+02 -0.11120635634E+02 -0.61481052097E+02  0.15540020005E+03  0.12509000000E+03 0.  0.
<mgrwt>
<rscale>  2 0.45798782E+03</rscale>
<asrwt>0</asrwt>
<pdfrwt beam="1">  1       21 0.21284868E-01 0.45798782E+03</pdfrwt>
<pdfrwt beam="2">  1       21 0.53279369E-01 0.45798782E+03</pdfrwt>
<totfact> 0.63265374E+04</totfact>
</mgrwt>
</event>
<event>
 7    0  0.4685107E-002  0.4554737E+03  0.7546771E-02  0.1026102E+00
         21   -1    0    0  502  501  0.00000000000E+00  0.00000000000E+00  0.18010928687E+03  0.18010928687E+03  0.00000000000E+00 0.  1.
         21   -1    0    0  501  502 -0.00000000000E+00 -0.00000000000E+00 -0.28795890728E+03  0.28795890728E+03  0.00000000000E+00 0.  1.
      99926    2    1    2    0    0  0.00000000000E+00 -0.35527136788E-14 -0.10784962040E+03  0.46806819415E+03  0.45547370259E+03 0.  0.
      99925    2    3    3    0    0 -0.88155897408E+02 -0.80149901737E+01 -0.14128605844E+03  0.31122047882E+03  0.26279409014E+03 0.  0.
         25    1    4    4    0    0 -0.27152551055E+02  0.32625183193E+02 -0.61141568248E+02  0.14555913944E+03  0.12509000000E+03 0.  0.
         25    1    3    3    0    0  0.88155897408E+02  0.80149901737E+01  0.33436438031E+02  0.15684771533E+03  0.12509000000E+03 0.  0.
         25    1    4    4    0    0 -0.61003346354E+02 -0.40640173367E+02 -0.80144490187E+02  0.16566133938E+03  0.12509000000E+03 0.  0.
<mgrwt>
<rscale>  2 0.45547370E+03</rscale>
<asrwt>0</asrwt>
<pdfrwt beam="1">  1       21 0.26486660E-01 0.45547370E+03</pdfrwt>
<pdfrwt beam="2">  1       21 0.42346897E-01 0.45547370E+03</pdfrwt>
<totfact> 0.67326483E+04</totfact>
</mgrwt>
</event>
<event>
 7    0  0.4685107E-002  0.4604429E+03  0.7546771E-02  0.1024653E+00
         21   -1    0    0  502  501  0.00000000000E+00  0.00000000000E+00  0.63433393831E+03  0.63433393831E+03  0.00000000000E+00 0. -1.
         21   -1    0    0  501  502 -0.00000000000E+00 -0.00000000000E+00 -0.83555238132E+02  0.83555238132E+02  0.00000000000E+00 0. -1.
      99926    2    1    2    0    0  0.00000000000E+00  0.00000000000E+00  0.55077870018E+03  0.71788917644E+03  0.46044293141E+03 0.  0.
      99925    2    3    3    0    0  0.16842022034E+02 -0.19201770464E+02  0.52487415048E+03  0.58761671009E+03  0.26296038187E+03 0.  0.
         25    1    3    3    0    0 -0.16842022034E+02  0.19201770464E+02  0.25904549692E+02  0.13027246635E+03  0.12509000000E+03 0.  0.
         25    1    4    4    0    0  0.94152403575E+01  0.20211100693E+02  0.19717661209E+03  0.23457037280E+03  0.12509000000E+03 0.  0.
         25    1    4    4    0    0  0.74267816767E+01 -0.39412871157E+02  0.32769753840E+03  0.35304633729E+03  0.12509000000E+03 0.  0.
<mgrwt>
<rscale>  2 0.46044293E+03</rscale>
<asrwt>0</asrwt>
<pdfrwt beam="1">  1       21 0.93284400E-01 0.46044293E+03</pdfrwt>
<pdfrwt beam="2">  1       21 0.12287535E-01 0.46044293E+03</pdfrwt>
<totfact> 0.49776802E+04</totfact>
</mgrwt>
</event>
<event>
 7    0  0.4685107E-002  0.4541136E+03  0.7546771E-02  0.1026502E+00
         21   -1    0    0  502  501  0.00000000000E+00  0.00000000000E+00  0.20306406414E+03  0.20306406414E+03  0.00000000000E+00 0.  1.
         21   -1    0    0  501  502 -0.00000000000E+00 -0.00000000000E+00 -0.25388436710E+03  0.25388436710E+03  0.00000000000E+00 0.  1.
      99926    2    1    2    0    0  0.00000000000E+00 -0.71054273576E-14 -0.50820302957E+02  0.45694843124E+03  0.45411360431E+03 0.  0.
      99925    2    3    3    0    0  0.10238945814E+03 -0.46180395797E+02 -0.28735170219E+02  0.28738578417E+03  0.26296130674E+03 0.  0.
         25    1    4    4    0    0  0.72467414402E+02  0.18381522824E+01  0.94468093153E+01  0.14488497251E+03  0.12509000000E+03 0.  0.
         25    1    4    4    0    0  0.29922043740E+02 -0.48018548080E+02 -0.38181979534E+02  0.14250081166E+03  0.12509000000E+03 0.  0.
         25    1    3    3    0    0 -0.10238945814E+03  0.46180395797E+02 -0.22085132738E+02  0.16956264707E+03  0.12509000000E+03 0.  0.
<mgrwt>
<rscale>  2 0.45411360E+03</rscale>
<asrwt>0</asrwt>
<pdfrwt beam="1">  1       21 0.29862362E-01 0.45411360E+03</pdfrwt>
<pdfrwt beam="2">  1       21 0.37335936E-01 0.45411360E+03</pdfrwt>
<totfact> 0.68889124E+04</totfact>
</mgrwt>
</event>
<event>
 7    0  0.4685107E-002  0.4472191E+03  0.7546771E-02  0.1028555E+00
         21   -1    0    0  502  501  0.00000000000E+00  0.00000000000E+00  0.48623268211E+03  0.48623268211E+03  0.00000000000E+00 0.  1.
         21   -1    0    0  501  502 -0.00000000000E+00 -0.00000000000E+00 -0.10283396699E+03  0.10283396699E+03  0.00000000000E+00 0.  1.
      99926    2    1    2    0    0  0.00000000000E+00  0.00000000000E+00  0.38339871512E+03  0.58906664909E+03  0.44721912114E+03 0.  0.
      99925    2    3    3    0    0 -0.89590175864E+02 -0.32753189545E+02  0.30300120859E+03  0.41240188692E+03  0.26299508150E+03 0.  0.
         25    1    4    4    0    0 -0.13939867875E+02 -0.33981487114E+02  0.17406726161E+03  0.21747639193E+03  0.12509000000E+03 0.  0.
         25    1    4    4    0    0 -0.75650307989E+02  0.12282975687E+01  0.12893394698E+03  0.19492549499E+03  0.12509000000E+03 0.  0.
         25    1    3    3    0    0  0.89590175864E+02  0.32753189545E+02  0.80397506533E+02  0.17666476217E+03  0.12509000000E+03 0.  0.
<mgrwt>
<rscale>  2 0.44721912E+03</rscale>
<asrwt>0</asrwt>
<pdfrwt beam="1">  1       21 0.71504805E-01 0.44721912E+03</pdfrwt>
<pdfrwt beam="2">  1       21 0.15122642E-01 0.44721912E+03</pdfrwt>
<totfact> 0.63151209E+04</totfact>
</mgrwt>
</event>
<event>
 7    0  0.4685107E-002  0.4554664E+03  0.7546771E-02  0.1026104E+00
         21   -1    0    0  502  501  0.00000000000E+00  0.00000000000E+00  0.43711634298E+02  0.43711634298E+02  0.00000000000E+00 0. -1.
         21   -1    0    0  501  502 -0.00000000000E+00 -0.00000000000E+00 -0.11864670136E+04  0.11864670136E+04  0.00000000000E+00 0. -1.
      99926    2    1    2    0    0  0.00000000000E+00  0.35527136788E-14 -0.11427553793E+04  0.12301786479E+04  0.45546640801E+03 0.  0.
      99925    2    3    3    0    0 -0.69384354157E+02 -0.49078136585E+01 -0.96142609874E+03  0.99916762799E+03  0.26297819346E+03 0.  0.
         25    1    4    4    0    0 -0.28733655905E+02  0.36530326854E+02 -0.50799908236E+03  0.52523391317E+03  0.12509000000E+03 0.  0.
         25    1    4    4    0    0 -0.40650698251E+02 -0.41438140512E+02 -0.45342701638E+03  0.47393371482E+03  0.12509000000E+03 0.  0.
         25    1    3    3    0    0  0.69384354157E+02  0.49078136585E+01 -0.18132928060E+03  0.23101101996E+03  0.12509000000E+03 0.  0.
<mgrwt>
<rscale>  2 0.45546641E+03</rscale>
<asrwt>0</asrwt>
<pdfrwt beam="1">  1       21 0.64281819E-02 0.45546641E+03</pdfrwt>
<pdfrwt beam="2">  1       21 0.17448043E+00 0.45546641E+03</pdfrwt>
<totfact> 0.31098690E+04</totfact>
</mgrwt>
</event>
<event>
 7    0  0.4685107E-002  0.4440081E+03  0.7546771E-02  0.1029524E+00
         21   -1    0    0  502  501  0.00000000000E+00  0.00000000000E+00  0.39237843350E+03  0.39237843350E+03  0.00000000000E+00 0. -1.
         21   -1    0    0  501  502 -0.00000000000E+00 -0.00000000000E+00 -0.12560780488E+03  0.12560780488E+03  0.00000000000E+00 0. -1.
      99926    2    1    2    0    0  0.35527136788E-14  0.71054273576E-14  0.26677062862E+03  0.51798623838E+03  0.44400807972E+03 0.  0.
      99925    2    3    3    0    0 -0.29459931858E+02 -0.54723186043E+02  0.26461626056E+03  0.37829134199E+03  0.26309705319E+03 0.  0.
         25    1    3    3    0    0  0.29459931858E+02  0.54723186043E+02  0.21543680600E+01  0.13969489639E+03  0.12509000000E+03 0.  0.
         25    1    4    4    0    0 -0.43507715639E+01 -0.57864594577E+02  0.17277743274E+03  0.22105834045E+03  0.12509000000E+03 0.  0.
         25    1    4    4    0    0 -0.25109160294E+02  0.31414085339E+01  0.91838827821E+02  0.15723300154E+03  0.12509000000E+03 0.  0.
<mgrwt>
<rscale>  2 0.44400808E+03</rscale>
<asrwt>0</asrwt>
<pdfrwt beam="1">  1       21 0.57702711E-01 0.44400808E+03</pdfrwt>
<pdfrwt beam="2">  1       21 0.18471736E-01 0.44400808E+03</pdfrwt>
<totfact> 0.69922867E+04</totfact>
</mgrwt>
</event>
<event>
 7    0  0.4685107E-002  0.4277821E+03  0.7546771E-02  0.1034563E+00
         21   -1    0    0  502  501  0.00000000000E+00  0.00000000000E+00  0.10772789204E+03  0.10772789204E+03  0.00000000000E+00 0.  1.
         21   -1    0    0  501  502 -0.00000000000E+00 -0.00000000000E+00 -0.42467530912E+03  0.42467530912E+03  0.00000000000E+00 0.  1.
      99926    2    1    2    0    0  0.00000000000E+00  0.26645352591E-14 -0.31694741708E+03  0.53240320116E+03  0.42778207468E+03 0.  0.
      99925    2    3    3    0    0 -0.81492535105E+02  0.57287987106E+01 -0.23488724541E+03  0.36194724707E+03  0.26298277356E+03 0.  0.
         25    1    4    4    0    0 -0.38928176791E+02  0.42150130594E+02 -0.10481179251E+03  0.17298860195E+03  0.12509000000E+03 0.  0.
         25    1    3    3    0    0  0.81492535105E+02 -0.57287987106E+01 -0.82060171664E+02  0.17045595409E+03  0.12509000000E+03 0.  0.
         25    1    4    4    0    0 -0.42564358314E+02 -0.36421331884E+02 -0.13007545291E+03  0.18895864512E+03  0.12509000000E+03 0.  0.
<mgrwt>
<rscale>  2 0.42778207E+03</rscale>
<asrwt>0</asrwt>
<pdfrwt beam="1">  1       21 0.15842337E-01 0.42778207E+03</pdfrwt>
<pdfrwt beam="2">  1       21 0.62452250E-01 0.42778207E+03</pdfrwt>
<totfact> 0.78672576E+04</totfact>
</mgrwt>
</event>
<event>
 6    0  0.4685107E-002  0.4569066E+03  0.7546771E-02  0.1025682E+00
         21   -1    0    0  502  501  0.00000000000E+00  0.00000000000E+00  0.35190240099E+03  0.35190240099E+03  0.00000000000E+00 0.  1.
         21   -1    0    0  501  502 -0.00000000000E+00 -0.00000000000E+00 -0.14831073479E+03  0.14831073479E+03  0.00000000000E+00 0.  1.
      99926    2    1    2    0    0  0.35527136788E-14  0.00000000000E+00  0.20359166620E+03  0.50021313578E+03  0.45690657104E+03 0.  0.
         25    1    3    3    0    0  0.15392958449E+02 -0.36461793963E+02  0.14955975791E+03  0.19895234322E+03  0.12509000000E+03 0.  0.
         25    1    3    3    0    0  0.21930593906E+02  0.79879779138E+02 -0.82308435640E+01  0.15025639737E+03  0.12509000000E+03 0.  0.
         25    1    3    3    0    0 -0.37323552355E+02 -0.43417985175E+02  0.62262751856E+02  0.15100439519E+03  0.12509000000E+03 0.  0.
<mgrwt>
<rscale>  2 0.45690657E+03</rscale>
<asrwt>0</asrwt>
<pdfrwt beam="1">  1       21 0.51750353E-01 0.45690657E+03</pdfrwt>
<pdfrwt beam="2">  1       21 0.21810402E-01 0.45690657E+03</pdfrwt>
<totfact> 0.64277352E+04</totfact>
</mgrwt>
</event>
<event>
 7    0  0.4685107E-002  0.4566924E+03  0.7546771E-02  0.1025745E+00
         21   -1    0    0  502  501  0.00000000000E+00  0.00000000000E+00  0.82478515772E+03  0.82478515772E+03  0.00000000000E+00 0. -1.
         21   -1    0    0  501  502 -0.00000000000E+00 -0.00000000000E+00 -0.63218864822E+02  0.63218864822E+02  0.00000000000E+00 0. -1.
      99926    2    1    2    0    0  0.00000000000E+00  0.00000000000E+00  0.76156629289E+03  0.88800402254E+03  0.45669237521E+03 0.  0.
      99925    2    3    3    0    0  0.92521320827E+02  0.51571852606E+02  0.56453714309E+03  0.63170762233E+03  0.26293056762E+03 0.  0.
         25    1    3    3    0    0 -0.92521320827E+02 -0.51571852606E+02  0.19702914980E+03  0.25629640021E+03  0.12509000000E+03 0.  0.
         25    1    4    4    0    0  0.52078558695E+02  0.49311103009E+02  0.36803143078E+03  0.39527003845E+03  0.12509000000E+03 0.  0.
         25    1    4    4    0    0  0.40442762132E+02  0.22607495976E+01  0.19650571231E+03  0.23643758387E+03  0.12509000000E+03 0.  0.
<mgrwt>
<rscale>  2 0.45669238E+03</rscale>
<asrwt>0</asrwt>
<pdfrwt beam="1">  1       21 0.12129193E+00 0.45669238E+03</pdfrwt>
<pdfrwt beam="2">  1       21 0.92968924E-02 0.45669238E+03</pdfrwt>
<totfact> 0.43181301E+04</totfact>
</mgrwt>
</event>
<event>
 7    0  0.4685107E-002  0.4525238E+03  0.7546771E-02  0.1026972E+00
         21   -1    0    0  502  501  0.00000000000E+00  0.00000000000E+00  0.52464651141E+02  0.52464651141E+02  0.00000000000E+00 0. -1.
         21   -1    0    0  501  502 -0.00000000000E+00 -0.00000000000E+00 -0.97578923413E+03  0.97578923413E+03  0.00000000000E+00 0. -1.
      99926    2    1    2    0    0  0.00000000000E+00  0.00000000000E+00 -0.92332458299E+03  0.10282538853E+04  0.45252377509E+03 0.  0.
      99925    2    3    3    0    0 -0.15906312361E+02 -0.76350874588E+02 -0.40303802964E+03  0.48748769502E+03  0.26291088345E+03 0.  0.
         25    1    4    4    0    0 -0.14078140041E+02 -0.53247992152E+02 -0.14195643988E+03  0.19706009646E+03  0.12509000000E+03 0.  0.
         25    1    4    4    0    0 -0.18281723200E+01 -0.23102882436E+02 -0.26108158977E+03  0.29042759856E+03  0.12509000000E+03 0.  0.
         25    1    3    3    0    0  0.15906312361E+02  0.76350874588E+02 -0.52028655334E+03  0.54076619024E+03  0.12509000000E+03 0.  0.
<mgrwt>
<rscale>  2 0.45252378E+03</rscale>
<asrwt>0</asrwt>
<pdfrwt beam="1">  1       21 0.77153900E-02 0.45252378E+03</pdfrwt>
<pdfrwt beam="2">  1       21 0.14349841E+00 0.45252378E+03</pdfrwt>
<totfact> 0.38830847E+04</totfact>
</mgrwt>
</event>
<event>
 7    0  0.4685107E-002  0.4489775E+03  0.7546771E-02  0.1028027E+00
         21   -1    0    0  502  501  0.00000000000E+00  0.00000000000E+00  0.33905445773E+03  0.33905445773E+03  0.00000000000E+00 0. -1.
         21   -1    0    0  501  502 -0.00000000000E+00 -0.00000000000E+00 -0.14863451558E+03  0.14863451558E+03  0.00000000000E+00 0. -1.
      99926    2    1    2    0    0  0.35527136788E-14  0.00000000000E+00  0.19041994215E+03  0.48768897332E+03  0.44897748309E+03 0.  0.
      99925    2    3    3    0    0  0.29706008666E+02 -0.70848528878E+02  0.38860582625E+02  0.27669203364E+03  0.26295698432E+03 0.  0.
         25    1    4    4    0    0  0.59761619104E+01 -0.36904547078E+01  0.43627755682E+02  0.13266583258E+03  0.12509000000E+03 0.  0.
         25    1    4    4    0    0  0.23729846756E+02 -0.67158074170E+02 -0.47671730568E+01  0.14402620106E+03  0.12509000000E+03 0.  0.
         25    1    3    3    0    0 -0.29706008666E+02  0.70848528878E+02  0.15155935952E+03  0.21099693968E+03  0.12509000000E+03 0.  0.
<mgrwt>
<rscale>  2 0.44897748E+03</rscale>
<asrwt>0</asrwt>
<pdfrwt beam="1">  1       21 0.49860950E-01 0.44897748E+03</pdfrwt>
<pdfrwt beam="2">  1       21 0.21858017E-01 0.44897748E+03</pdfrwt>
<totfact> 0.69403886E+04</totfact>
</mgrwt>
</event>
<event>
 7    0  0.4685107E-002  0.4499988E+03  0.7546771E-02  0.1027722E+00
         21   -1    0    0  502  501  0.00000000000E+00  0.00000000000E+00  0.13396137461E+04  0.13396137461E+04  0.00000000000E+00 0.  1.
         21   -1    0    0  501  502 -0.00000000000E+00 -0.00000000000E+00 -0.37790550494E+02  0.37790550494E+02  0.00000000000E+00 0.  1.
      99926    2    1    2    0    0  0.14210854715E-13  0.71054273576E-14  0.13018231956E+04  0.13774042966E+04  0.44999884850E+03 0.  0.
      99925    2    3    3    0    0  0.70295481587E+02  0.45238048527E+02  0.10342334887E+04  0.10704194515E+04  0.26300372102E+03 0.  0.
         25    1    3    3    0    0 -0.70295481587E+02 -0.45238048527E+02  0.26758970692E+03  0.30698484509E+03  0.12509000000E+03 0.  0.
         25    1    4    4    0    0  0.33879555106E+02 -0.12305042350E+02  0.41121482244E+03  0.43132861790E+03  0.12509000000E+03 0.  0.
         25    1    4    4    0    0  0.36415926481E+02  0.57543090877E+02  0.62301866622E+03  0.63909083358E+03  0.12509000000E+03 0.  0.
<mgrwt>
<rscale>  2 0.44999885E+03</rscale>
<asrwt>0</asrwt>
<pdfrwt beam="1">  1       21 0.19700199E+00 0.44999885E+03</pdfrwt>
<pdfrwt beam="2">  1       21 0.55574348E-02 0.44999885E+03</pdfrwt>
<totfact> 0.28013574E+04</totfact>
</mgrwt>
</event>
<event>
 7    0  0.4685107E-002  0.4547219E+03  0.7546771E-02  0.1026323E+00
         21   -1    0    0  502  501  0.00000000000E+00  0.00000000000E+00  0.17472459278E+03  0.17472459278E+03  0.00000000000E+00 0.  1.
         21   -1    0    0  501  502 -0.00000000000E+00 -0.00000000000E+00 -0.29585413592E+03  0.29585413592E+03  0.00000000000E+00 0.  1.
      99926    2    1    2    0    0  0.00000000000E+00  0.00000000000E+00 -0.12112954314E+03  0.47057872871E+03  0.45472186410E+03 0.  0.
      99925    2    3    3    0    0  0.93104900599E+02  0.60326908928E+01 -0.10411688032E+02  0.27923906368E+03  0.26298504817E+03 0.  0.
         25    1    4    4    0    0  0.81637270743E+02 -0.15563870898E+02 -0.19580074191E+02  0.15145218868E+03  0.12509000000E+03 0.  0.
         25    1    4    4    0    0  0.11467629856E+02  0.21596561791E+02  0.91683861583E+01  0.12778687499E+03  0.12509000000E+03 0.  0.
         25    1    3    3    0    0 -0.93104900599E+02 -0.60326908928E+01 -0.11071785511E+03  0.19133966503E+03  0.12509000000E+03 0.  0.
<mgrwt>
<rscale>  2 0.45472186E+03</rscale>
<asrwt>0</asrwt>
<pdfrwt beam="1">  1       21 0.25694793E-01 0.45472186E+03</pdfrwt>
<pdfrwt beam="2">  1       21 0.43507960E-01 0.45472186E+03</pdfrwt>
<totfact> 0.67541601E+04</totfact>
</mgrwt>
</event>
<event>
 7    0  0.4685107E-002  0.4526341E+03  0.7546771E-02  0.1026939E+00
         21   -1    0    0  502  501  0.00000000000E+00  0.00000000000E+00  0.12407083420E+03  0.12407083420E+03  0.00000000000E+00 0. -1.
         21   -1    0    0  501  502 -0.00000000000E+00 -0.00000000000E+00 -0.41282389762E+03  0.41282389762E+03  0.00000000000E+00 0. -1.
      99926    2    1    2    0    0  0.00000000000E+00  0.00000000000E+00 -0.28875306342E+03  0.53689473183E+03  0.45263409221E+03 0.  0.
      99925    2    3    3    0    0 -0.26397828345E+02  0.61867936489E+02 -0.77820121896E+02  0.28260218214E+03  0.26321765722E+03 0.  0.
         25    1    4    4    0    0  0.28292221669E+01 -0.77227503727E+01 -0.30295018646E+02  0.12896876221E+03  0.12509000000E+03 0.  0.
         25    1    4    4    0    0 -0.29227050512E+02  0.69590686862E+02 -0.47525103250E+02  0.15363341993E+03  0.12509000000E+03 0.  0.
         25    1    3    3    0    0  0.26397828345E+02 -0.61867936489E+02 -0.21093294153E+03  0.25429254969E+03  0.12509000000E+03 0.  0.
<mgrwt>
<rscale>  2 0.45263409E+03</rscale>
<asrwt>0</asrwt>
<pdfrwt beam="1">  1       21 0.18245711E-01 0.45263409E+03</pdfrwt>
<pdfrwt beam="2">  1       21 0.60709396E-01 0.45263409E+03</pdfrwt>
<totfact> 0.63929614E+04</totfact>
</mgrwt>
</event>
<event>
 7    0  0.4685107E-002  0.4421063E+03  0.7546771E-02  0.1030103E+00
         21   -1    0    0  502  501  0.00000000000E+00  0.00000000000E+00  0.14872982738E+04  0.14872982738E+04  0.00000000000E+00 0. -1.
         21   -1    0    0  501  502 -0.00000000000E+00 -0.00000000000E+00 -0.32854539278E+02  0.32854539278E+02  0.00000000000E+00 0. -1.
      99926    2    1    2    0    0  0.00000000000E+00  0.00000000000E+00  0.14544437345E+04  0.15201528130E+04  0.44210632004E+03 0.  0.
      99925    2    3    3    0    0 -0.58753211859E+02  0.76198944490E+02  0.82613864592E+03  0.87233106945E+03  0.26305553294E+03 0.  0.
         25    1    4    4    0    0  0.51165956835E+01  0.12397874257E+02  0.36479945094E+03  0.38588344658E+03  0.12509000000E+03 0.  0.
         25    1    4    4    0    0 -0.63869807543E+02  0.63801070232E+02  0.46133919497E+03  0.48644762287E+03  0.12509000000E+03 0.  0.
         25    1    3    3    0    0  0.58753211859E+02 -0.76198944490E+02  0.62830508856E+03  0.64782174358E+03  0.12509000000E+03 0.  0.
<mgrwt>
<rscale>  2 0.44210632E+03</rscale>
<asrwt>0</asrwt>
<pdfrwt beam="1">  1       21 0.21872029E+00 0.44210632E+03</pdfrwt>
<pdfrwt beam="2">  1       21 0.48315509E-02 0.44210632E+03</pdfrwt>
<totfact> 0.25775853E+04</totfact>
</mgrwt>
</event>
<event>
 7    0  0.4685107E-002  0.4591765E+03  0.7546771E-02  0.1025020E+00
         21   -1    0    0  502  501  0.00000000000E+00  0.00000000000E+00  0.48573731378E+03  0.48573731378E+03  0.00000000000E+00 0.  1.
         21   -1    0    0  501  502 -0.00000000000E+00 -0.00000000000E+00 -0.10851701559E+03  0.10851701559E+03  0.00000000000E+00 0.  1.
      99926    2    1    2    0    0 -0.71054273576E-14 -0.88817841970E-15  0.37722029819E+03  0.59425432937E+03  0.45917649615E+03 0.  0.
      99925    2    3    3    0    0 -0.44580298465E+02 -0.54735134813E+01  0.96563384187E+02  0.28371741717E+03  0.26297095521E+03 0.  0.
         25    1    4    4    0    0 -0.31736320385E+01  0.14599187119E+02  0.13576110690E+02  0.12670843337E+03  0.12509000000E+03 0.  0.
         25    1    3    3    0    0  0.44580298465E+02  0.54735134813E+01  0.28065691400E+03  0.31053691220E+03  0.12509000000E+03 0.  0.
         25    1    4    4    0    0 -0.41406666427E+02 -0.20072700600E+02  0.82987273497E+02  0.15700898381E+03  0.12509000000E+03 0.  0.
<mgrwt>
<rscale>  2 0.45917650E+03</rscale>
<asrwt>0</asrwt>
<pdfrwt beam="1">  1       21 0.71431958E-01 0.45917650E+03</pdfrwt>
<pdfrwt beam="2">  1       21 0.15958385E-01 0.45917650E+03</pdfrwt>
<totfact> 0.57124423E+04</totfact>
</mgrwt>
</event>
<event>
 7    0  0.4685107E-002  0.4485257E+03  0.7546771E-02  0.1028163E+00
         21   -1    0    0  502  501  0.00000000000E+00  0.00000000000E+00  0.11989832261E+03  0.11989832261E+03  0.00000000000E+00 0. -1.
         21   -1    0    0  501  502 -0.00000000000E+00 -0.00000000000E+00 -0.41947067914E+03  0.41947067914E+03  0.00000000000E+00 0. -1.
      99926    2    1    2    0    0  0.00000000000E+00  0.00000000000E+00 -0.29957235653E+03  0.53936900174E+03  0.44852572194E+03 0.  0.
      99925    2    3    3    0    0  0.10528936392E+03  0.16819834391E+02 -0.20038151327E+03  0.34739221026E+03  0.26298258479E+03 0.  0.
         25    1    4    4    0    0  0.39415082578E+02  0.24346718253E+02 -0.14031066488E+03  0.19359985073E+03  0.12509000000E+03 0.  0.
         25    1    3    3    0    0 -0.10528936392E+03 -0.16819834391E+02 -0.99190843257E+02  0.19197679148E+03  0.12509000000E+03 0.  0.
         25    1    4    4    0    0  0.65874281338E+02 -0.75268838627E+01 -0.60070848394E+02  0.15379235953E+03  0.12509000000E+03 0.  0.
<mgrwt>
<rscale>  2 0.44852572E+03</rscale>
<asrwt>0</asrwt>
<pdfrwt beam="1">  1       21 0.17632106E-01 0.44852572E+03</pdfrwt>
<pdfrwt beam="2">  1       21 0.61686865E-01 0.44852572E+03</pdfrwt>
<totfact> 0.65886004E+04</totfact>
</mgrwt>
</event>
<event>
 7    0  0.4685107E-002  0.4583665E+03  0.7546771E-02  0.1025256E+00
         21   -1    0    0  502  501  0.00000000000E+00  0.00000000000E+00  0.26555826902E+03  0.26555826902E+03  0.00000000000E+00 0. -1.
         21   -1    0    0  501  502 -0.00000000000E+00 -0.00000000000E+00 -0.19779072846E+03  0.19779072846E+03  0.00000000000E+00 0. -1.
      99926    2    1    2    0    0 -0.71054273576E-14  0.00000000000E+00  0.67767540551E+02  0.46334899748E+03  0.45836650610E+03 0.  0.
      99925    2    3    3    0    0  0.60333538238E+02 -0.97041562265E+02  0.64208791569E+02  0.29388698570E+03  0.26303914310E+03 0.  0.
         25    1    4    4    0    0  0.29103655581E+02 -0.86757519951E+02  0.15824206625E+02  0.15579410660E+03  0.12509000000E+03 0.  0.
         25    1    4    4    0    0  0.31229882657E+02 -0.10284042313E+02  0.48384584944E+02  0.13809287910E+03  0.12509000000E+03 0.  0.
         25    1    3    3    0    0 -0.60333538238E+02  0.97041562265E+02  0.35587489816E+01  0.16946201178E+03  0.12509000000E+03 0.  0.
<mgrwt>
<rscale>  2 0.45836651E+03</rscale>
<asrwt>0</asrwt>
<pdfrwt beam="1">  1       21 0.39052687E-01 0.45836651E+03</pdfrwt>
<pdfrwt beam="2">  1       21 0.29086872E-01 0.45836651E+03</pdfrwt>
<totfact> 0.66143532E+04</totfact>
</mgrwt>
</event>
<event>
 7    0  0.4685107E-002  0.4529591E+03  0.7546771E-02  0.1026843E+00
         21   -1    0    0  502  501  0.00000000000E+00  0.00000000000E+00  0.16229556216E+03  0.16229556216E+03  0.00000000000E+00 0.  1.
         21   -1    0    0  501  502 -0.00000000000E+00 -0.00000000000E+00 -0.31604675619E+03  0.31604675619E+03  0.00000000000E+00 0.  1.
      99926    2    1    2    0    0  0.00000000000E+00  0.00000000000E+00 -0.15375119404E+03  0.47834231835E+03  0.45295909733E+03 0.  0.
      99925    2    3    3    0    0 -0.24528360787E+02  0.81841595921E+02 -0.21942374755E+02  0.27754201893E+03  0.26315093987E+03 0.  0.
         25    1    4    4    0    0 -0.40880137430E+02  0.19156986960E+02 -0.30402958695E+02  0.13641856099E+03  0.12509000000E+03 0.  0.
         25    1    3    3    0    0  0.24528360787E+02 -0.81841595921E+02 -0.13180881928E+03  0.20080029942E+03  0.12509000000E+03 0.  0.
         25    1    4    4    0    0  0.16351776643E+02  0.62684608961E+02  0.84605839397E+01  0.14112345794E+03  0.12509000000E+03 0.  0.
<mgrwt>
<rscale>  2 0.45295910E+03</rscale>
<asrwt>0</asrwt>
<pdfrwt beam="1">  1       21 0.23866995E-01 0.45295910E+03</pdfrwt>
<pdfrwt beam="2">  1       21 0.46477464E-01 0.45295910E+03</pdfrwt>
<totfact> 0.67914479E+04</totfact>
</mgrwt>
</event>
<event>
 7    0  0.4685107E-002  0.4564627E+03  0.7546771E-02  0.1025812E+00
         21   -1    0    0  502  501  0.00000000000E+00  0.00000000000E+00  0.65546509665E+02  0.65546509665E+02  0.00000000000E+00 0. -1.
         21   -1    0    0  501  502 -0.00000000000E+00 -0.00000000000E+00 -0.79469616473E+03  0.79469616473E+03  0.00000000000E+00 0. -1.
      99926    2    1    2    0    0  0.00000000000E+00 -0.14210854715E-13 -0.72914965506E+03  0.86024267439E+03  0.45646274697E+03 0.  0.
      99925    2    3    3    0    0  0.23643953744E+02  0.10872744460E+03 -0.50951391496E+03  0.58407594905E+03  0.26298211148E+03 0.  0.
         25    1    3    3    0    0 -0.23643953744E+02 -0.10872744460E+03 -0.21963574010E+03  0.27616672534E+03  0.12509000000E+03 0.  0.
         25    1    4    4    0    0  0.67802221358E+01  0.63962118633E+02 -0.18038701863E+03  0.22874463627E+03  0.12509000000E+03 0.  0.
         25    1    4    4    0    0  0.16863731608E+02  0.44765325964E+02 -0.32912689633E+03  0.35533131278E+03  0.12509000000E+03 0.  0.
<mgrwt>
<rscale>  2 0.45646275E+03</rscale>
<asrwt>0</asrwt>
<pdfrwt beam="1">  1       21 0.96391931E-02 0.45646275E+03</pdfrwt>
<pdfrwt beam="2">  1       21 0.11686708E+00 0.45646275E+03</pdfrwt>
<totfact> 0.44472141E+04</totfact>
</mgrwt>
</event>
<event>
 7    0  0.4685107E-002  0.4611939E+03  0.7546771E-02  0.1024436E+00
         21   -1    0    0  502  501  0.00000000000E+00  0.00000000000E+00  0.13832046405E+04  0.13832046405E+04  0.00000000000E+00 0. -1.
         21   -1    0    0  501  502 -0.00000000000E+00 -0.00000000000E+00 -0.38443303493E+02  0.38443303493E+02  0.00000000000E+00 0. -1.
      99926    2    1    2    0    0  0.00000000000E+00 -0.71054273576E-14  0.13447613370E+04  0.14216479440E+04  0.46119391058E+03 0.  0.
      99925    2    3    3    0    0  0.85267677920E+02 -0.42275207202E+02  0.62102532555E+03  0.68104069827E+03  0.26284255303E+03 0.  0.
         25    1    3    3    0    0 -0.85267677920E+02  0.42275207202E+02  0.72373601149E+03  0.74060724576E+03  0.12509000000E+03 0.  0.
         25    1    4    4    0    0  0.15136527522E+02 -0.29511424343E+02  0.22372537491E+03  0.25845810127E+03  0.12509000000E+03 0.  0.
         25    1    4    4    0    0  0.70131150399E+02 -0.12763782858E+02  0.39729995064E+03  0.42258259700E+03  0.12509000000E+03 0.  0.
<mgrwt>
<rscale>  2 0.46119391E+03</rscale>
<asrwt>0</asrwt>
<pdfrwt beam="1">  1       21 0.20341241E+00 0.46119391E+03</pdfrwt>
<pdfrwt beam="2">  1       21 0.56534279E-02 0.46119391E+03</pdfrwt>
<totfact> 0.24557447E+04</totfact>
</mgrwt>
</event>
<event>
 7    0  0.4685107E-002  0.4542861E+03  0.7546771E-02  0.1026452E+00
         21   -1    0    0  502  501  0.00000000000E+00  0.00000000000E+00  0.61003191384E+03  0.61003191384E+03  0.00000000000E+00 0.  1.
         21   -1    0    0  501  502 -0.00000000000E+00 -0.00000000000E+00 -0.84575861071E+02  0.84575861071E+02  0.00000000000E+00 0.  1.
      99926    2    1    2    0    0  0.00000000000E+00 -0.17763568394E-14  0.52545605277E+03  0.69460777491E+03  0.45428614064E+03 0.  0.
      99925    2    3    3    0    0 -0.60642114440E+02  0.83586255978E+01  0.18614697313E+03  0.32783060511E+03  0.26282099873E+03 0.  0.
         25    1    4    4    0    0 -0.26656227736E+02 -0.20348970182E+02  0.53399034192E+02  0.14008426042E+03  0.12509000000E+03 0.  0.
         25    1    3    3    0    0  0.60642114440E+02 -0.83586255978E+01  0.33930907963E+03  0.36677716980E+03  0.12509000000E+03 0.  0.
         25    1    4    4    0    0 -0.33985886704E+02  0.28707595780E+02  0.13274793894E+03  0.18774634469E+03  0.12509000000E+03 0.  0.
<mgrwt>
<rscale>  2 0.45428614E+03</rscale>
<asrwt>0</asrwt>
<pdfrwt beam="1">  1       21 0.89710573E-01 0.45428614E+03</pdfrwt>
<pdfrwt beam="2">  1       21 0.12437627E-01 0.45428614E+03</pdfrwt>
<totfact> 0.53496686E+04</totfact>
</mgrwt>
</event>
<event>
 7    0  0.4685107E-002  0.4380139E+03  0.7546771E-02  0.1031358E+00
         21   -1    0    0  502  501  0.00000000000E+00  0.00000000000E+00  0.23888107411E+02  0.23888107411E+02  0.00000000000E+00 0. -1.
         21   -1    0    0  501  502 -0.00000000000E+00 -0.00000000000E+00 -0.20078625580E+04  0.20078625580E+04  0.00000000000E+00 0. -1.
      99926    2    1    2    0    0  0.00000000000E+00 -0.22204460493E-14 -0.19839744506E+04  0.20317506655E+04  0.43801386487E+03 0.  0.
      99925    2    3    3    0    0 -0.70798080160E+01  0.14449092491E+01 -0.82267539893E+03  0.86371162200E+03  0.26296528770E+03 0.  0.
         25    1    4    4    0    0 -0.15093963788E+02  0.39333788308E+02 -0.42615546808E+03  0.44612886672E+03  0.12509000000E+03 0.  0.
         25    1    4    4    0    0  0.80141557719E+01 -0.37888879058E+02 -0.39651993084E+03  0.41758275528E+03  0.12509000000E+03 0.  0.
         25    1    3    3    0    0  0.70798080160E+01 -0.14449092491E+01 -0.11612990517E+04  0.11680390435E+04  0.12509000000E+03 0.  0.
<mgrwt>
<rscale>  2 0.43801386E+03</rscale>
<asrwt>0</asrwt>
<pdfrwt beam="1">  1       21 0.35129579E-02 0.43801386E+03</pdfrwt>
<pdfrwt beam="2">  1       21 0.29527383E+00 0.43801386E+03</pdfrwt>
<totfact> 0.15092492E+04</totfact>
</mgrwt>
</event>
<event>
 7    0  0.4685107E-002  0.4539799E+03  0.7546771E-02  0.1026542E+00
         21   -1    0    0  502  501  0.00000000000E+00  0.00000000000E+00  0.18165510668E+03  0.18165510668E+03  0.00000000000E+00 0. -1.
         21   -1    0    0  501  502 -0.00000000000E+00 -0.00000000000E+00 -0.28363878896E+03  0.28363878896E+03  0.00000000000E+00 0. -1.
      99926    2    1    2    0    0  0.00000000000E+00  0.00000000000E+00 -0.10198368228E+03  0.46529389563E+03  0.45397988707E+03 0.  0.
      99925    2    3    3    0    0  0.38090172461E+02 -0.29387413901E+02 -0.16812720909E+03  0.31583836522E+03  0.26300690708E+03 0.  0.
         25    1    4    4    0    0  0.37595731627E+02  0.92316153516E+01 -0.52175147464E+02  0.14095536837E+03  0.12509000000E+03 0.  0.
         25    1    4    4    0    0  0.49444083352E+00 -0.38619029253E+02 -0.11595206162E+03  0.17488299685E+03  0.12509000000E+03 0.  0.
         25    1    3    3    0    0 -0.38090172461E+02  0.29387413901E+02  0.66143526805E+02  0.14945553042E+03  0.12509000000E+03 0.  0.
<mgrwt>
<rscale>  2 0.45397989E+03</rscale>
<asrwt>0</asrwt>
<pdfrwt beam="1">  1       21 0.26713987E-01 0.45397989E+03</pdfrwt>
<pdfrwt beam="2">  1       21 0.41711586E-01 0.45397989E+03</pdfrwt>
<totfact> 0.68339027E+04</totfact>
</mgrwt>
</event>
<event>
 7    0  0.4685107E-002  0.4488907E+03  0.7546771E-02  0.1028053E+00
         21   -1    0    0  502  501  0.00000000000E+00  0.00000000000E+00  0.11923949850E+03  0.11923949850E+03  0.00000000000E+00 0.  1.
         21   -1    0    0  501  502 -0.00000000000E+00 -0.00000000000E+00 -0.42247511817E+03  0.42247511817E+03  0.00000000000E+00 0.  1.
      99926    2    1    2    0    0  0.00000000000E+00  0.00000000000E+00 -0.30323561968E+03  0.54171461667E+03  0.44889072710E+03 0.  0.
      99925    2    3    3    0    0 -0.62672698636E+02  0.76158319730E+02 -0.24267191017E+03  0.37129329222E+03  0.26313702903E+03 0.  0.
         25    1    4    4    0    0 -0.49114100573E+02  0.44610759810E+02 -0.77977503035E+02  0.16164873599E+03  0.12509000000E+03 0.  0.
         25    1    4    4    0    0 -0.13558598063E+02  0.31547559920E+02 -0.16469440713E+03  0.20964455623E+03  0.12509000000E+03 0.  0.
         25    1    3    3    0    0  0.62672698636E+02 -0.76158319730E+02 -0.60563709509E+02  0.17042132445E+03  0.12509000000E+03 0.  0.
<mgrwt>
<rscale>  2 0.44889073E+03</rscale>
<asrwt>0</asrwt>
<pdfrwt beam="1">  1       21 0.17535221E-01 0.44889073E+03</pdfrwt>
<pdfrwt beam="2">  1       21 0.62128693E-01 0.44889073E+03</pdfrwt>
<totfact> 0.65528374E+04</totfact>
</mgrwt>
</event>
<event>
 7    0  0.4685107E-002  0.4489372E+03  0.7546771E-02  0.1028039E+00
         21   -1    0    0  502  501  0.00000000000E+00  0.00000000000E+00  0.13670940433E+03  0.13670940433E+03  0.00000000000E+00 0.  1.
         21   -1    0    0  501  502 -0.00000000000E+00 -0.00000000000E+00 -0.36856396044E+03  0.36856396044E+03  0.00000000000E+00 0.  1.
      99926    2    1    2    0    0  0.00000000000E+00  0.35527136788E-14 -0.23185455610E+03  0.50527336477E+03  0.44893723165E+03 0.  0.
      99925    2    3    3    0    0 -0.10126603588E+03 -0.29220201901E+02 -0.16996901883E+03  0.33038494879E+03  0.26297550608E+03 0.  0.
         25    1    4    4    0    0 -0.21821016150E+02 -0.12541272338E+02 -0.11400338577E+03  0.17110733568E+03  0.12509000000E+03 0.  0.
         25    1    3    3    0    0  0.10126603588E+03  0.29220201901E+02 -0.61885537269E+02  0.17488841598E+03  0.12509000000E+03 0.  0.
         25    1    4    4    0    0 -0.79445019731E+02 -0.16678929563E+02 -0.55965633061E+02  0.15927761310E+03  0.12509000000E+03 0.  0.
<mgrwt>
<rscale>  2 0.44893723E+03</rscale>
<asrwt>0</asrwt>
<pdfrwt beam="1">  1       21 0.20104324E-01 0.44893723E+03</pdfrwt>
<pdfrwt beam="2">  1       21 0.54200582E-01 0.44893723E+03</pdfrwt>
<totfact> 0.68121026E+04</totfact>
</mgrwt>
</event>
<event>
 7    0  0.4685107E-002  0.4545277E+03  0.7546771E-02  0.1026380E+00
         21   -1    0    0  502  501  0.00000000000E+00  0.00000000000E+00  0.52376097229E+02  0.52376097229E+02  0.00000000000E+00 0. -1.
         21   -1    0    0  501  502 -0.00000000000E+00 -0.00000000000E+00 -0.98611518740E+03  0.98611518740E+03  0.00000000000E+00 0. -1.
      99926    2    1    2    0    0  0.00000000000E+00  0.00000000000E+00 -0.93373909017E+03  0.10384912846E+04  0.45452773264E+03 0.  0.
      99925    2    3    3    0    0  0.19197727430E+02  0.23043024903E+02 -0.34075490449E+03  0.43171514279E+03  0.26337145982E+03 0.  0.
         25    1    4    4    0    0  0.81964295472E+01 -0.29890432619E+01 -0.10590690744E+03  0.16413377769E+03  0.12509000000E+03 0.  0.
         25    1    3    3    0    0 -0.19197727430E+02 -0.23043024903E+02 -0.59298418569E+03  0.60677614184E+03  0.12509000000E+03 0.  0.
         25    1    4    4    0    0  0.11001297883E+02  0.26032068165E+02 -0.23484799705E+03  0.26758136510E+03  0.12509000000E+03 0.  0.
<mgrwt>
<rscale>  2 0.45452773E+03</rscale>
<asrwt>0</asrwt>
<pdfrwt beam="1">  1       21 0.77023675E-02 0.45452773E+03</pdfrwt>
<pdfrwt beam="2">  1       21 0.14501693E+00 0.45452773E+03</pdfrwt>
<totfact> 0.37841854E+04</totfact>
</mgrwt>
</event>
<event>
 7    0  0.4685107E-002  0.4336602E+03  0.7546771E-02  0.1032710E+00
         21   -1    0    0  502  501  0.00000000000E+00  0.00000000000E+00  0.49292181771E+02  0.49292181771E+02  0.00000000000E+00 0. -1.
         21   -1    0    0  501  502 -0.00000000000E+00 -0.00000000000E+00 -0.95380839647E+03  0.95380839647E+03  0.00000000000E+00 0. -1.
      99926    2    1    2    0    0  0.00000000000E+00  0.00000000000E+00 -0.90451621470E+03  0.10031005782E+04  0.43366022116E+03 0.  0.
      99925    2    3    3    0    0 -0.35986860601E+02 -0.53087902751E+02 -0.73290418867E+03  0.78126375728E+03  0.26288995630E+03 0.  0.
         25    1    3    3    0    0  0.35986860601E+02  0.53087902751E+02 -0.17161202603E+03  0.22183682096E+03  0.12509000000E+03 0.  0.
         25    1    4    4    0    0 -0.25192804640E+02 -0.48269412830E+02 -0.28337785928E+03  0.31450776278E+03  0.12509000000E+03 0.  0.
         25    1    4    4    0    0 -0.10794055961E+02 -0.48184899204E+01 -0.44952632939E+03  0.46675599450E+03  0.12509000000E+03 0.  0.
<mgrwt>
<rscale>  2 0.43366022E+03</rscale>
<asrwt>0</asrwt>
<pdfrwt beam="1">  1       21 0.72488501E-02 0.43366022E+03</pdfrwt>
<pdfrwt beam="2">  1       21 0.14026594E+00 0.43366022E+03</pdfrwt>
<totfact> 0.46293274E+04</totfact>
</mgrwt>
</event>
<event>
 7    0  0.4685107E-002  0.4282786E+03  0.7546771E-02  0.1034405E+00
         21   -1    0    0  502  501  0.00000000000E+00  0.00000000000E+00  0.27704602994E+03  0.27704602994E+03  0.00000000000E+00 0.  1.
         21   -1    0    0  501  502 -0.00000000000E+00 -0.00000000000E+00 -0.16551629294E+03  0.16551629294E+03  0.00000000000E+00 0.  1.
      99926    2    1    2    0    0  0.00000000000E+00  0.00000000000E+00  0.11152973700E+03  0.44256232287E+03  0.42827856284E+03 0.  0.
      99925    2    3    3    0    0  0.61737030641E+02  0.59097248869E+02  0.84308971121E+02  0.28863888745E+03  0.26248896922E+03 0.  0.
         25    1    4    4    0    0  0.34622038138E+02  0.68107167684E+02  0.58135413199E+02  0.15768483181E+03  0.12509000000E+03 0.  0.
         25    1    4    4    0    0  0.27114992503E+02 -0.90099188144E+01  0.26173557922E+02  0.13095405564E+03  0.12509000000E+03 0.  0.
         25    1    3    3    0    0 -0.61737030641E+02 -0.59097248869E+02  0.27220765878E+02  0.15392343542E+03  0.12509000000E+03 0.  0.
<mgrwt>
<rscale>  2 0.42827856E+03</rscale>
<asrwt>0</asrwt>
<pdfrwt beam="1">  1       21 0.40742064E-01 0.42827856E+03</pdfrwt>
<pdfrwt beam="2">  1       21 0.24340631E-01 0.42827856E+03</pdfrwt>
<totfact> 0.86453400E+04</totfact>
</mgrwt>
</event>
<event>
 7    0  0.4685107E-002  0.4540712E+03  0.7546771E-02  0.1026515E+00
         21   -1    0    0  502  501  0.00000000000E+00  0.00000000000E+00  0.12383048491E+04  0.12383048491E+04  0.00000000000E+00 0.  1.
         21   -1    0    0  501  502 -0.00000000000E+00 -0.00000000000E+00 -0.41625589303E+02  0.41625589303E+02  0.00000000000E+00 0.  1.
      99926    2    1    2    0    0  0.17763568394E-14  0.00000000000E+00  0.11966792598E+04  0.12799304384E+04  0.45407122384E+03 0.  0.
      99925    2    3    3    0    0 -0.13529364383E+02 -0.10298288970E+03  0.87366290335E+03  0.91830135508E+03  0.26306271263E+03 0.  0.
         25    1    4    4    0    0  0.62611077533E+00 -0.93423245482E+02  0.45722700512E+03  0.48314835933E+03  0.12509000000E+03 0.  0.
         25    1    3    3    0    0  0.13529364383E+02  0.10298288970E+03  0.32301635641E+03  0.36162908329E+03  0.12509000000E+03 0.  0.
         25    1    4    4    0    0 -0.14155475158E+02 -0.95596442197E+01  0.41643589823E+03  0.43515299575E+03  0.12509000000E+03 0.  0.
<mgrwt>
<rscale>  2 0.45407122E+03</rscale>
<asrwt>0</asrwt>
<pdfrwt beam="1">  1       21 0.18210363E+00 0.45407122E+03</pdfrwt>
<pdfrwt beam="2">  1       21 0.61214110E-02 0.45407122E+03</pdfrwt>
<totfact> 0.29918876E+04</totfact>
</mgrwt>
</event>
<event>
 7    0  0.4685107E-002  0.4519808E+03  0.7546771E-02  0.1027133E+00
         21   -1    0    0  502  501  0.00000000000E+00  0.00000000000E+00  0.13381684453E+04  0.13381684453E+04  0.00000000000E+00 0. -1.
         21   -1    0    0  501  502 -0.00000000000E+00 -0.00000000000E+00 -0.38165338309E+02  0.38165338309E+02  0.00000000000E+00 0. -1.
      99926    2    1    2    0    0  0.00000000000E+00  0.00000000000E+00  0.13000031070E+04  0.13763337836E+04  0.45198075812E+03 0.  0.
      99925    2    3    3    0    0 -0.54404430661E+02 -0.75351510164E+02  0.10038634004E+04  0.10416937888E+04  0.26219559673E+03 0.  0.
         25    1    3    3    0    0  0.54404430661E+02  0.75351510164E+02  0.29613970660E+03  0.33463999475E+03  0.12509000000E+03 0.  0.
         25    1    4    4    0    0 -0.31312063458E+02 -0.21275136252E+02  0.62206553200E+03  0.63564621524E+03  0.12509000000E+03 0.  0.
         25    1    4    4    0    0 -0.23092367203E+02 -0.54076373912E+02  0.38179786837E+03  0.40604757361E+03  0.12509000000E+03 0.  0.
<mgrwt>
<rscale>  2 0.45198076E+03</rscale>
<asrwt>0</asrwt>
<pdfrwt beam="1">  1       21 0.19678945E+00 0.45198076E+03</pdfrwt>
<pdfrwt beam="2">  1       21 0.56125506E-02 0.45198076E+03</pdfrwt>
<totfact> 0.27611835E+04</totfact>
</mgrwt>
</event>
<event>
 7    0  0.4685107E-002  0.4191085E+03  0.7546771E-02  0.1037357E+00
         21   -1    0    0  502  501  0.00000000000E+00  0.00000000000E+00  0.18098958071E+03  0.18098958071E+03  0.00000000000E+00 0.  1.
         21   -1    0    0  501  502 -0.00000000000E+00 -0.00000000000E+00 -0.24262719020E+03  0.24262719020E+03  0.00000000000E+00 0.  1.
      99926    2    1    2    0    0  0.00000000000E+00  0.00000000000E+00 -0.61637609496E+02  0.42361677091E+03  0.41910854643E+03 0.  0.
      99925    2    3    3    0    0 -0.88606163160E+01  0.37628994663E+02 -0.10484642567E+03  0.28574377988E+03  0.26298722974E+03 0.  0.
         25    1    4    4    0    0 -0.13614974693E+02  0.29731522040E+02 -0.12319177408E+02  0.12987917913E+03  0.12509000000E+03 0.  0.
         25    1    4    4    0    0  0.47543583767E+01  0.78974726234E+01 -0.92527248259E+02  0.15586460075E+03  0.12509000000E+03 0.  0.
         25    1    3    3    0    0  0.88606163160E+01 -0.37628994663E+02  0.43208816171E+02  0.13787299103E+03  0.12509000000E+03 0.  0.
<mgrwt>
<rscale>  2 0.41910855E+03</rscale>
<asrwt>0</asrwt>
<pdfrwt beam="1">  1       21 0.26616115E-01 0.41910855E+03</pdfrwt>
<pdfrwt beam="2">  1       21 0.35680469E-01 0.41910855E+03</pdfrwt>
<totfact> 0.95445361E+04</totfact>
</mgrwt>
</event>
<event>
 7    0  0.4685107E-002  0.4622899E+03  0.7546771E-02  0.1024119E+00
         21   -1    0    0  502  501  0.00000000000E+00  0.00000000000E+00  0.63917350734E+03  0.63917350734E+03  0.00000000000E+00 0. -1.
         21   -1    0    0  501  502 -0.00000000000E+00 -0.00000000000E+00 -0.83589171302E+02  0.83589171302E+02  0.00000000000E+00 0. -1.
      99926    2    1    2    0    0  0.00000000000E+00  0.00000000000E+00  0.55558433604E+03  0.72276267864E+03  0.46228988220E+03 0.  0.
      99925    2    3    3    0    0 -0.15288849542E+02  0.33496579372E+02  0.52574083398E+03  0.58899454916E+03  0.26297411408E+03 0.  0.
         25    1    4    4    0    0 -0.31329413768E+02  0.97993490918E+01  0.33510166149E+03  0.35919102305E+03  0.12509000000E+03 0.  0.
         25    1    3    3    0    0  0.15288849542E+02 -0.33496579372E+02  0.29843502060E+02  0.13376812948E+03  0.12509000000E+03 0.  0.
         25    1    4    4    0    0  0.16040564226E+02  0.23697230280E+02  0.19063917249E+03  0.22980352611E+03  0.12509000000E+03 0.  0.
<mgrwt>
<rscale>  2 0.46228988E+03</rscale>
<asrwt>0</asrwt>
<pdfrwt beam="1">  1       21 0.93996101E-01 0.46228988E+03</pdfrwt>
<pdfrwt beam="2">  1       21 0.12292526E-01 0.46228988E+03</pdfrwt>
<totfact> 0.48824306E+04</totfact>
</mgrwt>
</event>
<event>
 7    0  0.4685107E-002  0.4171020E+03  0.7546771E-02  0.1038014E+00
         21   -1    0    0  502  501  0.00000000000E+00  0.00000000000E+00  0.38953815161E+03  0.38953815161E+03  0.00000000000E+00 0. -1.
         21   -1    0    0  501  502 -0.00000000000E+00 -0.00000000000E+00 -0.11165406339E+03  0.11165406339E+03  0.00000000000E+00 0. -1.
      99926    2    1    2    0    0  0.00000000000E+00  0.00000000000E+00  0.27788408822E+03  0.50119221500E+03  0.41710198979E+03 0.  0.
      99925    2    3    3    0    0 -0.47152349210E+01  0.42328809833E+02  0.25117699878E+03  0.36637849794E+03  0.26330468559E+03 0.  0.
         25    1    3    3    0    0  0.47152349210E+01 -0.42328809833E+02  0.26707089449E+02  0.13481371707E+03  0.12509000000E+03 0.  0.
         25    1    4    4    0    0 -0.40928906523E+01 -0.17440318607E+02  0.14061885394E+03  0.18905577656E+03  0.12509000000E+03 0.  0.
         25    1    4    4    0    0 -0.62234426869E+00  0.59769128440E+02  0.11055814484E+03  0.17732272138E+03  0.12509000000E+03 0.  0.
<mgrwt>
<rscale>  2 0.41710199E+03</rscale>
<asrwt>0</asrwt>
<pdfrwt beam="1">  1       21 0.57285022E-01 0.41710199E+03</pdfrwt>
<pdfrwt beam="2">  1       21 0.16419715E-01 0.41710199E+03</pdfrwt>
<totfact> 0.89096305E+04</totfact>
</mgrwt>
</event>
<event>
 7    0  0.4685107E-002  0.4545996E+03  0.7546771E-02  0.1026359E+00
         21   -1    0    0  502  501  0.00000000000E+00  0.00000000000E+00  0.72932324947E+02  0.72932324947E+02  0.00000000000E+00 0.  1.
         21   -1    0    0  501  502 -0.00000000000E+00 -0.00000000000E+00 -0.70839929531E+03  0.70839929531E+03  0.00000000000E+00 0.  1.
      99926    2    1    2    0    0  0.00000000000E+00  0.00000000000E+00 -0.63546697036E+03  0.78133162025E+03  0.45459963747E+03 0.  0.
      99925    2    3    3    0    0 -0.98582299637E+02 -0.68439251424E+01 -0.49363407436E+03  0.56795545570E+03  0.26293248406E+03 0.  0.
         25    1    4    4    0    0 -0.91786391645E+02 -0.75740358637E+01 -0.26070077059E+03  0.30347076893E+03  0.12509000000E+03 0.  0.
         25    1    3    3    0    0  0.98582299637E+02  0.68439251424E+01 -0.14183289600E+03  0.21337616455E+03  0.12509000000E+03 0.  0.
         25    1    4    4    0    0 -0.67959079927E+01  0.73011072135E+00 -0.23293330377E+03  0.26448468677E+03  0.12509000000E+03 0.  0.
<mgrwt>
<rscale>  2 0.45459964E+03</rscale>
<asrwt>0</asrwt>
<pdfrwt beam="1">  1       21 0.10725342E-01 0.45459964E+03</pdfrwt>
<pdfrwt beam="2">  1       21 0.10417637E+00 0.45459964E+03</pdfrwt>
<totfact> 0.48834352E+04</totfact>
</mgrwt>
</event>
<event>
 7    0  0.4685107E-002  0.4540810E+03  0.7546771E-02  0.1026512E+00
         21   -1    0    0  502  501  0.00000000000E+00  0.00000000000E+00  0.76864796925E+02  0.76864796925E+02  0.00000000000E+00 0. -1.
         21   -1    0    0  501  502 -0.00000000000E+00 -0.00000000000E+00 -0.67062421597E+03  0.67062421597E+03  0.00000000000E+00 0. -1.
      99926    2    1    2    0    0  0.00000000000E+00  0.00000000000E+00 -0.59375941904E+03  0.74748901289E+03  0.45408102437E+03 0.  0.
      99925    2    3    3    0    0  0.18650015319E+02 -0.49751576404E+02 -0.21124302148E+03  0.34154647394E+03  0.26307287453E+03 0.  0.
         25    1    4    4    0    0  0.12750994778E+02 -0.47305646027E+02 -0.15240260137E+03  0.20316119959E+03  0.12509000000E+03 0.  0.
         25    1    4    4    0    0  0.58990205413E+01 -0.24459303766E+01 -0.58840420108E+02  0.13838527435E+03  0.12509000000E+03 0.  0.
         25    1    3    3    0    0 -0.18650015319E+02  0.49751576404E+02 -0.38251639756E+03  0.40594253895E+03  0.12509000000E+03 0.  0.
<mgrwt>
<rscale>  2 0.45408102E+03</rscale>
<asrwt>0</asrwt>
<pdfrwt beam="1">  1       21 0.11303646E-01 0.45408102E+03</pdfrwt>
<pdfrwt beam="2">  1       21 0.98621211E-01 0.45408102E+03</pdfrwt>
<totfact> 0.50764972E+04</totfact>
</mgrwt>
</event>
<event>
 7    0  0.4685107E-002  0.4187485E+03  0.7546771E-02  0.1037474E+00
         21   -1    0    0  502  501  0.00000000000E+00  0.00000000000E+00  0.35147059578E+02  0.35147059578E+02  0.00000000000E+00 0.  1.
         21   -1    0    0  501  502 -0.00000000000E+00 -0.00000000000E+00 -0.12472614020E+04  0.12472614020E+04  0.00000000000E+00 0.  1.
      99926    2    1    2    0    0  0.00000000000E+00  0.35527136788E-14 -0.12121143424E+04  0.12824084616E+04  0.41874847250E+03 0.  0.
      99925    2    3    3    0    0  0.49735902720E+02 -0.16619506433E+02 -0.63086446489E+03  0.68554265066E+03  0.26311382480E+03 0.  0.
         25    1    4    4    0    0  0.20217111325E+02 -0.38088567414E+02 -0.38782660509E+03  0.40977610261E+03  0.12509000000E+03 0.  0.
         25    1    4    4    0    0  0.29518791395E+02  0.21469060981E+02 -0.24303785981E+03  0.27576654805E+03  0.12509000000E+03 0.  0.
         25    1    3    3    0    0 -0.49735902720E+02  0.16619506433E+02 -0.58124987755E+03  0.59686581094E+03  0.12509000000E+03 0.  0.
<mgrwt>
<rscale>  2 0.41874847E+03</rscale>
<asrwt>0</asrwt>
<pdfrwt beam="1">  1       21 0.51686855E-02 0.41874847E+03</pdfrwt>
<pdfrwt beam="2">  1       21 0.18342078E+00 0.41874847E+03</pdfrwt>
<totfact> 0.39698548E+04</totfact>
</mgrwt>
</event>
<event>
 7    0  0.4685107E-002  0.4573036E+03  0.7546771E-02  0.1025566E+00
         21   -1    0    0  502  501  0.00000000000E+00  0.00000000000E+00  0.55034806048E+03  0.55034806048E+03  0.00000000000E+00 0.  1.
         21   -1    0    0  501  502 -0.00000000000E+00 -0.00000000000E+00 -0.94997417531E+02  0.94997417531E+02  0.00000000000E+00 0.  1.
      99926    2    1    2    0    0  0.00000000000E+00  0.00000000000E+00  0.45535064295E+03  0.64534547801E+03  0.45730359495E+03 0.  0.
      99925    2    3    3    0    0 -0.91684212428E+02 -0.58674856075E+02  0.23195354274E+03  0.36713241932E+03  0.26293541751E+03 0.  0.
         25    1    4    4    0    0 -0.65667976728E+02  0.41921266877E+01  0.10146125220E+03  0.17398778949E+03  0.12509000000E+03 0.  0.
         25    1    3    3    0    0  0.91684212428E+02  0.58674856075E+02  0.22339710021E+03  0.27821305869E+03  0.12509000000E+03 0.  0.
         25    1    4    4    0    0 -0.26016235700E+02 -0.62866982763E+02  0.13049229054E+03  0.19314462983E+03  0.12509000000E+03 0.  0.
<mgrwt>
<rscale>  2 0.45730359E+03</rscale>
<asrwt>0</asrwt>
<pdfrwt beam="1">  1       21 0.80933537E-01 0.45730359E+03</pdfrwt>
<pdfrwt beam="2">  1       21 0.13970209E-01 0.45730359E+03</pdfrwt>
<totfact> 0.54964560E+04</totfact>
</mgrwt>
</event>
<event>
 7    0  0.4685107E-002  0.4472155E+03  0.7546771E-02  0.1028556E+00
         21   -1    0    0  502  501  0.00000000000E+00  0.00000000000E+00  0.49034067809E+03  0.49034067809E+03  0.00000000000E+00 0.  1.
         21   -1    0    0  501  502 -0.00000000000E+00 -0.00000000000E+00 -0.10197079137E+03  0.10197079137E+03  0.00000000000E+00 0.  1.
      99926    2    1    2    0    0 -0.35527136788E-14  0.17763568394E-14  0.38836988672E+03  0.59231146946E+03  0.44721550503E+03 0.  0.
      99925    2    3    3    0    0  0.23580503586E+02  0.99782076114E+01  0.11003337456E+03  0.28608552856E+03  0.26283451326E+03 0.  0.
         25    1    3    3    0    0 -0.23580503586E+02 -0.99782076114E+01  0.27833651216E+03  0.30622594090E+03  0.12509000000E+03 0.  0.
         25    1    4    4    0    0 -0.32880210179E+00 -0.87644342982E+01  0.93251689694E+02  0.15626998800E+03  0.12509000000E+03 0.  0.
         25    1    4    4    0    0  0.23909305688E+02  0.18742641910E+02  0.16781684865E+02  0.12981554056E+03  0.12509000000E+03 0.  0.
<mgrwt>
<rscale>  2 0.44721551E+03</rscale>
<asrwt>0</asrwt>
<pdfrwt beam="1">  1       21 0.72108922E-01 0.44721551E+03</pdfrwt>
<pdfrwt beam="2">  1       21 0.14995705E-01 0.44721551E+03</pdfrwt>
<totfact> 0.62937421E+04</totfact>
</mgrwt>
</event>
<event>
 7    0  0.4685107E-002  0.4561552E+03  0.7546771E-02  0.1025902E+00
         21   -1    0    0  502  501  0.00000000000E+00  0.00000000000E+00  0.89038466238E+02  0.89038466238E+02  0.00000000000E+00 0.  1.
         21   -1    0    0  501  502 -0.00000000000E+00 -0.00000000000E+00 -0.58423496916E+03  0.58423496916E+03  0.00000000000E+00 0.  1.
      99926    2    1    2    0    0  0.71054273576E-14  0.00000000000E+00 -0.49519650292E+03  0.67327343540E+03  0.45615517350E+03 0.  0.
      99925    2    3    3    0    0 -0.50260046079E+02 -0.89014858132E+02 -0.23544888621E+03  0.36738775465E+03  0.26284570959E+03 0.  0.
         25    1    3    3    0    0  0.50260046079E+02  0.89014858132E+02 -0.25974761672E+03  0.30588568075E+03  0.12509000000E+03 0.  0.
         25    1    4    4    0    0 -0.27358358416E+02 -0.82583183123E+02 -0.10464586049E+03  0.18484243595E+03  0.12509000000E+03 0.  0.
         25    1    4    4    0    0 -0.22901687663E+02 -0.64316750086E+01 -0.13080302572E+03  0.18254531870E+03  0.12509000000E+03 0.  0.
<mgrwt>
<rscale>  2 0.45615517E+03</rscale>
<asrwt>0</asrwt>
<pdfrwt beam="1">  1       21 0.13093892E-01 0.45615517E+03</pdfrwt>
<pdfrwt beam="2">  1       21 0.85916907E-01 0.45615517E+03</pdfrwt>
<totfact> 0.53886147E+04</totfact>
</mgrwt>
</event>
<event>
 7    0  0.4685107E-002  0.4537382E+03  0.7546771E-02  0.1026613E+00
         21   -1    0    0  502  501  0.00000000000E+00  0.00000000000E+00  0.19024555859E+04  0.19024555859E+04  0.00000000000E+00 0.  1.
         21   -1    0    0  501  502 -0.00000000000E+00 -0.00000000000E+00 -0.27054292201E+02  0.27054292201E+02  0.00000000000E+00 0.  1.
      99926    2    1    2    0    0 -0.35527136788E-14  0.44408920985E-15  0.18754012937E+04  0.19295098781E+04  0.45373820346E+03 0.  0.
      99925    2    3    3    0    0  0.24676733790E+02 -0.28999978974E+01  0.71729097652E+03  0.76439856752E+03  0.26302371349E+03 0.  0.
         25    1    3    3    0    0 -0.24676733790E+02  0.28999978974E+01  0.11581103171E+04  0.11651113105E+04  0.12509000000E+03 0.  0.
         25    1    4    4    0    0  0.32297240069E+02 -0.57243793895E+01  0.46550811658E+03  0.48313682838E+03  0.12509000000E+03 0.  0.
         25    1    4    4    0    0 -0.76205062784E+01  0.28243814921E+01  0.25178285994E+03  0.28126173914E+03  0.12509000000E+03 0.  0.
<mgrwt>
<rscale>  2 0.45373820E+03</rscale>
<asrwt>0</asrwt>
<pdfrwt beam="1">  1       21 0.27977279E+00 0.45373820E+03</pdfrwt>
<pdfrwt beam="2">  1       21 0.39785737E-02 0.45373820E+03</pdfrwt>
<totfact> 0.15041762E+04</totfact>
</mgrwt>
</event>
<event>
 7    0  0.4685107E-002  0.4566825E+03  0.7546771E-02  0.1025748E+00
         21   -1    0    0  502  501  0.00000000000E+00  0.00000000000E+00  0.17702594620E+03  0.17702594620E+03  0.00000000000E+00 0. -1.
         21   -1    0    0  501  502 -0.00000000000E+00 -0.00000000000E+00 -0.29453150744E+03  0.29453150744E+03  0.00000000000E+00 0. -1.
      99926    2    1    2    0    0  0.00000000000E+00  0.00000000000E+00 -0.11750556125E+03  0.47155745364E+03  0.45668246645E+03 0.  0.
      99925    2    3    3    0    0 -0.58531146250E+02 -0.77144393503E+02 -0.10466860473E+02  0.28055498221E+03  0.26310528376E+03 0.  0.
         25    1    4    4    0    0 -0.62519460764E+02 -0.17312856021E+02  0.48324582079E+01  0.14099389600E+03  0.12509000000E+03 0.  0.
         25    1    4    4    0    0  0.39883145139E+01 -0.59831537482E+02 -0.15299318681E+02  0.13956108620E+03  0.12509000000E+03 0.  0.
         25    1    3    3    0    0  0.58531146250E+02  0.77144393503E+02 -0.10703870078E+03  0.19100247143E+03  0.12509000000E+03 0.  0.
<mgrwt>
<rscale>  2 0.45668247E+03</rscale>
<asrwt>0</asrwt>
<pdfrwt beam="1">  1       21 0.26033228E-01 0.45668247E+03</pdfrwt>
<pdfrwt beam="2">  1       21 0.43313456E-01 0.45668247E+03</pdfrwt>
<totfact> 0.66428974E+04</totfact>
</mgrwt>
</event>
<event>
 7    0  0.4685107E-002  0.4555930E+03  0.7546771E-02  0.1026067E+00
         21   -1    0    0  502  501  0.00000000000E+00  0.00000000000E+00  0.54252902867E+02  0.54252902867E+02  0.00000000000E+00 0.  1.
         21   -1    0    0  501  502 -0.00000000000E+00 -0.00000000000E+00 -0.95646966404E+03  0.95646966404E+03  0.00000000000E+00 0.  1.
      99926    2    1    2    0    0 -0.71054273576E-14  0.00000000000E+00 -0.90221676117E+03  0.10107225669E+04  0.45559304550E+03 0.  0.
      99925    2    3    3    0    0 -0.41459278394E+02  0.10582852761E+03 -0.57624433439E+03  0.64353858013E+03  0.26299395845E+03 0.  0.
         25    1    4    4    0    0 -0.27980272443E+02  0.73915993955E+02 -0.38454340536E+03  0.41202865012E+03  0.12509000000E+03 0.  0.
         25    1    4    4    0    0 -0.13479005951E+02  0.31912533656E+02 -0.19170092903E+03  0.23150993002E+03  0.12509000000E+03 0.  0.
         25    1    3    3    0    0  0.41459278394E+02 -0.10582852761E+03 -0.32597242678E+03  0.36718398677E+03  0.12509000000E+03 0.  0.
<mgrwt>
<rscale>  2 0.45559305E+03</rscale>
<asrwt>0</asrwt>
<pdfrwt beam="1">  1       21 0.79783687E-02 0.45559305E+03</pdfrwt>
<pdfrwt beam="2">  1       21 0.14065729E+00 0.45559305E+03</pdfrwt>
<totfact> 0.38573357E+04</totfact>
</mgrwt>
</event>
<event>
 7    0  0.4685107E-002  0.4548862E+03  0.7546771E-02  0.1026275E+00
         21   -1    0    0  502  501  0.00000000000E+00  0.00000000000E+00  0.76394406110E+02  0.76394406110E+02  0.00000000000E+00 0. -1.
         21   -1    0    0  501  502 -0.00000000000E+00 -0.00000000000E+00 -0.67714853943E+03  0.67714853943E+03  0.00000000000E+00 0. -1.
      99926    2    1    2    0    0  0.71054273576E-14  0.00000000000E+00 -0.60075413332E+03  0.75354294554E+03  0.45488618584E+03 0.  0.
      99925    2    3    3    0    0 -0.56351259594E+02  0.93573588154E+02 -0.32990940426E+03  0.43583890682E+03  0.26302824339E+03 0.  0.
         25    1    4    4    0    0 -0.34100604738E+02  0.84463327523E+02 -0.15092061990E+03  0.21615144355E+03  0.12509000000E+03 0.  0.
         25    1    3    3    0    0  0.56351259594E+02 -0.93573588154E+02 -0.27084472906E+03  0.31770403872E+03  0.12509000000E+03 0.  0.
         25    1    4    4    0    0 -0.22250654856E+02  0.91102606304E+01 -0.17898878436E+03  0.21968746326E+03  0.12509000000E+03 0.  0.
<mgrwt>
<rscale>  2 0.45488619E+03</rscale>
<asrwt>0</asrwt>
<pdfrwt beam="1">  1       21 0.11234472E-01 0.45488619E+03</pdfrwt>
<pdfrwt beam="2">  1       21 0.99580663E-01 0.45488619E+03</pdfrwt>
<totfact> 0.50135313E+04</totfact>
</mgrwt>
</event>
<event>
 7    0  0.4685107E-002  0.4517950E+03  0.7546771E-02  0.1027188E+00
         21   -1    0    0  502  501  0.00000000000E+00  0.00000000000E+00  0.12738488673E+03  0.12738488673E+03  0.00000000000E+00 0.  1.
         21   -1    0    0  501  502 -0.00000000000E+00 -0.00000000000E+00 -0.40059444947E+03  0.40059444947E+03  0.00000000000E+00 0.  1.
      99926    2    1    2    0    0  0.00000000000E+00  0.71054273576E-14 -0.27320956275E+03  0.52797933620E+03  0.45179499143E+03 0.  0.
      99925    2    3    3    0    0  0.28824062232E+02 -0.45147889212E+02 -0.28492917324E+03  0.39139963115E+03  0.26294463112E+03 0.  0.
         25    1    4    4    0    0  0.89344433732E+01 -0.57828113422E+02 -0.11921731015E+03  0.18243955196E+03  0.12509000000E+03 0.  0.
         25    1    3    3    0    0 -0.28824062232E+02  0.45147889212E+02  0.11719610493E+02  0.13657970506E+03  0.12509000000E+03 0.  0.
         25    1    4    4    0    0  0.19889618859E+02  0.12680224210E+02 -0.16571186309E+03  0.20896007918E+03  0.12509000000E+03 0.  0.
<mgrwt>
<rscale>  2 0.45179499E+03</rscale>
<asrwt>0</asrwt>
<pdfrwt beam="1">  1       21 0.18733072E-01 0.45179499E+03</pdfrwt>
<pdfrwt beam="2">  1       21 0.58910948E-01 0.45179499E+03</pdfrwt>
<totfact> 0.64978521E+04</totfact>
</mgrwt>
</event>
<event>
 7    0  0.4685107E-002  0.4522530E+03  0.7546771E-02  0.1027052E+00
         21   -1    0    0  502  501  0.00000000000E+00  0.00000000000E+00  0.13815899291E+04  0.13815899291E+04  0.00000000000E+00 0.  1.
         21   -1    0    0  501  502 -0.00000000000E+00 -0.00000000000E+00 -0.37010404595E+02  0.37010404595E+02  0.00000000000E+00 0.  1.
      99926    2    1    2    0    0  0.00000000000E+00  0.00000000000E+00  0.13445795245E+04  0.14186003336E+04  0.45225303651E+03 0.  0.
      99925    2    3    3    0    0 -0.49785794487E+02  0.87599117952E+02  0.99106471956E+03  0.10303060430E+04  0.26300006275E+03 0.  0.
         25    1    4    4    0    0 -0.45988434276E+02  0.43383514138E+02  0.63558318475E+03  0.65085371492E+03  0.12509000000E+03 0.  0.
         25    1    3    3    0    0  0.49785794487E+02 -0.87599117952E+02  0.35351480490E+03  0.38829429069E+03  0.12509000000E+03 0.  0.
         25    1    4    4    0    0 -0.37973602116E+01  0.44215603814E+02  0.35548153481E+03  0.37945232804E+03  0.12509000000E+03 0.  0.
<mgrwt>
<rscale>  2 0.45225304E+03</rscale>
<asrwt>0</asrwt>
<pdfrwt beam="1">  1       21 0.20317495E+00 0.45225304E+03</pdfrwt>
<pdfrwt beam="2">  1       21 0.54427075E-02 0.45225304E+03</pdfrwt>
<totfact> 0.26399575E+04</totfact>
</mgrwt>
</event>
<event>
 7    0  0.4685107E-002  0.4557302E+03  0.7546771E-02  0.1026027E+00
         21   -1    0    0  502  501  0.00000000000E+00  0.00000000000E+00  0.13292429083E+04  0.13292429083E+04  0.00000000000E+00 0.  1.
         21   -1    0    0  501  502 -0.00000000000E+00 -0.00000000000E+00 -0.39061707898E+02  0.39061707898E+02  0.00000000000E+00 0.  1.
      99926    2    1    2    0    0 -0.14210854715E-13  0.00000000000E+00  0.12901812004E+04  0.13683046162E+04  0.45573017548E+03 0.  0.
      99925    2    3    3    0    0  0.71621673572E+02 -0.81349431420E+01  0.10759592225E+04  0.11099745844E+04  0.26298191582E+03 0.  0.
         25    1    3    3    0    0 -0.71621673572E+02  0.81349431420E+01  0.21422197790E+03  0.25833003182E+03  0.12509000000E+03 0.  0.
         25    1    4    4    0    0  0.72410579239E+02 -0.59445784446E+01  0.65680749391E+03  0.67254904814E+03  0.12509000000E+03 0.  0.
         25    1    4    4    0    0 -0.78890566689E+00 -0.21903646974E+01  0.41915172862E+03  0.43742553626E+03  0.12509000000E+03 0.  0.
<mgrwt>
<rscale>  2 0.45573018E+03</rscale>
<asrwt>0</asrwt>
<pdfrwt beam="1">  1       21 0.19547687E+00 0.45573018E+03</pdfrwt>
<pdfrwt beam="2">  1       21 0.57443697E-02 0.45573018E+03</pdfrwt>
<totfact> 0.27035265E+04</totfact>
</mgrwt>
</event>
<event>
 7    0  0.4685107E-002  0.4623992E+03  0.7546771E-02  0.1024088E+00
         21   -1    0    0  502  501  0.00000000000E+00  0.00000000000E+00  0.13505052245E+03  0.13505052245E+03  0.00000000000E+00 0. -1.
         21   -1    0    0  501  502 -0.00000000000E+00 -0.00000000000E+00 -0.39580186079E+03  0.39580186079E+03  0.00000000000E+00 0. -1.
      99926    2    1    2    0    0  0.00000000000E+00  0.00000000000E+00 -0.26075133834E+03  0.53085238324E+03  0.46239916992E+03 0.  0.
      99925    2    3    3    0    0 -0.84246938595E+02  0.81554020859E+02 -0.13406179108E+03  0.31767087732E+03  0.26304679715E+03 0.  0.
         25    1    4    4    0    0 -0.44920703760E+02 -0.12408925793E+01 -0.61230894143E+02  0.14634254316E+03  0.12509000000E+03 0.  0.
         25    1    3    3    0    0  0.84246938595E+02 -0.81554020859E+02 -0.12668954726E+03  0.21318150592E+03  0.12509000000E+03 0.  0.
         25    1    4    4    0    0 -0.39326234835E+02  0.82794913439E+02 -0.72830896938E+02  0.17132833416E+03  0.12509000000E+03 0.  0.
<mgrwt>
<rscale>  2 0.46239917E+03</rscale>
<asrwt>0</asrwt>
<pdfrwt beam="1">  1       21 0.19860371E-01 0.46239917E+03</pdfrwt>
<pdfrwt beam="2">  1       21 0.58206155E-01 0.46239917E+03</pdfrwt>
<totfact> 0.59577102E+04</totfact>
</mgrwt>
</event>
<event>
 7    0  0.4685107E-002  0.4496773E+03  0.7546771E-02  0.1027818E+00
         21   -1    0    0  502  501  0.00000000000E+00  0.00000000000E+00  0.13903619758E+03  0.13903619758E+03  0.00000000000E+00 0. -1.
         21   -1    0    0  501  502 -0.00000000000E+00 -0.00000000000E+00 -0.36359183809E+03  0.36359183809E+03  0.00000000000E+00 0. -1.
      99926    2    1    2    0    0  0.00000000000E+00  0.00000000000E+00 -0.22455564052E+03  0.50262803567E+03  0.44967733604E+03 0.  0.
      99925    2    3    3    0    0 -0.82283479776E+02  0.61619246605E+02 -0.10448925133E+03  0.30105683607E+03  0.26296332882E+03 0.  0.
         25    1    4    4    0    0 -0.80359051456E+01  0.14261172743E+02 -0.24821711757E+02  0.12857520093E+03  0.12509000000E+03 0.  0.
         25    1    3    3    0    0  0.82283479776E+02 -0.61619246605E+02 -0.12006638919E+03  0.20157119960E+03  0.12509000000E+03 0.  0.
         25    1    4    4    0    0 -0.74247574630E+02  0.47358073861E+02 -0.79667539573E+02  0.17248163514E+03  0.12509000000E+03 0.  0.
<mgrwt>
<rscale>  2 0.44967734E+03</rscale>
<asrwt>0</asrwt>
<pdfrwt beam="1">  1       21 0.20446500E-01 0.44967734E+03</pdfrwt>
<pdfrwt beam="2">  1       21 0.53469388E-01 0.44967734E+03</pdfrwt>
<totfact> 0.67910393E+04</totfact>
</mgrwt>
</event>
<event>
 7    0  0.4685107E-002  0.4444184E+03  0.7546771E-02  0.1029400E+00
         21   -1    0    0  502  501  0.00000000000E+00  0.00000000000E+00  0.12610333018E+03  0.12610333018E+03  0.00000000000E+00 0. -1.
         21   -1    0    0  501  502 -0.00000000000E+00 -0.00000000000E+00 -0.39155922869E+03  0.39155922869E+03  0.00000000000E+00 0. -1.
      99926    2    1    2    0    0  0.00000000000E+00  0.00000000000E+00 -0.26545589851E+03  0.51766255887E+03  0.44441837362E+03 0.  0.
      99925    2    3    3    0    0  0.38926645239E+02 -0.67728975857E+02 -0.24661659088E+03  0.36898530610E+03  0.26311198251E+03 0.  0.
         25    1    3    3    0    0 -0.38926645239E+02  0.67728975857E+02 -0.18839307627E+02  0.14867725277E+03  0.12509000000E+03 0.  0.
         25    1    4    4    0    0  0.30219633959E+02 -0.35850742161E+02 -0.72295371082E+02  0.15189677669E+03  0.12509000000E+03 0.  0.
         25    1    4    4    0    0  0.87070112797E+01 -0.31878233697E+02 -0.17432121980E+03  0.21708852941E+03  0.12509000000E+03 0.  0.
<mgrwt>
<rscale>  2 0.44441837E+03</rscale>
<asrwt>0</asrwt>
<pdfrwt beam="1">  1       21 0.18544607E-01 0.44441837E+03</pdfrwt>
<pdfrwt beam="2">  1       21 0.57582240E-01 0.44441837E+03</pdfrwt>
<totfact> 0.69715603E+04</totfact>
</mgrwt>
</event>
<event>
 7    0  0.4685107E-002  0.4449092E+03  0.7546771E-02  0.1029251E+00
         21   -1    0    0  502  501  0.00000000000E+00  0.00000000000E+00  0.52021268758E+02  0.52021268758E+02  0.00000000000E+00 0. -1.
         21   -1    0    0  501  502 -0.00000000000E+00 -0.00000000000E+00 -0.95126549986E+03  0.95126549986E+03  0.00000000000E+00 0. -1.
      99926    2    1    2    0    0  0.00000000000E+00  0.00000000000E+00 -0.89924423110E+03  0.10032867686E+04  0.44490915130E+03 0.  0.
      99925    2    3    3    0    0 -0.81041910035E+02 -0.48333056104E+02 -0.47753439229E+03  0.55340837200E+03  0.26328284199E+03 0.  0.
         25    1    3    3    0    0  0.81041910035E+02  0.48333056104E+02 -0.42170983881E+03  0.44987839662E+03  0.12509000000E+03 0.  0.
         25    1    4    4    0    0 -0.40314622996E+02 -0.65791458056E+02 -0.25175501648E+03  0.29151651961E+03  0.12509000000E+03 0.  0.
         25    1    4    4    0    0 -0.40727287039E+02  0.17458401952E+02 -0.22577937581E+03  0.26189185239E+03  0.12509000000E+03 0.  0.
<mgrwt>
<rscale>  2 0.44490915E+03</rscale>
<asrwt>0</asrwt>
<pdfrwt beam="1">  1       21 0.76501874E-02 0.44490915E+03</pdfrwt>
<pdfrwt beam="2">  1       21 0.13989197E+00 0.44490915E+03</pdfrwt>
<totfact> 0.42273520E+04</totfact>
</mgrwt>
</event>
<event>
 7    0  0.4685107E-002  0.4636830E+03  0.7546771E-02  0.1023718E+00
         21   -1    0    0  502  501  0.00000000000E+00  0.00000000000E+00  0.35748091090E+03  0.35748091090E+03  0.00000000000E+00 0. -1.
         21   -1    0    0  501  502 -0.00000000000E+00 -0.00000000000E+00 -0.15035901303E+03  0.15035901303E+03  0.00000000000E+00 0. -1.
      99926    2    1    2    0    0  0.00000000000E+00  0.00000000000E+00  0.20712189787E+03  0.50783992393E+03  0.46368298196E+03 0.  0.
      99925    2    3    3    0    0  0.95607509861E+02  0.21250153534E+02  0.51244596426E+02  0.28526947178E+03  0.26298345556E+03 0.  0.
         25    1    3    3    0    0 -0.95607509861E+02 -0.21250153534E+02  0.15587730144E+03  0.22257045215E+03  0.12509000000E+03 0.  0.
         25    1    4    4    0    0  0.35696147500E+02 -0.79749685349E+01 -0.10316591282E+02  0.13073543982E+03  0.12509000000E+03 0.  0.
         25    1    4    4    0    0  0.59911362361E+02  0.29225122068E+02  0.61561187709E+02  0.15453403195E+03  0.12509000000E+03 0.  0.
<mgrwt>
<rscale>  2 0.46368298E+03</rscale>
<asrwt>0</asrwt>
<pdfrwt beam="1">  1       21 0.52570722E-01 0.46368298E+03</pdfrwt>
<pdfrwt beam="2">  1       21 0.22111620E-01 0.46368298E+03</pdfrwt>
<totfact> 0.60448410E+04</totfact>
</mgrwt>
</event>
<event>
 7    0  0.4685107E-002  0.4488403E+03  0.7546771E-02  0.1028068E+00
         21   -1    0    0  502  501  0.00000000000E+00  0.00000000000E+00  0.92298443691E+03  0.92298443691E+03  0.00000000000E+00 0. -1.
         21   -1    0    0  501  502 -0.00000000000E+00 -0.00000000000E+00 -0.54566901139E+02  0.54566901139E+02  0.00000000000E+00 0. -1.
      99926    2    1    2    0    0  0.35527136788E-14 -0.22204460493E-15  0.86841753577E+03  0.97755133804E+03  0.44884028572E+03 0.  0.
      99925    2    3    3    0    0 -0.22261570157E+02  0.15295347671E+01  0.77785435108E+03  0.82151571550E+03  0.26331115118E+03 0.  0.
         25    1    3    3    0    0  0.22261570157E+02 -0.15295347671E+01  0.90563184689E+02  0.15603562255E+03  0.12509000000E+03 0.  0.
         25    1    4    4    0    0  0.10171318402E+02 -0.14802434361E+02  0.48134952326E+03  0.49766197305E+03  0.12509000000E+03 0.  0.
         25    1    4    4    0    0 -0.32432888559E+02  0.16331969128E+02  0.29650482782E+03  0.32385374245E+03  0.12509000000E+03 0.  0.
<mgrwt>
<rscale>  2 0.44884029E+03</rscale>
<asrwt>0</asrwt>
<pdfrwt beam="1">  1       21 0.13573300E+00 0.44884029E+03</pdfrwt>
<pdfrwt beam="2">  1       21 0.80245449E-02 0.44884029E+03</pdfrwt>
<totfact> 0.42032482E+04</totfact>
</mgrwt>
</event>
<event>
 7    0  0.4685107E-002  0.4547445E+03  0.7546771E-02  0.1026317E+00
         21   -1    0    0  502  501  0.00000000000E+00  0.00000000000E+00  0.97057830545E+02  0.97057830545E+02  0.00000000000E+00 0. -1.
         21   -1    0    0  501  502 -0.00000000000E+00 -0.00000000000E+00 -0.53265301166E+03  0.53265301166E+03  0.00000000000E+00 0. -1.
      99926    2    1    2    0    0 -0.14210854715E-13  0.00000000000E+00 -0.43559518111E+03  0.62971084220E+03  0.45474452496E+03 0.  0.
      99925    2    3    3    0    0 -0.94867947987E+02 -0.32154680548E+02 -0.20197551531E+03  0.34640975257E+03  0.26300524112E+03 0.  0.
         25    1    3    3    0    0  0.94867947987E+02  0.32154680548E+02 -0.23361966580E+03  0.28330108963E+03  0.12509000000E+03 0.  0.
         25    1    4    4    0    0 -0.19406319168E+02 -0.41788182783E+02 -0.11543246072E+03  0.17633779666E+03  0.12509000000E+03 0.  0.
         25    1    4    4    0    0 -0.75461628819E+02  0.96335022346E+01 -0.86543054592E+02  0.17007195591E+03  0.12509000000E+03 0.  0.
<mgrwt>
<rscale>  2 0.45474452E+03</rscale>
<asrwt>0</asrwt>
<pdfrwt beam="1">  1       21 0.14273211E-01 0.45474452E+03</pdfrwt>
<pdfrwt beam="2">  1       21 0.78331323E-01 0.45474452E+03</pdfrwt>
<totfact> 0.57000630E+04</totfact>
</mgrwt>
</event>
<event>
 7    0  0.4685107E-002  0.4556706E+03  0.7546771E-02  0.1026044E+00
         21   -1    0    0  502  501  0.00000000000E+00  0.00000000000E+00  0.43915135532E+02  0.43915135532E+02  0.00000000000E+00 0.  1.
         21   -1    0    0  501  502 -0.00000000000E+00 -0.00000000000E+00 -0.11820282010E+04  0.11820282010E+04  0.00000000000E+00 0.  1.
      99926    2    1    2    0    0 -0.14210854715E-13  0.00000000000E+00 -0.11381130655E+04  0.12259433365E+04  0.45567062073E+03 0.  0.
      99925    2    3    3    0    0 -0.11295771792E+03 -0.85826070502E+01 -0.74165813678E+03  0.79506385714E+03  0.26312855774E+03 0.  0.
         25    1    3    3    0    0  0.11295771792E+03  0.85826070502E+01 -0.39645492871E+03  0.43087947941E+03  0.12509000000E+03 0.  0.
         25    1    4    4    0    0 -0.29982398450E+02  0.19131034997E+02 -0.27775487038E+03  0.30669238144E+03  0.12509000000E+03 0.  0.
         25    1    4    4    0    0 -0.82975319466E+02 -0.27713642047E+02 -0.46390326640E+03  0.48837147569E+03  0.12509000000E+03 0.  0.
<mgrwt>
<rscale>  2 0.45567062E+03</rscale>
<asrwt>0</asrwt>
<pdfrwt beam="1">  1       21 0.64581084E-02 0.45567062E+03</pdfrwt>
<pdfrwt beam="2">  1       21 0.17382767E+00 0.45567062E+03</pdfrwt>
<totfact> 0.31180430E+04</totfact>
</mgrwt>
</event>
<event>
 7    0  0.4685107E-002  0.4560876E+03  0.7546771E-02  0.1025922E+00
         21   -1    0    0  502  501  0.00000000000E+00  0.00000000000E+00  0.59590907988E+03  0.59590907988E+03  0.00000000000E+00 0.  1.
         21   -1    0    0  501  502 -0.00000000000E+00 -0.00000000000E+00 -0.87268286926E+02  0.87268286926E+02  0.00000000000E+00 0.  1.
      99926    2    1    2    0    0  0.00000000000E+00  0.00000000000E+00  0.50864079295E+03  0.68317736681E+03  0.45608755548E+03 0.  0.
      99925    2    3    3    0    0  0.90154884894E+02  0.54002310203E+02  0.38638210807E+03  0.47912137717E+03  0.26310075607E+03 0.  0.
         25    1    4    4    0    0  0.62967805847E+02 -0.85867352255E+01  0.17729254334E+03  0.22609473815E+03  0.12509000000E+03 0.  0.
         25    1    4    4    0    0  0.27187079046E+02  0.62589045428E+02  0.20908956472E+03  0.25302663901E+03  0.12509000000E+03 0.  0.
         25    1    3    3    0    0 -0.90154884894E+02 -0.54002310203E+02  0.12225868489E+03  0.20405598964E+03  0.12509000000E+03 0.  0.
<mgrwt>
<rscale>  2 0.45608756E+03</rscale>
<asrwt>0</asrwt>
<pdfrwt beam="1">  1       21 0.87633686E-01 0.45608756E+03</pdfrwt>
<pdfrwt beam="2">  1       21 0.12833572E-01 0.45608756E+03</pdfrwt>
<totfact> 0.53367711E+04</totfact>
</mgrwt>
</event>
<event>
 7    0  0.4685107E-002  0.4553195E+03  0.7546771E-02  0.1026148E+00
         21   -1    0    0  502  501  0.00000000000E+00  0.00000000000E+00  0.12823119923E+04  0.12823119923E+04  0.00000000000E+00 0.  1.
         21   -1    0    0  501  502 -0.00000000000E+00 -0.00000000000E+00 -0.40418363004E+02  0.40418363004E+02  0.00000000000E+00 0.  1.
      99926    2    1    2    0    0 -0.71054273576E-14  0.35527136788E-14  0.12418936293E+04  0.13227303553E+04  0.45531945528E+03 0.  0.
      99925    2    3    3    0    0  0.53366948620E+02  0.24371024529E+02  0.49948764130E+03  0.56757729986E+03  0.26308574545E+03 0.  0.
         25    1    4    4    0    0  0.55284425891E+02  0.45480668251E+01  0.31867792839E+03  0.34681433477E+03  0.12509000000E+03 0.  0.
         25    1    4    4    0    0 -0.19174772704E+01  0.19822957703E+02  0.18080971291E+03  0.22076296509E+03  0.12509000000E+03 0.  0.
         25    1    3    3    0    0 -0.53366948620E+02 -0.24371024529E+02  0.74240598802E+03  0.75515305547E+03  0.12509000000E+03 0.  0.
<mgrwt>
<rscale>  2 0.45531946E+03</rscale>
<asrwt>0</asrwt>
<pdfrwt beam="1">  1       21 0.18857527E+00 0.45531946E+03</pdfrwt>
<pdfrwt beam="2">  1       21 0.59438778E-02 0.45531946E+03</pdfrwt>
<totfact> 0.28391075E+04</totfact>
</mgrwt>
</event>
<event>
 7    0  0.4685107E-002  0.4493090E+03  0.7546771E-02  0.1027928E+00
         21   -1    0    0  502  501  0.00000000000E+00  0.00000000000E+00  0.76834467417E+03  0.76834467417E+03  0.00000000000E+00 0. -1.
         21   -1    0    0  501  502 -0.00000000000E+00 -0.00000000000E+00 -0.65686189301E+02  0.65686189301E+02  0.00000000000E+00 0. -1.
      99926    2    1    2    0    0 -0.14210854715E-13 -0.71054273576E-14  0.70265848487E+03  0.83403086347E+03  0.44930895258E+03 0.  0.
      99925    2    3    3    0    0  0.10316454879E+03  0.29002366568E+02  0.46559728364E+03  0.54536222537E+03  0.26297350615E+03 0.  0.
         25    1    4    4    0    0  0.59771950353E+02 -0.19417123623E+02  0.19245293443E+03  0.23798182874E+03  0.12509000000E+03 0.  0.
         25    1    3    3    0    0 -0.10316454879E+03 -0.29002366568E+02  0.23706120123E+03  0.28866863810E+03  0.12509000000E+03 0.  0.
         25    1    4    4    0    0  0.43392598439E+02  0.48419490191E+02  0.27314434921E+03  0.30738039663E+03  0.12509000000E+03 0.  0.
<mgrwt>
<rscale>  2 0.44930895E+03</rscale>
<asrwt>0</asrwt>
<pdfrwt beam="1">  1       21 0.11299186E+00 0.44930895E+03</pdfrwt>
<pdfrwt beam="2">  1       21 0.96597342E-02 0.44930895E+03</pdfrwt>
<totfact> 0.48282403E+04</totfact>
</mgrwt>
</event>
<event>
 7    0  0.4685107E-002  0.4589944E+03  0.7546771E-02  0.1025073E+00
         21   -1    0    0  502  501  0.00000000000E+00  0.00000000000E+00  0.50425331023E+02  0.50425331023E+02  0.00000000000E+00 0.  1.
         21   -1    0    0  501  502 -0.00000000000E+00 -0.00000000000E+00 -0.10444940883E+04  0.10444940883E+04  0.00000000000E+00 0.  1.
      99926    2    1    2    0    0 -0.14210854715E-13  0.00000000000E+00 -0.99406875730E+03  0.10949194193E+04  0.45899437973E+03 0.  0.
      99925    2    3    3    0    0  0.69150134994E+02  0.73696871001E+02 -0.76347001614E+03  0.81378554111E+03  0.26295906795E+03 0.  0.
         25    1    4    4    0    0  0.28584311239E+02  0.32699246650E+02 -0.25951924013E+03  0.29134867029E+03  0.12509000000E+03 0.  0.
         25    1    4    4    0    0  0.40565823755E+02  0.40997624351E+02 -0.50395077601E+03  0.52243687083E+03  0.12509000000E+03 0.  0.
         25    1    3    3    0    0 -0.69150134994E+02 -0.73696871001E+02 -0.23059874116E+03  0.28113387823E+03  0.12509000000E+03 0.  0.
<mgrwt>
<rscale>  2 0.45899438E+03</rscale>
<asrwt>0</asrwt>
<pdfrwt beam="1">  1       21 0.74154899E-02 0.45899438E+03</pdfrwt>
<pdfrwt beam="2">  1       21 0.15360207E+00 0.45899438E+03</pdfrwt>
<totfact> 0.34580689E+04</totfact>
</mgrwt>
</event>
<event>
 7    0  0.4685107E-002  0.4650142E+03  0.7546771E-02  0.1023337E+00
         21   -1    0    0  502  501  0.00000000000E+00  0.00000000000E+00  0.99062691620E+02  0.99062691620E+02  0.00000000000E+00 0. -1.
         21   -1    0    0  501  502 -0.00000000000E+00 -0.00000000000E+00 -0.54571045625E+03  0.54571045625E+03  0.00000000000E+00 0. -1.
      99926    2    1    2    0    0  0.00000000000E+00  0.00000000000E+00 -0.44664776463E+03  0.64477314787E+03  0.46501417888E+03 0.  0.
      99925    2    3    3    0    0  0.10492271548E+03  0.45806640902E+02 -0.33834981693E+03  0.44356932547E+03  0.26299453094E+03 0.  0.
         25    1    3    3    0    0 -0.10492271548E+03 -0.45806640902E+02 -0.10829794769E+03  0.20120382240E+03  0.12509000000E+03 0.  0.
         25    1    4    4    0    0  0.59283560124E+02  0.27929867315E+02 -0.23459538642E+03  0.27381950518E+03  0.12509000000E+03 0.  0.
         25    1    4    4    0    0  0.45639155352E+02  0.17876773586E+02 -0.10375443051E+03  0.16974982028E+03  0.12509000000E+03 0.  0.
<mgrwt>
<rscale>  2 0.46501418E+03</rscale>
<asrwt>0</asrwt>
<pdfrwt beam="1">  1       21 0.14568042E-01 0.46501418E+03</pdfrwt>
<pdfrwt beam="2">  1       21 0.80251540E-01 0.46501418E+03</pdfrwt>
<totfact> 0.51788281E+04</totfact>
</mgrwt>
</event>
<event>
 7    0  0.4685107E-002  0.4482330E+03  0.7546771E-02  0.1028250E+00
         21   -1    0    0  502  501  0.00000000000E+00  0.00000000000E+00  0.29603456913E+02  0.29603456913E+02  0.00000000000E+00 0.  1.
         21   -1    0    0  501  502 -0.00000000000E+00 -0.00000000000E+00 -0.16967007456E+04  0.16967007456E+04  0.00000000000E+00 0.  1.
      99926    2    1    2    0    0  0.00000000000E+00  0.00000000000E+00 -0.16670972887E+04  0.17263042025E+04  0.44823300823E+03 0.  0.
      99925    2    3    3    0    0  0.81259941677E+02 -0.67560730159E+02 -0.11097145236E+04  0.11453647175E+04  0.26310906812E+03 0.  0.
         25    1    4    4    0    0  0.66387967744E+02 -0.63237293654E+02 -0.53725212597E+03  0.55919019352E+03  0.12509000000E+03 0.  0.
         25    1    4    4    0    0  0.14871973934E+02 -0.43234365046E+01 -0.57246239764E+03  0.58617452394E+03  0.12509000000E+03 0.  0.
         25    1    3    3    0    0 -0.81259941677E+02  0.67560730159E+02 -0.55738276507E+03  0.58093948504E+03  0.12509000000E+03 0.  0.
<mgrwt>
<rscale>  2 0.44823301E+03</rscale>
<asrwt>0</asrwt>
<pdfrwt beam="1">  1       21 0.43534505E-02 0.44823301E+03</pdfrwt>
<pdfrwt beam="2">  1       21 0.24951476E+00 0.44823301E+03</pdfrwt>
<totfact> 0.19736133E+04</totfact>
</mgrwt>
</event>
<event>
 7    0  0.4685107E-002  0.4557612E+03  0.7546771E-02  0.1026018E+00
         21   -1    0    0  502  501  0.00000000000E+00  0.00000000000E+00  0.82616678088E+02  0.82616678088E+02  0.00000000000E+00 0. -1.
         21   -1    0    0  501  502 -0.00000000000E+00 -0.00000000000E+00 -0.62856035622E+03  0.62856035622E+03  0.00000000000E+00 0. -1.
      99926    2    1    2    0    0  0.35527136788E-14  0.14210854715E-13 -0.54594367813E+03  0.71117703431E+03  0.45576120330E+03 0.  0.
      99925    2    3    3    0    0 -0.29458331316E+02 -0.10676908302E+03 -0.30302867556E+03  0.41635058206E+03  0.26316154467E+03 0.  0.
         25    1    4    4    0    0 -0.78537925855E+00 -0.17901391760E+02 -0.16610167843E+03  0.20870637826E+03  0.12509000000E+03 0.  0.
         25    1    3    3    0    0  0.29458331316E+02  0.10676908302E+03 -0.24291500257E+03  0.29482645225E+03  0.12509000000E+03 0.  0.
         25    1    4    4    0    0 -0.28672952058E+02 -0.88867691257E+02 -0.13692699713E+03  0.20764420380E+03  0.12509000000E+03 0.  0.
<mgrwt>
<rscale>  2 0.45576120E+03</rscale>
<asrwt>0</asrwt>
<pdfrwt beam="1">  1       21 0.12149512E-01 0.45576120E+03</pdfrwt>
<pdfrwt beam="2">  1       21 0.92435340E-01 0.45576120E+03</pdfrwt>
<totfact> 0.51988288E+04</totfact>
</mgrwt>
</event>
<event>
 7    0  0.4685107E-002  0.4574539E+03  0.7546771E-02  0.1025522E+00
         21   -1    0    0  502  501  0.00000000000E+00  0.00000000000E+00  0.71569849639E+02  0.71569849639E+02  0.00000000000E+00 0. -1.
         21   -1    0    0  501  502 -0.00000000000E+00 -0.00000000000E+00 -0.73097836917E+03  0.73097836917E+03  0.00000000000E+00 0. -1.
      99926    2    1    2    0    0  0.14210854715E-13  0.35527136788E-14 -0.65940851953E+03  0.80254821881E+03  0.45745387514E+03 0.  0.
      99925    2    3    3    0    0  0.11226014922E+03  0.24018078189E+02 -0.39297778532E+03  0.48661776220E+03  0.26303250283E+03 0.  0.
         25    1    4    4    0    0  0.12478835155E+02  0.46109761198E+01 -0.16991052990E+03  0.21140974126E+03  0.12509000000E+03 0.  0.
         25    1    4    4    0    0  0.99781314069E+02  0.19407102069E+02 -0.22306725542E+03  0.27520802094E+03  0.12509000000E+03 0.  0.
         25    1    3    3    0    0 -0.11226014922E+03 -0.24018078189E+02 -0.26643073421E+03  0.31593045661E+03  0.12509000000E+03 0.  0.
<mgrwt>
<rscale>  2 0.45745388E+03</rscale>
<asrwt>0</asrwt>
<pdfrwt beam="1">  1       21 0.10524978E-01 0.45745388E+03</pdfrwt>
<pdfrwt beam="2">  1       21 0.10749682E+00 0.45745388E+03</pdfrwt>
<totfact> 0.46735291E+04</totfact>
</mgrwt>
</event>
<event>
 7    0  0.4685107E-002  0.4613396E+03  0.7546771E-02  0.1024393E+00
         21   -1    0    0  502  501  0.00000000000E+00  0.00000000000E+00  0.39381736410E+02  0.39381736410E+02  0.00000000000E+00 0. -1.
         21   -1    0    0  501  502 -0.00000000000E+00 -0.00000000000E+00 -0.13510973139E+04  0.13510973139E+04  0.00000000000E+00 0. -1.
      99926    2    1    2    0    0  0.14210854715E-13  0.00000000000E+00 -0.13117155775E+04  0.13904790503E+04  0.46133960714E+03 0.  0.
      99925    2    3    3    0    0 -0.10339825387E+03  0.58400665392E+02 -0.77749299355E+03  0.82910296076E+03  0.26232523307E+03 0.  0.
         25    1    3    3    0    0  0.10339825387E+03 -0.58400665392E+02 -0.53422258393E+03  0.56137608953E+03  0.12509000000E+03 0.  0.
         25    1    4    4    0    0 -0.23158777456E+02 -0.26767049699E+01 -0.33733365132E+03  0.36053431755E+03  0.12509000000E+03 0.  0.
         25    1    4    4    0    0 -0.80239476414E+02  0.61077370362E+02 -0.44015934223E+03  0.46856864321E+03  0.12509000000E+03 0.  0.
<mgrwt>
<rscale>  2 0.46133961E+03</rscale>
<asrwt>0</asrwt>
<pdfrwt beam="1">  1       21 0.57914322E-02 0.46133961E+03</pdfrwt>
<pdfrwt beam="2">  1       21 0.19869077E+00 0.46133961E+03</pdfrwt>
<totfact> 0.25316370E+04</totfact>
</mgrwt>
</event>
<event>
 7    0  0.4685107E-002  0.4579433E+03  0.7546771E-02  0.1025379E+00
         21   -1    0    0  502  501  0.00000000000E+00  0.00000000000E+00  0.13368223832E+04  0.13368223832E+04  0.00000000000E+00 0. -1.
         21   -1    0    0  501  502 -0.00000000000E+00 -0.00000000000E+00 -0.39218391222E+02  0.39218391222E+02  0.00000000000E+00 0. -1.
      99926    2    1    2    0    0  0.00000000000E+00  0.00000000000E+00  0.12976039920E+04  0.13760407744E+04  0.45794332933E+03 0.  0.
      99925    2    3    3    0    0 -0.10642616973E+03 -0.44354349350E+02  0.77950119530E+03  0.83072265265E+03  0.26302884678E+03 0.  0.
         25    1    4    4    0    0 -0.47681235969E+02 -0.29413740853E+02  0.27273640604E+03  0.30523978066E+03  0.12509000000E+03 0.  0.
         25    1    3    3    0    0  0.10642616973E+03  0.44354349350E+02  0.51810279667E+03  0.54531812177E+03  0.12509000000E+03 0.  0.
         25    1    4    4    0    0 -0.58744933762E+02 -0.14940608498E+02  0.50676478925E+03  0.52548287199E+03  0.12509000000E+03 0.  0.
<mgrwt>
<rscale>  2 0.45794333E+03</rscale>
<asrwt>0</asrwt>
<pdfrwt beam="1">  1       21 0.19659150E+00 0.45794333E+03</pdfrwt>
<pdfrwt beam="2">  1       21 0.57674114E-02 0.45794333E+03</pdfrwt>
<totfact> 0.26369145E+04</totfact>
</mgrwt>
</event>
<event>
 7    0  0.4685107E-002  0.4491498E+03  0.7546771E-02  0.1027976E+00
         21   -1    0    0  502  501  0.00000000000E+00  0.00000000000E+00  0.23703829053E+04  0.23703829053E+04  0.00000000000E+00 0. -1.
         21   -1    0    0  501  502 -0.00000000000E+00 -0.00000000000E+00 -0.21276685814E+02  0.21276685814E+02  0.00000000000E+00 0. -1.
      99926    2    1    2    0    0 -0.14210854715E-13  0.71054273576E-14  0.23491062194E+04  0.23916595911E+04  0.44914982950E+03 0.  0.
      99925    2    3    3    0    0 -0.92509244364E+02  0.53830000722E+02  0.14287917729E+04  0.14567361622E+04  0.26301841500E+03 0.  0.
         25    1    4    4    0    0 -0.34415484726E+02 -0.13519635498E+02  0.64518576463E+03  0.65823961071E+03  0.12509000000E+03 0.  0.
         25    1    4    4    0    0 -0.58093759637E+02  0.67349636221E+02  0.78360600832E+03  0.79849655151E+03  0.12509000000E+03 0.  0.
         25    1    3    3    0    0  0.92509244364E+02 -0.53830000722E+02  0.92031444650E+03  0.93492342885E+03  0.12509000000E+03 0.  0.
<mgrwt>
<rscale>  2 0.44914983E+03</rscale>
<asrwt>0</asrwt>
<pdfrwt beam="1">  1       21 0.34858554E+00 0.44914983E+03</pdfrwt>
<pdfrwt beam="2">  1       21 0.31289260E-02 0.44914983E+03</pdfrwt>
<totfact> 0.86932833E+03</totfact>
</mgrwt>
</event>
<event>
 7    0  0.4685107E-002  0.4468033E+03  0.7546771E-02  0.1028680E+00
         21   -1    0    0  502  501  0.00000000000E+00  0.00000000000E+00  0.46715864249E+03  0.46715864249E+03  0.00000000000E+00 0.  1.
         21   -1    0    0  501  502 -0.00000000000E+00 -0.00000000000E+00 -0.10683372340E+03  0.10683372340E+03  0.00000000000E+00 0.  1.
      99926    2    1    2    0    0  0.00000000000E+00  0.00000000000E+00  0.36032491909E+03  0.57399236589E+03  0.44680329988E+03 0.  0.
      99925    2    3    3    0    0  0.96429081399E+02 -0.29492342978E+02  0.19014206900E+03  0.33994519843E+03  0.26313564087E+03 0.  0.
         25    1    3    3    0    0 -0.96429081399E+02  0.29492342978E+02  0.17018285009E+03  0.23404716746E+03  0.12509000000E+03 0.  0.
         25    1    4    4    0    0  0.64396078968E+02  0.19910486716E+02  0.11356073190E+03  0.18189785705E+03  0.12509000000E+03 0.  0.
         25    1    4    4    0    0  0.32033002431E+02 -0.49402829694E+02  0.76581337104E+02  0.15804734139E+03  0.12509000000E+03 0.  0.
<mgrwt>
<rscale>  2 0.44680330E+03</rscale>
<asrwt>0</asrwt>
<pdfrwt beam="1">  1       21 0.68699800E-01 0.44680330E+03</pdfrwt>
<pdfrwt beam="2">  1       21 0.15710842E-01 0.44680330E+03</pdfrwt>
<totfact> 0.64380487E+04</totfact>
</mgrwt>
</event>
<event>
 7    0  0.4685107E-002  0.4563365E+03  0.7546771E-02  0.1025849E+00
         21   -1    0    0  502  501  0.00000000000E+00  0.00000000000E+00  0.63231538640E+03  0.63231538640E+03  0.00000000000E+00 0.  1.
         21   -1    0    0  501  502 -0.00000000000E+00 -0.00000000000E+00 -0.82333535964E+02  0.82333535964E+02  0.00000000000E+00 0.  1.
      99926    2    1    2    0    0  0.00000000000E+00  0.35527136788E-14  0.54998185043E+03  0.71464892236E+03  0.45633654952E+03 0.  0.
      99925    2    3    3    0    0 -0.11176518417E+03  0.29239833951E+02  0.33725919100E+03  0.44216981817E+03  0.26157974292E+03 0.  0.
         25    1    4    4    0    0 -0.71569612125E+02  0.10791134030E+02  0.12115352407E+03  0.18858510664E+03  0.12509000000E+03 0.  0.
         25    1    4    4    0    0 -0.40195572048E+02  0.18448699921E+02  0.21610566693E+03  0.25358471153E+03  0.12509000000E+03 0.  0.
         25    1    3    3    0    0  0.11176518417E+03 -0.29239833951E+02  0.21272265944E+03  0.27247910419E+03  0.12509000000E+03 0.  0.
<mgrwt>
<rscale>  2 0.45633655E+03</rscale>
<asrwt>0</asrwt>
<pdfrwt beam="1">  1       21 0.92987554E-01 0.45633655E+03</pdfrwt>
<pdfrwt beam="2">  1       21 0.12107873E-01 0.45633655E+03</pdfrwt>
<totfact> 0.51570481E+04</totfact>
</mgrwt>
</event>
<event>
 7    0  0.4685107E-002  0.4504696E+03  0.7546771E-02  0.1027582E+00
         21   -1    0    0  502  501  0.00000000000E+00  0.00000000000E+00  0.21695959707E+03  0.21695959707E+03  0.00000000000E+00 0. -1.
         21   -1    0    0  501  502 -0.00000000000E+00 -0.00000000000E+00 -0.23382562314E+03  0.23382562314E+03  0.00000000000E+00 0. -1.
      99926    2    1    2    0    0  0.00000000000E+00  0.00000000000E+00 -0.16866026075E+02  0.45078522021E+03  0.45046959045E+03 0.  0.
      99925    2    3    3    0    0  0.31654446721E+02 -0.18899860740E+02  0.91845201176E+02  0.28100640008E+03  0.26300161059E+03 0.  0.
         25    1    3    3    0    0 -0.31654446721E+02  0.18899860740E+02 -0.10871122725E+03  0.16977882013E+03  0.12509000000E+03 0.  0.
         25    1    4    4    0    0  0.33963824233E+02  0.20799018985E+02  0.24736537559E+02  0.13358721847E+03  0.12509000000E+03 0.  0.
         25    1    4    4    0    0 -0.23093775125E+01 -0.39698879725E+02  0.67108663617E+02  0.14741918162E+03  0.12509000000E+03 0.  0.
<mgrwt>
<rscale>  2 0.45046959E+03</rscale>
<asrwt>0</asrwt>
<pdfrwt beam="1">  1       21 0.31905823E-01 0.45046959E+03</pdfrwt>
<pdfrwt beam="2">  1       21 0.34386121E-01 0.45046959E+03</pdfrwt>
<totfact> 0.71402012E+04</totfact>
</mgrwt>
</event>
<event>
 7    0  0.4685107E-002  0.4544618E+03  0.7546771E-02  0.1026400E+00
         21   -1    0    0  502  501  0.00000000000E+00  0.00000000000E+00  0.43842274430E+03  0.43842274430E+03  0.00000000000E+00 0. -1.
         21   -1    0    0  501  502 -0.00000000000E+00 -0.00000000000E+00 -0.11777188639E+03  0.11777188639E+03  0.00000000000E+00 0. -1.
      99926    2    1    2    0    0  0.00000000000E+00  0.00000000000E+00  0.32065085791E+03  0.55619463070E+03  0.45446176356E+03 0.  0.
      99925    2    3    3    0    0  0.84681632964E+02 -0.72730272138E+02  0.18308019102E+03  0.33932170031E+03  0.26298324758E+03 0.  0.
         25    1    4    4    0    0  0.81397587918E+02 -0.55822486672E+02  0.98059713330E+02  0.18709605238E+03  0.12509000000E+03 0.  0.
         25    1    4    4    0    0  0.32840450460E+01 -0.16907785465E+02  0.85020477686E+02  0.15222564793E+03  0.12509000000E+03 0.  0.
         25    1    3    3    0    0 -0.84681632964E+02  0.72730272138E+02  0.13757066689E+03  0.21687293039E+03  0.12509000000E+03 0.  0.
<mgrwt>
<rscale>  2 0.45446176E+03</rscale>
<asrwt>0</asrwt>
<pdfrwt beam="1">  1       21 0.64473932E-01 0.45446176E+03</pdfrwt>
<pdfrwt beam="2">  1       21 0.17319395E-01 0.45446176E+03</pdfrwt>
<totfact> 0.61721390E+04</totfact>
</mgrwt>
</event>
<event>
 7    0  0.4685107E-002  0.4288280E+03  0.7546771E-02  0.1034231E+00
         21   -1    0    0  502  501  0.00000000000E+00  0.00000000000E+00  0.11209908942E+03  0.11209908942E+03  0.00000000000E+00 0. -1.
         21   -1    0    0  501  502 -0.00000000000E+00 -0.00000000000E+00 -0.41011356404E+03  0.41011356404E+03  0.00000000000E+00 0. -1.
      99926    2    1    2    0    0 -0.17763568394E-14  0.14210854715E-13 -0.29801447461E+03  0.52221265346E+03  0.42882797059E+03 0.  0.
      99925    2    3    3    0    0  0.14103817492E+02 -0.84811776364E+02 -0.18230674199E+03  0.33135212175E+03  0.26299529527E+03 0.  0.
         25    1    4    4    0    0  0.38546936204E+01 -0.11957559711E+01 -0.94658546186E+02  0.15692047974E+03  0.12509000000E+03 0.  0.
         25    1    3    3    0    0 -0.14103817492E+02  0.84811776364E+02 -0.11570773263E+03  0.19086053172E+03  0.12509000000E+03 0.  0.
         25    1    4    4    0    0  0.10249123872E+02 -0.83616020392E+02 -0.87648195803E+02  0.17443164201E+03  0.12509000000E+03 0.  0.
<mgrwt>
<rscale>  2 0.42882797E+03</rscale>
<asrwt>0</asrwt>
<pdfrwt beam="1">  1       21 0.16485161E-01 0.42882797E+03</pdfrwt>
<pdfrwt beam="2">  1       21 0.60310817E-01 0.42882797E+03</pdfrwt>
<totfact> 0.78853912E+04</totfact>
</mgrwt>
</event>
<event>
 7    0  0.4685107E-002  0.4604948E+03  0.7546771E-02  0.1024638E+00
         21   -1    0    0  502  501  0.00000000000E+00  0.00000000000E+00  0.17409849361E+04  0.17409849361E+04  0.00000000000E+00 0.  1.
         21   -1    0    0  501  502 -0.00000000000E+00 -0.00000000000E+00 -0.30450505602E+02  0.30450505602E+02  0.00000000000E+00 0.  1.
      99926    2    1    2    0    0 -0.71054273576E-14  0.00000000000E+00  0.17105344305E+04  0.17714354417E+04  0.46049482755E+03 0.  0.
      99925    2    3    3    0    0  0.63473541187E+02  0.93505441748E+02  0.12053719217E+04  0.12388860764E+04  0.26295452584E+03 0.  0.
         25    1    4    4    0    0 -0.77764689570E+01  0.32121699296E+02  0.51603605658E+03  0.53200845559E+03  0.12509000000E+03 0.  0.
         25    1    4    4    0    0  0.71250010144E+02  0.61383742452E+02  0.68933586513E+03  0.70687762083E+03  0.12509000000E+03 0.  0.
         25    1    3    3    0    0 -0.63473541187E+02 -0.93505441748E+02  0.50516250882E+03  0.53254936530E+03  0.12509000000E+03 0.  0.
<mgrwt>
<rscale>  2 0.46049483E+03</rscale>
<asrwt>0</asrwt>
<pdfrwt beam="1">  1       21 0.25602713E+00 0.46049483E+03</pdfrwt>
<pdfrwt beam="2">  1       21 0.44780167E-02 0.46049483E+03</pdfrwt>
<totfact> 0.17074744E+04</totfact>
</mgrwt>
</event>
<event>
 7    0  0.4685107E-002  0.4559907E+03  0.7546771E-02  0.1025950E+00
         21   -1    0    0  502  501  0.00000000000E+00  0.00000000000E+00  0.30732711875E+03  0.30732711875E+03  0.00000000000E+00 0. -1.
         21   -1    0    0  501  502 -0.00000000000E+00 -0.00000000000E+00 -0.16914188775E+03  0.16914188775E+03  0.00000000000E+00 0. -1.
      99926    2    1    2    0    0 -0.71054273576E-14  0.00000000000E+00  0.13818523100E+03  0.47646900649E+03  0.45599074122E+03 0.  0.
      99925    2    3    3    0    0 -0.49779966574E+02  0.10279721084E+03  0.80991322122E+02  0.29768432331E+03  0.26269954407E+03 0.  0.
         25    1    4    4    0    0 -0.58866144959E+02  0.32071265669E+02  0.49405091894E+02  0.15027361814E+03  0.12509000000E+03 0.  0.
         25    1    3    3    0    0  0.49779966574E+02 -0.10279721084E+03  0.57193908878E+02  0.17878468318E+03  0.12509000000E+03 0.  0.
         25    1    4    4    0    0  0.90861783842E+01  0.70725945172E+02  0.31586230227E+02  0.14741070517E+03  0.12509000000E+03 0.  0.
<mgrwt>
<rscale>  2 0.45599074E+03</rscale>
<asrwt>0</asrwt>
<pdfrwt beam="1">  1       21 0.45195165E-01 0.45599074E+03</pdfrwt>
<pdfrwt beam="2">  1       21 0.24873807E-01 0.45599074E+03</pdfrwt>
<totfact> 0.66434152E+04</totfact>
</mgrwt>
</event>
<event>
 7    0  0.4685107E-002  0.4552942E+03  0.7546771E-02  0.1026155E+00
         21   -1    0    0  502  501  0.00000000000E+00  0.00000000000E+00  0.20887318624E+03  0.20887318624E+03  0.00000000000E+00 0. -1.
         21   -1    0    0  501  502 -0.00000000000E+00 -0.00000000000E+00 -0.24810841207E+03  0.24810841207E+03  0.00000000000E+00 0. -1.
      99926    2    1    2    0    0  0.00000000000E+00 -0.14210854715E-13 -0.39235225834E+02  0.45698159831E+03  0.45529416672E+03 0.  0.
      99925    2    3    3    0    0 -0.65055712375E+02 -0.82024911460E+02 -0.68453011956E+02  0.29126642417E+03  0.26303988898E+03 0.  0.
         25    1    4    4    0    0 -0.45659941333E+02 -0.76665288048E+02 -0.57629127725E+02  0.16410673690E+03  0.12509000000E+03 0.  0.
         25    1    4    4    0    0 -0.19395771042E+02 -0.53596234112E+01 -0.10823884231E+02  0.12715968727E+03  0.12509000000E+03 0.  0.
         25    1    3    3    0    0  0.65055712375E+02  0.82024911460E+02  0.29217786122E+02  0.16571517413E+03  0.12509000000E+03 0.  0.
<mgrwt>
<rscale>  2 0.45529417E+03</rscale>
<asrwt>0</asrwt>
<pdfrwt beam="1">  1       21 0.30716645E-01 0.45529417E+03</pdfrwt>
<pdfrwt beam="2">  1       21 0.36486531E-01 0.45529417E+03</pdfrwt>
<totfact> 0.68240585E+04</totfact>
</mgrwt>
</event>
<event>
 7    0  0.4685107E-002  0.4347227E+03  0.7546771E-02  0.1032378E+00
         21   -1    0    0  502  501  0.00000000000E+00  0.00000000000E+00  0.46636546616E+03  0.46636546616E+03  0.00000000000E+00 0.  1.
         21   -1    0    0  501  502 -0.00000000000E+00 -0.00000000000E+00 -0.10130673672E+03  0.10130673672E+03  0.00000000000E+00 0.  1.
      99926    2    1    2    0    0  0.00000000000E+00  0.00000000000E+00  0.36505872944E+03  0.56767220288E+03  0.43472273231E+03 0.  0.
      99925    2    3    3    0    0  0.73992000577E+02  0.44992350859E+02  0.27838032059E+03  0.39257285267E+03  0.26290438181E+03 0.  0.
         25    1    3    3    0    0 -0.73992000577E+02 -0.44992350859E+02  0.86678408850E+02  0.17509935022E+03  0.12509000000E+03 0.  0.
         25    1    4    4    0    0 -0.92024157656E+00  0.22427453242E+02  0.10452400755E+03  0.16454973035E+03  0.12509000000E+03 0.  0.
         25    1    4    4    0    0  0.74912242153E+02  0.22564897618E+02  0.17385631303E+03  0.22802312231E+03  0.12509000000E+03 0.  0.
<mgrwt>
<rscale>  2 0.43472273E+03</rscale>
<asrwt>0</asrwt>
<pdfrwt beam="1">  1       21 0.68583156E-01 0.43472273E+03</pdfrwt>
<pdfrwt beam="2">  1       21 0.14898050E-01 0.43472273E+03</pdfrwt>
<totfact> 0.71508684E+04</totfact>
</mgrwt>
</event>
<event>
 7    0  0.4685107E-002  0.4543440E+03  0.7546771E-02  0.1026434E+00
         21   -1    0    0  502  501  0.00000000000E+00  0.00000000000E+00  0.26685290147E+03  0.26685290147E+03  0.00000000000E+00 0.  1.
         21   -1    0    0  501  502 -0.00000000000E+00 -0.00000000000E+00 -0.19339166242E+03  0.19339166242E+03  0.00000000000E+00 0.  1.
      99926    2    1    2    0    0  0.00000000000E+00 -0.44408920985E-15  0.73461239046E+02  0.46024456390E+03  0.45434403810E+03 0.  0.
      99925    2    3    3    0    0 -0.11253337526E+03 -0.28139336763E+01  0.46194067937E+02  0.28976674865E+03  0.26298136425E+03 0.  0.
         25    1    4    4    0    0 -0.41736335674E+02  0.29478453982E+02 -0.82895678156E+00  0.13512622334E+03  0.12509000000E+03 0.  0.
         25    1    3    3    0    0  0.11253337526E+03  0.28139336763E+01  0.27267171109E+02  0.17047781524E+03  0.12509000000E+03 0.  0.
         25    1    4    4    0    0 -0.70797039586E+02 -0.32292387658E+02  0.47023024719E+02  0.15464052531E+03  0.12509000000E+03 0.  0.
<mgrwt>
<rscale>  2 0.45434404E+03</rscale>
<asrwt>0</asrwt>
<pdfrwt beam="1">  1       21 0.39243074E-01 0.45434404E+03</pdfrwt>
<pdfrwt beam="2">  1       21 0.28439950E-01 0.45434404E+03</pdfrwt>
<totfact> 0.68520430E+04</totfact>
</mgrwt>
</event>
<event>
 7    0  0.4685107E-002  0.4426058E+03  0.7546771E-02  0.1029950E+00
         21   -1    0    0  502  501  0.00000000000E+00  0.00000000000E+00  0.29941340007E+03  0.29941340007E+03  0.00000000000E+00 0.  1.
         21   -1    0    0  501  502 -0.00000000000E+00 -0.00000000000E+00 -0.16356974690E+03  0.16356974690E+03  0.00000000000E+00 0.  1.
      99926    2    1    2    0    0  0.00000000000E+00  0.00000000000E+00  0.13584365317E+03  0.46298314698E+03  0.44260580235E+03 0.  0.
      99925    2    3    3    0    0  0.51989453969E+02  0.86483965862E+02  0.80723600489E+02  0.29307697292E+03  0.26305024749E+03 0.  0.
         25    1    4    4    0    0  0.14813538809E+02  0.36176164117E+01  0.23183921678E+02  0.12813091120E+03  0.12509000000E+03 0.  0.
         25    1    3    3    0    0 -0.51989453969E+02 -0.86483965862E+02  0.55120052683E+02  0.16990617406E+03  0.12509000000E+03 0.  0.
         25    1    4    4    0    0  0.37175915160E+02  0.82866349450E+02  0.57539678812E+02  0.16494606172E+03  0.12509000000E+03 0.  0.
<mgrwt>
<rscale>  2 0.44260580E+03</rscale>
<asrwt>0</asrwt>
<pdfrwt beam="1">  1       21 0.44031383E-01 0.44260580E+03</pdfrwt>
<pdfrwt beam="2">  1       21 0.24054374E-01 0.44260580E+03</pdfrwt>
<totfact> 0.75076504E+04</totfact>
</mgrwt>
</event>
<event>
 7    0  0.4685107E-002  0.4581994E+03  0.7546771E-02  0.1025305E+00
         21   -1    0    0  502  501  0.00000000000E+00  0.00000000000E+00  0.46228128352E+03  0.46228128352E+03  0.00000000000E+00 0. -1.
         21   -1    0    0  501  502 -0.00000000000E+00 -0.00000000000E+00 -0.11353837436E+03  0.11353837436E+03  0.00000000000E+00 0. -1.
      99926    2    1    2    0    0  0.00000000000E+00  0.35527136788E-14  0.34874290916E+03  0.57581965788E+03  0.45819936895E+03 0.  0.
      99925    2    3    3    0    0  0.74787062447E+02  0.26927471601E+02  0.32516378052E+03  0.42574741913E+03  0.26308019176E+03 0.  0.
         25    1    3    3    0    0 -0.74787062447E+02 -0.26927471601E+02  0.23579128640E+02  0.15007223875E+03  0.12509000000E+03 0.  0.
         25    1    4    4    0    0  0.22927962853E+02 -0.52856666600E+01  0.20777633244E+03  0.24366399442E+03  0.12509000000E+03 0.  0.
         25    1    4    4    0    0  0.51859099594E+02  0.32213138261E+02  0.11738744808E+03  0.18208342471E+03  0.12509000000E+03 0.  0.
<mgrwt>
<rscale>  2 0.45819937E+03</rscale>
<asrwt>0</asrwt>
<pdfrwt beam="1">  1       21 0.67982541E-01 0.45819937E+03</pdfrwt>
<pdfrwt beam="2">  1       21 0.16696820E-01 0.45819937E+03</pdfrwt>
<totfact> 0.58693005E+04</totfact>
</mgrwt>
</event>
<event>
 7    0  0.4685107E-002  0.4543053E+03  0.7546771E-02  0.1026446E+00
         21   -1    0    0  502  501  0.00000000000E+00  0.00000000000E+00  0.33499557536E+02  0.33499557536E+02  0.00000000000E+00 0.  1.
         21   -1    0    0  501  502 -0.00000000000E+00 -0.00000000000E+00 -0.15402687354E+04  0.15402687354E+04  0.00000000000E+00 0.  1.
      99926    2    1    2    0    0  0.88817841970E-15  0.00000000000E+00 -0.15067691779E+04  0.15737682929E+04  0.45430527676E+03 0.  0.
      99925    2    3    3    0    0 -0.67493267095E+01  0.91943417680E+02 -0.11742611852E+04  0.12067421103E+04  0.26237005202E+03 0.  0.
         25    1    3    3    0    0  0.67493267095E+01 -0.91943417680E+02 -0.33250799263E+03  0.36702618262E+03  0.12509000000E+03 0.  0.
         25    1    4    4    0    0  0.10827604650E+01  0.73187475427E+02 -0.49590934887E+03  0.51665381962E+03  0.12509000000E+03 0.  0.
         25    1    4    4    0    0 -0.78320871745E+01  0.18755942253E+02 -0.67835183637E+03  0.69008829070E+03  0.12509000000E+03 0.  0.
<mgrwt>
<rscale>  2 0.45430528E+03</rscale>
<asrwt>0</asrwt>
<pdfrwt beam="1">  1       21 0.49264056E-02 0.45430528E+03</pdfrwt>
<pdfrwt beam="2">  1       21 0.22651011E+00 0.45430528E+03</pdfrwt>
<totfact> 0.22146951E+04</totfact>
</mgrwt>
</event>
<event>
 7    0  0.4685107E-002  0.4545989E+03  0.7546771E-02  0.1026359E+00
         21   -1    0    0  502  501  0.00000000000E+00  0.00000000000E+00  0.23868667162E+03  0.23868667162E+03  0.00000000000E+00 0. -1.
         21   -1    0    0  501  502 -0.00000000000E+00 -0.00000000000E+00 -0.21645548598E+03  0.21645548598E+03  0.00000000000E+00 0. -1.
      99926    2    1    2    0    0 -0.17763568394E-14  0.00000000000E+00  0.22231185641E+02  0.45514215760E+03  0.45459889794E+03 0.  0.
      99925    2    3    3    0    0 -0.52288124134E+01 -0.70630166808E+02  0.10186408557E+03  0.29081057879E+03  0.26301813600E+03 0.  0.
         25    1    4    4    0    0 -0.30018928017E+02 -0.19283579469E+02  0.22306657001E+02  0.13197760235E+03  0.12509000000E+03 0.  0.
         25    1    3    3    0    0  0.52288124134E+01  0.70630166808E+02 -0.79632899926E+02  0.16433157881E+03  0.12509000000E+03 0.  0.
         25    1    4    4    0    0  0.24790115603E+02 -0.51346587339E+02  0.79557428567E+02  0.15883297643E+03  0.12509000000E+03 0.  0.
<mgrwt>
<rscale>  2 0.45459890E+03</rscale>
<asrwt>0</asrwt>
<pdfrwt beam="1">  1       21 0.35100981E-01 0.45459890E+03</pdfrwt>
<pdfrwt beam="2">  1       21 0.31831689E-01 0.45459890E+03</pdfrwt>
<totfact> 0.68755182E+04</totfact>
</mgrwt>
</event>
<event>
 7    0  0.4685107E-002  0.4574695E+03  0.7546771E-02  0.1025518E+00
         21   -1    0    0  502  501  0.00000000000E+00  0.00000000000E+00  0.16201845317E+03  0.16201845317E+03  0.00000000000E+00 0. -1.
         21   -1    0    0  501  502 -0.00000000000E+00 -0.00000000000E+00 -0.32292355807E+03  0.32292355807E+03  0.00000000000E+00 0. -1.
      99926    2    1    2    0    0  0.00000000000E+00  0.71054273576E-14 -0.16090510490E+03  0.48494201125E+03  0.45746945416E+03 0.  0.
      99925    2    3    3    0    0 -0.10043032955E+03  0.56891127795E+02 -0.97067826943E+02  0.30315763988E+03  0.26298201473E+03 0.  0.
         25    1    3    3    0    0  0.10043032955E+03 -0.56891127795E+02 -0.63837277957E+02  0.18178437137E+03  0.12509000000E+03 0.  0.
         25    1    4    4    0    0 -0.60815855919E+02  0.26926878662E+02 -0.82709347854E+01  0.14191385270E+03  0.12509000000E+03 0.  0.
         25    1    4    4    0    0 -0.39614473634E+02  0.29964249133E+02 -0.88796892157E+02  0.16124378718E+03  0.12509000000E+03 0.  0.
<mgrwt>
<rscale>  2 0.45746945E+03</rscale>
<asrwt>0</asrwt>
<pdfrwt beam="1">  1       21 0.23826243E-01 0.45746945E+03</pdfrwt>
<pdfrwt beam="2">  1       21 0.47488758E-01 0.45746945E+03</pdfrwt>
<totfact> 0.65057386E+04</totfact>
</mgrwt>
</event>
<event>
 7    0  0.4685107E-002  0.4522179E+03  0.7546771E-02  0.1027063E+00
         21   -1    0    0  502  501  0.00000000000E+00  0.00000000000E+00  0.35763155013E+02  0.35763155013E+02  0.00000000000E+00 0.  1.
         21   -1    0    0  501  502 -0.00000000000E+00 -0.00000000000E+00 -0.14295509101E+04  0.14295509101E+04  0.00000000000E+00 0.  1.
      99926    2    1    2    0    0  0.00000000000E+00  0.71054273576E-14 -0.13937877551E+04  0.14653140651E+04  0.45221787138E+03 0.  0.
      99925    2    3    3    0    0 -0.76458777772E+02 -0.61223132071E+02 -0.71278165479E+03  0.76602082666E+03  0.26293726035E+03 0.  0.
         25    1    3    3    0    0  0.76458777772E+02  0.61223132071E+02 -0.68100610033E+03  0.69929323848E+03  0.12509000000E+03 0.  0.
         25    1    4    4    0    0 -0.67962044543E+02 -0.55804620944E+02 -0.34343797308E+03  0.37593901722E+03  0.12509000000E+03 0.  0.
         25    1    4    4    0    0 -0.84967332293E+01 -0.54185111269E+01 -0.36934368171E+03  0.39008180944E+03  0.12509000000E+03 0.  0.
<mgrwt>
<rscale>  2 0.45221787E+03</rscale>
<asrwt>0</asrwt>
<pdfrwt beam="1">  1       21 0.52592891E-02 0.45221787E+03</pdfrwt>
<pdfrwt beam="2">  1       21 0.21022801E+00 0.45221787E+03</pdfrwt>
<totfact> 0.25182003E+04</totfact>
</mgrwt>
</event>
<event>
 7    0  0.4685107E-002  0.4586086E+03  0.7546771E-02  0.1025186E+00
         21   -1    0    0  502  501  0.00000000000E+00  0.00000000000E+00  0.10011097009E+04  0.10011097009E+04  0.00000000000E+00 0.  1.
         21   -1    0    0  501  502 -0.00000000000E+00 -0.00000000000E+00 -0.52522177397E+02  0.52522177397E+02  0.00000000000E+00 0.  1.
      99926    2    1    2    0    0  0.00000000000E+00 -0.17763568394E-14  0.94858752345E+03  0.10536318782E+04  0.45860859696E+03 0.  0.
      99925    2    3    3    0    0 -0.87951266364E+02  0.14050688311E+02  0.76771383346E+03  0.81636484107E+03  0.26293378741E+03 0.  0.
         25    1    3    3    0    0  0.87951266364E+02 -0.14050688311E+02  0.18087369000E+03  0.23726703718E+03  0.12509000000E+03 0.  0.
         25    1    4    4    0    0 -0.62073335512E+02 -0.27274613657E+02  0.35913664900E+03  0.38629476347E+03  0.12509000000E+03 0.  0.
         25    1    4    4    0    0 -0.25877930851E+02  0.41325301969E+02  0.40857718446E+03  0.43007007760E+03  0.12509000000E+03 0.  0.
<mgrwt>
<rscale>  2 0.45860860E+03</rscale>
<asrwt>0</asrwt>
<pdfrwt beam="1">  1       21 0.14722200E+00 0.45860860E+03</pdfrwt>
<pdfrwt beam="2">  1       21 0.77238502E-02 0.45860860E+03</pdfrwt>
<totfact> 0.36116412E+04</totfact>
</mgrwt>
</event>
<event>
 7    0  0.4685107E-002  0.4593376E+03  0.7546771E-02  0.1024974E+00
         21   -1    0    0  502  501  0.00000000000E+00  0.00000000000E+00  0.51975141216E+03  0.51975141216E+03  0.00000000000E+00 0.  1.
         21   -1    0    0  501  502 -0.00000000000E+00 -0.00000000000E+00 -0.10148652114E+03  0.10148652114E+03  0.00000000000E+00 0.  1.
      99926    2    1    2    0    0  0.00000000000E+00  0.00000000000E+00  0.41826489102E+03  0.62123793330E+03  0.45933762170E+03 0.  0.
      99925    2    3    3    0    0  0.23386767242E+02 -0.99207942887E+02  0.18293253751E+03  0.33589957008E+03  0.26263101700E+03 0.  0.
         25    1    4    4    0    0 -0.26522896776E+02 -0.60726083769E+02  0.96185717924E+02  0.17114415484E+03  0.12509000000E+03 0.  0.
         25    1    3    3    0    0 -0.23386767242E+02  0.99207942887E+02  0.23533235351E+03  0.28533836321E+03  0.12509000000E+03 0.  0.
         25    1    4    4    0    0  0.49909664018E+02 -0.38481859119E+02  0.86746819586E+02  0.16475541524E+03  0.12509000000E+03 0.  0.
<mgrwt>
<rscale>  2 0.45933762E+03</rscale>
<asrwt>0</asrwt>
<pdfrwt beam="1">  1       21 0.76434030E-01 0.45933762E+03</pdfrwt>
<pdfrwt beam="2">  1       21 0.14924489E-01 0.45933762E+03</pdfrwt>
<totfact> 0.55465356E+04</totfact>
</mgrwt>
</event>
<event>
 7    0  0.4685107E-002  0.4565970E+03  0.7546771E-02  0.1025773E+00
         21   -1    0    0  502  501  0.00000000000E+00  0.00000000000E+00  0.13713982140E+04  0.13713982140E+04  0.00000000000E+00 0.  1.
         21   -1    0    0  501  502 -0.00000000000E+00 -0.00000000000E+00 -0.38005158596E+02  0.38005158596E+02  0.00000000000E+00 0.  1.
      99926    2    1    2    0    0  0.00000000000E+00  0.00000000000E+00  0.13333930554E+04  0.14094033726E+04  0.45659700666E+03 0.  0.
      99925    2    3    3    0    0  0.21003067418E+02 -0.10096102415E+03  0.99286135690E+03  0.10322514098E+04  0.26293543279E+03 0.  0.
         25    1    4    4    0    0 -0.41469921508E+01 -0.28579847296E+02  0.58189591804E+03  0.59588956422E+03  0.12509000000E+03 0.  0.
         25    1    4    4    0    0  0.25150059569E+02 -0.72381176856E+02  0.41096543886E+03  0.43636184560E+03  0.12509000000E+03 0.  0.
         25    1    3    3    0    0 -0.21003067418E+02  0.10096102415E+03  0.34053169851E+03  0.37715196278E+03  0.12509000000E+03 0.  0.
<mgrwt>
<rscale>  2 0.45659701E+03</rscale>
<asrwt>0</asrwt>
<pdfrwt beam="1">  1       21 0.20167618E+00 0.45659701E+03</pdfrwt>
<pdfrwt beam="2">  1       21 0.55889948E-02 0.45659701E+03</pdfrwt>
<totfact> 0.25761315E+04</totfact>
</mgrwt>
</event>
<event>
 7    0  0.4685107E-002  0.4584106E+03  0.7546771E-02  0.1025243E+00
         21   -1    0    0  502  501  0.00000000000E+00  0.00000000000E+00  0.70565274301E+02  0.70565274301E+02  0.00000000000E+00 0. -1.
         21   -1    0    0  501  502 -0.00000000000E+00 -0.00000000000E+00 -0.74448894851E+03  0.74448894851E+03  0.00000000000E+00 0. -1.
      99926    2    1    2    0    0  0.00000000000E+00  0.00000000000E+00 -0.67392367421E+03  0.81505422281E+03  0.45841058830E+03 0.  0.
      99925    2    3    3    0    0 -0.54219071228E+02  0.98703862575E+02 -0.37161230462E+03  0.46904579451E+03  0.26310851798E+03 0.  0.
         25    1    3    3    0    0  0.54219071228E+02 -0.98703862575E+02 -0.30231136959E+03  0.34600842830E+03  0.12509000000E+03 0.  0.
         25    1    4    4    0    0  0.45335680096E+01  0.19987694240E+02 -0.17706957553E+03  0.21776410135E+03  0.12509000000E+03 0.  0.
         25    1    4    4    0    0 -0.58752639237E+02  0.78716168335E+02 -0.19454272909E+03  0.25128169316E+03  0.12509000000E+03 0.  0.
<mgrwt>
<rscale>  2 0.45841059E+03</rscale>
<asrwt>0</asrwt>
<pdfrwt beam="1">  1       21 0.10377246E-01 0.45841059E+03</pdfrwt>
<pdfrwt beam="2">  1       21 0.10948367E+00 0.45841059E+03</pdfrwt>
<totfact> 0.45806984E+04</totfact>
</mgrwt>
</event>
<event>
 7    0  0.4685107E-002  0.4514636E+03  0.7546771E-02  0.1027286E+00
         21   -1    0    0  502  501  0.00000000000E+00  0.00000000000E+00  0.18311907362E+02  0.18311907362E+02  0.00000000000E+00 0.  1.
         21   -1    0    0  501  502 -0.00000000000E+00 -0.00000000000E+00 -0.27826076030E+04  0.27826076030E+04  0.00000000000E+00 0.  1.
      99926    2    1    2    0    0 -0.71054273576E-14  0.00000000000E+00 -0.27642956957E+04  0.28009195104E+04  0.45146363154E+03 0.  0.
      99925    2    3    3    0    0  0.37541831803E+02  0.97627848098E+02 -0.15372363664E+04  0.15630735218E+04  0.26298783712E+03 0.  0.
         25    1    4    4    0    0 -0.12009495678E+02  0.26722390841E+02 -0.60252628691E+03  0.61607122046E+03  0.12509000000E+03 0.  0.
         25    1    3    3    0    0 -0.37541831803E+02 -0.97627848098E+02 -0.12270593293E+04  0.12378459886E+04  0.12509000000E+03 0.  0.
         25    1    4    4    0    0  0.49551327481E+02  0.70905457257E+02 -0.93471007946E+03  0.94700230130E+03  0.12509000000E+03 0.  0.
<mgrwt>
<rscale>  2 0.45146363E+03</rscale>
<asrwt>0</asrwt>
<pdfrwt beam="1">  1       21 0.26929294E-02 0.45146363E+03</pdfrwt>
<pdfrwt beam="2">  1       21 0.40920672E+00 0.45146363E+03</pdfrwt>
<totfact> 0.46435238E+03</totfact>
</mgrwt>
</event>
<event>
 7    0  0.4685107E-002  0.4550688E+03  0.7546771E-02  0.1026221E+00
         21   -1    0    0  502  501  0.00000000000E+00  0.00000000000E+00  0.29448857458E+03  0.29448857458E+03  0.00000000000E+00 0. -1.
         21   -1    0    0  501  502 -0.00000000000E+00 -0.00000000000E+00 -0.17580275479E+03  0.17580275479E+03  0.00000000000E+00 0. -1.
      99926    2    1    2    0    0 -0.14210854715E-13 -0.71054273576E-14  0.11868581979E+03  0.47029132936E+03  0.45506879772E+03 0.  0.
      99925    2    3    3    0    0 -0.86871444829E+02 -0.47137892194E+02  0.13036065675E+03  0.31044002744E+03  0.26383798249E+03 0.  0.
         25    1    4    4    0    0 -0.65575144334E+02 -0.51045120732E+01  0.10065556233E+03  0.17350851831E+03  0.12509000000E+03 0.  0.
         25    1    4    4    0    0 -0.21296300495E+02 -0.42033380121E+02  0.29705094424E+02  0.13693150913E+03  0.12509000000E+03 0.  0.
         25    1    3    3    0    0  0.86871444829E+02  0.47137892194E+02 -0.11674836965E+02  0.15985130192E+03  0.12509000000E+03 0.  0.
<mgrwt>
<rscale>  2 0.45506880E+03</rscale>
<asrwt>0</asrwt>
<pdfrwt beam="1">  1       21 0.43307144E-01 0.45506880E+03</pdfrwt>
<pdfrwt beam="2">  1       21 0.25853346E-01 0.45506880E+03</pdfrwt>
<totfact> 0.67377269E+04</totfact>
</mgrwt>
</event>
<event>
 7    0  0.4685107E-002  0.4589122E+03  0.7546771E-02  0.1025097E+00
         21   -1    0    0  502  501  0.00000000000E+00  0.00000000000E+00  0.25323538554E+03  0.25323538554E+03  0.00000000000E+00 0. -1.
         21   -1    0    0  501  502 -0.00000000000E+00 -0.00000000000E+00 -0.20790972705E+03  0.20790972705E+03  0.00000000000E+00 0. -1.
      99926    2    1    2    0    0 -0.71054273576E-14  0.00000000000E+00  0.45325658490E+02  0.46114511260E+03  0.45891219155E+03 0.  0.
      99925    2    3    3    0    0  0.55799830583E+02  0.53522800602E+02 -0.59559864687E+02  0.28051623243E+03  0.26298986273E+03 0.  0.
         25    1    4    4    0    0 -0.32371722066E+01  0.47121979038E+02 -0.45922690628E+02  0.14137666642E+03  0.12509000000E+03 0.  0.
         25    1    3    3    0    0 -0.55799830583E+02 -0.53522800602E+02  0.10488552318E+03  0.18062888016E+03  0.12509000000E+03 0.  0.
         25    1    4    4    0    0  0.59037002790E+02  0.64008215639E+01 -0.13637174059E+02  0.13913956602E+03  0.12509000000E+03 0.  0.
<mgrwt>
<rscale>  2 0.45891219E+03</rscale>
<asrwt>0</asrwt>
<pdfrwt beam="1">  1       21 0.37240498E-01 0.45891219E+03</pdfrwt>
<pdfrwt beam="2">  1       21 0.30574960E-01 0.45891219E+03</pdfrwt>
<totfact> 0.66013219E+04</totfact>
</mgrwt>
</event>
<event>
 7    0  0.4685107E-002  0.4569654E+03  0.7546771E-02  0.1025665E+00
         21   -1    0    0  502  501  0.00000000000E+00  0.00000000000E+00  0.47860554997E+03  0.47860554997E+03  0.00000000000E+00 0. -1.
         21   -1    0    0  501  502 -0.00000000000E+00 -0.00000000000E+00 -0.10907594813E+03  0.10907594813E+03  0.00000000000E+00 0. -1.
      99926    2    1    2    0    0  0.00000000000E+00  0.00000000000E+00  0.36952960184E+03  0.58768149809E+03  0.45696544351E+03 0.  0.
      99925    2    3    3    0    0 -0.35532383481E+02 -0.88825059855E+02  0.31424185024E+03  0.42077827730E+03  0.26297143699E+03 0.  0.
         25    1    4    4    0    0 -0.23512900069E+01 -0.68530003788E+02  0.11957257788E+03  0.18613704485E+03  0.12509000000E+03 0.  0.
         25    1    3    3    0    0  0.35532383481E+02  0.88825059855E+02  0.55287751598E+02  0.16690322079E+03  0.12509000000E+03 0.  0.
         25    1    4    4    0    0 -0.33181093474E+02 -0.20295056066E+02  0.19466927236E+03  0.23464123245E+03  0.12509000000E+03 0.  0.
<mgrwt>
<rscale>  2 0.45696544E+03</rscale>
<asrwt>0</asrwt>
<pdfrwt beam="1">  1       21 0.70383168E-01 0.45696544E+03</pdfrwt>
<pdfrwt beam="2">  1       21 0.16040581E-01 0.45696544E+03</pdfrwt>
<totfact> 0.58528426E+04</totfact>
</mgrwt>
</event>
<event>
 7    0  0.4685107E-002  0.4554287E+03  0.7546771E-02  0.1026115E+00
         21   -1    0    0  502  501  0.00000000000E+00  0.00000000000E+00  0.51539149974E+03  0.51539149974E+03  0.00000000000E+00 0. -1.
         21   -1    0    0  501  502 -0.00000000000E+00 -0.00000000000E+00 -0.10061057114E+03  0.10061057114E+03  0.00000000000E+00 0. -1.
      99926    2    1    2    0    0 -0.14210854715E-13  0.00000000000E+00  0.41478092860E+03  0.61600207088E+03  0.45542873493E+03 0.  0.
      99925    2    3    3    0    0 -0.78885642103E+02 -0.79290872594E+02  0.28796143591E+03  0.40566738797E+03  0.26293393484E+03 0.  0.
         25    1    4    4    0    0 -0.67337935093E+02 -0.12429837301E+02  0.12875760910E+03  0.19213258016E+03  0.12509000000E+03 0.  0.
         25    1    3    3    0    0  0.78885642103E+02  0.79290872594E+02  0.12681949270E+03  0.21033468291E+03  0.12509000000E+03 0.  0.
         25    1    4    4    0    0 -0.11547707010E+02 -0.66861035293E+02  0.15920382681E+03  0.21353480781E+03  0.12509000000E+03 0.  0.
<mgrwt>
<rscale>  2 0.45542873E+03</rscale>
<asrwt>0</asrwt>
<pdfrwt beam="1">  1       21 0.75792866E-01 0.45542873E+03</pdfrwt>
<pdfrwt beam="2">  1       21 0.14795673E-01 0.45542873E+03</pdfrwt>
<totfact> 0.57508987E+04</totfact>
</mgrwt>
</event>
<event>
 7    0  0.4685107E-002  0.4549738E+03  0.7546771E-02  0.1026249E+00
         21   -1    0    0  502  501  0.00000000000E+00  0.00000000000E+00  0.54553891505E+03  0.54553891505E+03  0.00000000000E+00 0. -1.
         21   -1    0    0  501  502 -0.00000000000E+00 -0.00000000000E+00 -0.94860862627E+02  0.94860862627E+02  0.00000000000E+00 0. -1.
      99926    2    1    2    0    0  0.00000000000E+00  0.00000000000E+00  0.45067805242E+03  0.64039977768E+03  0.45497381058E+03 0.  0.
      99925    2    3    3    0    0  0.99592684741E+02  0.51247581311E+02  0.26064683232E+03  0.38681667461E+03  0.26295503631E+03 0.  0.
         25    1    4    4    0    0  0.63460786660E+02  0.11939662074E+02  0.18066194265E+03  0.22903290723E+03  0.12509000000E+03 0.  0.
         25    1    3    3    0    0 -0.99592684741E+02 -0.51247581311E+02  0.19003122011E+03  0.25358310306E+03  0.12509000000E+03 0.  0.
         25    1    4    4    0    0  0.36131898081E+02  0.39307919237E+02  0.79984889666E+02  0.15778376738E+03  0.12509000000E+03 0.  0.
<mgrwt>
<rscale>  2 0.45497381E+03</rscale>
<asrwt>0</asrwt>
<pdfrwt beam="1">  1       21 0.80226309E-01 0.45497381E+03</pdfrwt>
<pdfrwt beam="2">  1       21 0.13950127E-01 0.45497381E+03</pdfrwt>
<totfact> 0.56269601E+04</totfact>
</mgrwt>
</event>
<event>
 7    0  0.4685107E-002  0.4471390E+03  0.7546771E-02  0.1028579E+00
         21   -1    0    0  502  501  0.00000000000E+00  0.00000000000E+00  0.36900262888E+03  0.36900262888E+03  0.00000000000E+00 0.  1.
         21   -1    0    0  501  502 -0.00000000000E+00 -0.00000000000E+00 -0.13545518411E+03  0.13545518411E+03  0.00000000000E+00 0.  1.
      99926    2    1    2    0    0  0.00000000000E+00  0.00000000000E+00  0.23354744478E+03  0.50445781299E+03  0.44713898972E+03 0.  0.
      99925    2    3    3    0    0  0.54108730733E+02  0.78930524704E+02  0.97444270299E+02  0.29630074567E+03  0.26294669346E+03 0.  0.
         25    1    4    4    0    0  0.52461727001E+02  0.78721571986E+01  0.43970451183E+02  0.14281145730E+03  0.12509000000E+03 0.  0.
         25    1    4    4    0    0  0.16470037328E+01  0.71058367506E+02  0.53473819117E+02  0.15348928837E+03  0.12509000000E+03 0.  0.
         25    1    3    3    0    0 -0.54108730733E+02 -0.78930524704E+02  0.13610317448E+03  0.20815706732E+03  0.12509000000E+03 0.  0.
<mgrwt>
<rscale>  2 0.44713899E+03</rscale>
<asrwt>0</asrwt>
<pdfrwt beam="1">  1       21 0.54265092E-01 0.44713899E+03</pdfrwt>
<pdfrwt beam="2">  1       21 0.19919880E-01 0.44713899E+03</pdfrwt>
<totfact> 0.69174632E+04</totfact>
</mgrwt>
</event>
<event>
 7    0  0.4685107E-002  0.4491691E+03  0.7546771E-02  0.1027970E+00
         21   -1    0    0  502  501  0.00000000000E+00  0.00000000000E+00  0.45826689548E+03  0.45826689548E+03  0.00000000000E+00 0.  1.
         21   -1    0    0  501  502 -0.00000000000E+00 -0.00000000000E+00 -0.11006296673E+03  0.11006296673E+03  0.00000000000E+00 0.  1.
      99926    2    1    2    0    0  0.00000000000E+00  0.00000000000E+00  0.34820392875E+03  0.56832986222E+03  0.44916907317E+03 0.  0.
      99925    2    3    3    0    0 -0.52868884102E+02 -0.90306225493E+02  0.25135696458E+03  0.37865335909E+03  0.26314959517E+03 0.  0.
         25    1    3    3    0    0  0.52868884102E+02  0.90306225493E+02  0.96846964167E+02  0.18967650312E+03  0.12509000000E+03 0.  0.
         25    1    4    4    0    0 -0.73008923332E+01 -0.80844758533E+02  0.14496802466E+03  0.20797214786E+03  0.12509000000E+03 0.  0.
         25    1    4    4    0    0 -0.45567991769E+02 -0.94614669596E+01  0.10638893992E+03  0.17068121124E+03  0.12509000000E+03 0.  0.
<mgrwt>
<rscale>  2 0.44916907E+03</rscale>
<asrwt>0</asrwt>
<pdfrwt beam="1">  1       21 0.67392190E-01 0.44916907E+03</pdfrwt>
<pdfrwt beam="2">  1       21 0.16185731E-01 0.44916907E+03</pdfrwt>
<totfact> 0.63551397E+04</totfact>
</mgrwt>
</event>
<event>
 7    0  0.4685107E-002  0.4546927E+03  0.7546771E-02  0.1026332E+00
         21   -1    0    0  502  501  0.00000000000E+00  0.00000000000E+00  0.55343546332E+03  0.55343546332E+03  0.00000000000E+00 0. -1.
         21   -1    0    0  501  502 -0.00000000000E+00 -0.00000000000E+00 -0.93391861069E+02  0.93391861069E+02  0.00000000000E+00 0. -1.
      99926    2    1    2    0    0  0.17763568394E-14  0.71054273576E-14  0.46004360225E+03  0.64682732439E+03  0.45469272218E+03 0.  0.
      99925    2    3    3    0    0  0.77059231467E+01 -0.48916843759E+02  0.43384476686E+03  0.50976483524E+03  0.26303358467E+03 0.  0.
         25    1    4    4    0    0 -0.17001868033E+02 -0.54908648926E+02  0.25859304103E+03  0.29295373732E+03  0.12509000000E+03 0.  0.
         25    1    3    3    0    0 -0.77059231467E+01  0.48916843759E+02  0.26198835391E+02  0.13706248915E+03  0.12509000000E+03 0.  0.
         25    1    4    4    0    0  0.24707791180E+02  0.59918051670E+01  0.17525172583E+03  0.21681109792E+03  0.12509000000E+03 0.  0.
<mgrwt>
<rscale>  2 0.45469272E+03</rscale>
<asrwt>0</asrwt>
<pdfrwt beam="1">  1       21 0.81387567E-01 0.45469272E+03</pdfrwt>
<pdfrwt beam="2">  1       21 0.13734097E-01 0.45469272E+03</pdfrwt>
<totfact> 0.56020327E+04</totfact>
</mgrwt>
</event>
<event>
 7    0  0.4685107E-002  0.4577403E+03  0.7546771E-02  0.1025439E+00
         21   -1    0    0  502  501  0.00000000000E+00  0.00000000000E+00  0.51788885180E+03  0.51788885180E+03  0.00000000000E+00 0. -1.
         21   -1    0    0  501  502 -0.00000000000E+00 -0.00000000000E+00 -0.10114438319E+03  0.10114438319E+03  0.00000000000E+00 0. -1.
      99926    2    1    2    0    0  0.00000000000E+00  0.00000000000E+00  0.41674446861E+03  0.61903323499E+03  0.45774031273E+03 0.  0.
      99925    2    3    3    0    0 -0.37549038122E+02  0.87186693726E+02  0.17205973988E+03  0.32829353284E+03  0.26298410559E+03 0.  0.
         25    1    4    4    0    0 -0.34956593925E+01  0.81374540518E+02  0.81750555472E+02  0.17019017862E+03  0.12509000000E+03 0.  0.
         25    1    3    3    0    0  0.37549038122E+02 -0.87186693726E+02  0.24468472873E+03  0.29073970214E+03  0.12509000000E+03 0.  0.
         25    1    4    4    0    0 -0.34053378730E+02  0.58121532080E+01  0.90309184408E+02  0.15810335422E+03  0.12509000000E+03 0.  0.
<mgrwt>
<rscale>  2 0.45774031E+03</rscale>
<asrwt>0</asrwt>
<pdfrwt beam="1">  1       21 0.76160124E-01 0.45774031E+03</pdfrwt>
<pdfrwt beam="2">  1       21 0.14874174E-01 0.45774031E+03</pdfrwt>
<totfact> 0.56293638E+04</totfact>
</mgrwt>
</event>
<event>
 6    0  0.4685107E-002  0.4590036E+03  0.7546771E-02  0.1025071E+00
         21   -1    0    0  502  501  0.00000000000E+00  0.00000000000E+00  0.10008708397E+03  0.10008708397E+03  0.00000000000E+00 0.  1.
         21   -1    0    0  501  502 -0.00000000000E+00 -0.00000000000E+00 -0.52625257954E+03  0.52625257954E+03  0.00000000000E+00 0.  1.
      99926    2    1    2    0    0 -0.71054273576E-14 -0.14210854715E-13 -0.42616549557E+03  0.62633966351E+03  0.45900364320E+03 0.  0.
         25    1    3    3    0    0 -0.29225285227E+02  0.49769538333E+02 -0.14576123677E+03  0.20056163763E+03  0.12509000000E+03 0.  0.
         25    1    3    3    0    0 -0.42713174608E+02 -0.10168823905E+03 -0.13718319687E+03  0.21594362887E+03  0.12509000000E+03 0.  0.
         25    1    3    3    0    0  0.71938459835E+02  0.51918700721E+02 -0.14322106194E+03  0.20983439701E+03  0.12509000000E+03 0.  0.
<mgrwt>
<rscale>  2 0.45900364E+03</rscale>
<asrwt>0</asrwt>
<pdfrwt beam="1">  1       21 0.14718689E-01 0.45900364E+03</pdfrwt>
<pdfrwt beam="2">  1       21 0.77390086E-01 0.45900364E+03</pdfrwt>
<totfact> 0.55316224E+04</totfact>
</mgrwt>
</event>
<event>
 7    0  0.4685107E-002  0.4504571E+03  0.7546771E-02  0.1027586E+00
         21   -1    0    0  502  501  0.00000000000E+00  0.00000000000E+00  0.49341184019E+03  0.49341184019E+03  0.00000000000E+00 0. -1.
         21   -1    0    0  501  502 -0.00000000000E+00 -0.00000000000E+00 -0.10281044840E+03  0.10281044840E+03  0.00000000000E+00 0. -1.
      99926    2    1    2    0    0 -0.14210854715E-13  0.00000000000E+00  0.39060139179E+03  0.59622228859E+03  0.45045706802E+03 0.  0.
      99925    2    3    3    0    0 -0.97910723162E+02 -0.35391856932E+02  0.28878122801E+03  0.40424846979E+03  0.26302687018E+03 0.  0.
         25    1    3    3    0    0  0.97910723162E+02  0.35391856932E+02  0.10182016379E+03  0.19197381879E+03  0.12509000000E+03 0.  0.
         25    1    4    4    0    0 -0.27946242531E+02 -0.51399845551E+02  0.15407531086E+03  0.20690492046E+03  0.12509000000E+03 0.  0.
         25    1    4    4    0    0 -0.69964480631E+02  0.16007988620E+02  0.13470591715E+03  0.19734354934E+03  0.12509000000E+03 0.  0.
<mgrwt>
<rscale>  2 0.45045707E+03</rscale>
<asrwt>0</asrwt>
<pdfrwt beam="1">  1       21 0.72560564E-01 0.45045707E+03</pdfrwt>
<pdfrwt beam="2">  1       21 0.15119184E-01 0.45045707E+03</pdfrwt>
<totfact> 0.61074504E+04</totfact>
</mgrwt>
</event>
<event>
 7    0  0.4685107E-002  0.4597256E+03  0.7546771E-02  0.1024861E+00
         21   -1    0    0  502  501  0.00000000000E+00  0.00000000000E+00  0.14992649320E+03  0.14992649320E+03  0.00000000000E+00 0.  1.
         21   -1    0    0  501  502 -0.00000000000E+00 -0.00000000000E+00 -0.35241872031E+03  0.35241872031E+03  0.00000000000E+00 0.  1.
      99926    2    1    2    0    0 -0.17763568394E-14  0.00000000000E+00 -0.20249222711E+03  0.50234521351E+03  0.45972558282E+03 0.  0.
      99925    2    3    3    0    0 -0.12744461377E+02 -0.79007687751E+02 -0.33005150757E+02  0.27700544079E+03  0.26313121866E+03 0.  0.
         25    1    4    4    0    0 -0.38954430482E+01 -0.14768259702E+02 -0.48981834579E+02  0.13520356574E+03  0.12509000000E+03 0.  0.
         25    1    3    3    0    0  0.12744461377E+02  0.79007687751E+02 -0.16948707635E+03  0.22533977272E+03  0.12509000000E+03 0.  0.
         25    1    4    4    0    0 -0.88490183290E+01 -0.64239428049E+02  0.15976683822E+02  0.14180187505E+03  0.12509000000E+03 0.  0.
<mgrwt>
<rscale>  2 0.45972558E+03</rscale>
<asrwt>0</asrwt>
<pdfrwt beam="1">  1       21 0.22048014E-01 0.45972558E+03</pdfrwt>
<pdfrwt beam="2">  1       21 0.51826282E-01 0.45972558E+03</pdfrwt>
<totfact> 0.62720223E+04</totfact>
</mgrwt>
</event>
<event>
 7    0  0.4685107E-002  0.4599410E+03  0.7546771E-02  0.1024798E+00
         21   -1    0    0  502  501  0.00000000000E+00  0.00000000000E+00  0.84562047666E+02  0.84562047666E+02  0.00000000000E+00 0.  1.
         21   -1    0    0  501  502 -0.00000000000E+00 -0.00000000000E+00 -0.62541554928E+03  0.62541554928E+03  0.00000000000E+00 0.  1.
      99926    2    1    2    0    0  0.35527136788E-14  0.00000000000E+00 -0.54085350162E+03  0.70997759695E+03  0.45994095051E+03 0.  0.
      99925    2    3    3    0    0  0.25463793423E+02  0.11401433749E+03 -0.36482579222E+03  0.46445583314E+03  0.26262842256E+03 0.  0.
         25    1    3    3    0    0 -0.25463793423E+02 -0.11401433749E+03 -0.17602770939E+03  0.24552176381E+03  0.12509000000E+03 0.  0.
         25    1    4    4    0    0  0.11622581413E+02  0.41882288338E+02 -0.23519974670E+03  0.26991783829E+03  0.12509000000E+03 0.  0.
         25    1    4    4    0    0  0.13841212010E+02  0.72132049155E+02 -0.12962604552E+03  0.19453799485E+03  0.12509000000E+03 0.  0.
<mgrwt>
<rscale>  2 0.45994095E+03</rscale>
<asrwt>0</asrwt>
<pdfrwt beam="1">  1       21 0.12435595E-01 0.45994095E+03</pdfrwt>
<pdfrwt beam="2">  1       21 0.91972873E-01 0.45994095E+03</pdfrwt>
<totfact> 0.50377455E+04</totfact>
</mgrwt>
</event>
<event>
 7    0  0.4685107E-002  0.4495761E+03  0.7546771E-02  0.1027849E+00
         21   -1    0    0  502  501  0.00000000000E+00  0.00000000000E+00  0.10458289750E+03  0.10458289750E+03  0.00000000000E+00 0.  1.
         21   -1    0    0  501  502 -0.00000000000E+00 -0.00000000000E+00 -0.48315428733E+03  0.48315428733E+03  0.00000000000E+00 0.  1.
      99926    2    1    2    0    0 -0.35527136788E-14  0.00000000000E+00 -0.37857138983E+03  0.58773718483E+03  0.44957613508E+03 0.  0.
      99925    2    3    3    0    0  0.15791843569E+02  0.84292145247E+02 -0.32533173900E+03  0.42699976979E+03  0.26293252922E+03 0.  0.
         25    1    4    4    0    0  0.38084165295E+02  0.58809153966E+02 -0.13638127226E+03  0.19787945765E+03  0.12509000000E+03 0.  0.
         25    1    3    3    0    0 -0.15791843569E+02 -0.84292145247E+02 -0.53239650825E+02  0.16073741504E+03  0.12509000000E+03 0.  0.
         25    1    4    4    0    0 -0.22292321727E+02  0.25482991282E+02 -0.18895046675E+03  0.22912031214E+03  0.12509000000E+03 0.  0.
<mgrwt>
<rscale>  2 0.44957614E+03</rscale>
<asrwt>0</asrwt>
<pdfrwt beam="1">  1       21 0.15379838E-01 0.44957614E+03</pdfrwt>
<pdfrwt beam="2">  1       21 0.71052101E-01 0.44957614E+03</pdfrwt>
<totfact> 0.62057378E+04</totfact>
</mgrwt>
</event>
<event>
 7    0  0.4685107E-002  0.4507944E+03  0.7546771E-02  0.1027485E+00
         21   -1    0    0  502  501  0.00000000000E+00  0.00000000000E+00  0.18946993672E+03  0.18946993672E+03  0.00000000000E+00 0. -1.
         21   -1    0    0  501  502 -0.00000000000E+00 -0.00000000000E+00 -0.26813700684E+03  0.26813700684E+03  0.00000000000E+00 0. -1.
      99926    2    1    2    0    0  0.00000000000E+00  0.00000000000E+00 -0.78667070119E+02  0.45760694357E+03  0.45079441754E+03 0.  0.
      99925    2    3    3    0    0 -0.63318173111E+02  0.66178929424E+02 -0.10980296707E+03  0.29947473962E+03  0.26313416036E+03 0.  0.
         25    1    3    3    0    0  0.63318173111E+02 -0.66178929424E+02  0.31135896950E+02  0.15813220395E+03  0.12509000000E+03 0.  0.
         25    1    4    4    0    0 -0.10085112716E+02  0.53801209550E+02 -0.25121284579E+02  0.13883395365E+03  0.12509000000E+03 0.  0.
         25    1    4    4    0    0 -0.53233060395E+02  0.12377719874E+02 -0.84681682490E+02  0.16064078597E+03  0.12509000000E+03 0.  0.
<mgrwt>
<rscale>  2 0.45079442E+03</rscale>
<asrwt>0</asrwt>
<pdfrwt beam="1">  1       21 0.27863226E-01 0.45079442E+03</pdfrwt>
<pdfrwt beam="2">  1       21 0.39431913E-01 0.45079442E+03</pdfrwt>
<totfact> 0.70696516E+04</totfact>
</mgrwt>
</event>
<event>
 7    0  0.4685107E-002  0.4579295E+03  0.7546771E-02  0.1025383E+00
         21   -1    0    0  502  501  0.00000000000E+00  0.00000000000E+00  0.13499185699E+04  0.13499185699E+04  0.00000000000E+00 0. -1.
         21   -1    0    0  501  502 -0.00000000000E+00 -0.00000000000E+00 -0.38835577737E+02  0.38835577737E+02  0.00000000000E+00 0. -1.
      99926    2    1    2    0    0  0.00000000000E+00 -0.88817841970E-15  0.13110829921E+04  0.13887541476E+04  0.45792954724E+03 0.  0.
      99925    2    3    3    0    0  0.82891851964E+02  0.42030824393E+01  0.10681239863E+04  0.11031577337E+04  0.26301979067E+03 0.  0.
         25    1    4    4    0    0  0.65910264343E+02 -0.90093003633E+01  0.68690179973E+03  0.70136076381E+03  0.12509000000E+03 0.  0.
         25    1    4    4    0    0  0.16981587621E+02  0.13212382803E+02  0.38122218656E+03  0.40179696988E+03  0.12509000000E+03 0.  0.
         25    1    3    3    0    0 -0.82891851964E+02 -0.42030824393E+01  0.24295900584E+03  0.28559641392E+03  0.12509000000E+03 0.  0.
<mgrwt>
<rscale>  2 0.45792955E+03</rscale>
<asrwt>0</asrwt>
<pdfrwt beam="1">  1       21 0.19851741E+00 0.45792955E+03</pdfrwt>
<pdfrwt beam="2">  1       21 0.57111153E-02 0.45792955E+03</pdfrwt>
<totfact> 0.26035416E+04</totfact>
</mgrwt>
</event>
<event>
 7    0  0.4685107E-002  0.4556264E+03  0.7546771E-02  0.1026057E+00
         21   -1    0    0  502  501  0.00000000000E+00  0.00000000000E+00  0.29131455241E+02  0.29131455241E+02  0.00000000000E+00 0.  1.
         21   -1    0    0  501  502 -0.00000000000E+00 -0.00000000000E+00 -0.17815398342E+04  0.17815398342E+04  0.00000000000E+00 0.  1.
      99926    2    1    2    0    0  0.00000000000E+00  0.00000000000E+00 -0.17524083789E+04  0.18106712894E+04  0.45562637298E+03 0.  0.
      99925    2    3    3    0    0  0.47028773056E+02 -0.10356336665E+03 -0.10820121086E+04  0.11192844630E+04  0.26288862561E+03 0.  0.
         25    1    4    4    0    0  0.63848953389E+02 -0.61446019233E+02 -0.59284994836E+03  0.61234865191E+03  0.12509000000E+03 0.  0.
         25    1    3    3    0    0 -0.47028773056E+02  0.10356336665E+03 -0.67039627030E+03  0.69138682642E+03  0.12509000000E+03 0.  0.
         25    1    4    4    0    0 -0.16820180332E+02 -0.42117347420E+02 -0.48916216028E+03  0.50693581110E+03  0.12509000000E+03 0.  0.
<mgrwt>
<rscale>  2 0.45562637E+03</rscale>
<asrwt>0</asrwt>
<pdfrwt beam="1">  1       21 0.42840360E-02 0.45562637E+03</pdfrwt>
<pdfrwt beam="2">  1       21 0.26199124E+00 0.45562637E+03</pdfrwt>
<totfact> 0.16972620E+04</totfact>
</mgrwt>
</event>
<event>
 7    0  0.4685107E-002  0.4593357E+03  0.7546771E-02  0.1024974E+00
         21   -1    0    0  502  501  0.00000000000E+00  0.00000000000E+00  0.12186819926E+04  0.12186819926E+04  0.00000000000E+00 0.  1.
         21   -1    0    0  501  502 -0.00000000000E+00 -0.00000000000E+00 -0.43282269868E+02  0.43282269868E+02  0.00000000000E+00 0.  1.
      99926    2    1    2    0    0  0.14210854715E-13  0.00000000000E+00  0.11753997228E+04  0.12619642625E+04  0.45933570681E+03 0.  0.
      99925    2    3    3    0    0 -0.92613471029E+02 -0.68833530602E+02  0.79135527899E+03  0.84190122813E+03  0.26313340797E+03 0.  0.
         25    1    4    4    0    0 -0.23414972451E+02 -0.36601200532E+02  0.27612144323E+03  0.30623270290E+03  0.12509000000E+03 0.  0.
         25    1    4    4    0    0 -0.69198498578E+02 -0.32232330070E+02  0.51523383576E+03  0.53566852523E+03  0.12509000000E+03 0.  0.
         25    1    3    3    0    0  0.92613471029E+02  0.68833530602E+02  0.38404444377E+03  0.42006303436E+03  0.12509000000E+03 0.  0.
<mgrwt>
<rscale>  2 0.45933571E+03</rscale>
<asrwt>0</asrwt>
<pdfrwt beam="1">  1       21 0.17921792E+00 0.45933571E+03</pdfrwt>
<pdfrwt beam="2">  1       21 0.63650405E-02 0.45933571E+03</pdfrwt>
<totfact> 0.29240329E+04</totfact>
</mgrwt>
</event>
<event>
 7    0  0.4685107E-002  0.4443917E+03  0.7546771E-02  0.1029408E+00
         21   -1    0    0  502  501  0.00000000000E+00  0.00000000000E+00  0.16886274945E+02  0.16886274945E+02  0.00000000000E+00 0.  1.
         21   -1    0    0  501  502 -0.00000000000E+00 -0.00000000000E+00 -0.29237349960E+04  0.29237349960E+04  0.00000000000E+00 0.  1.
      99926    2    1    2    0    0  0.00000000000E+00 -0.14210854715E-13 -0.29068487211E+04  0.29406212710E+04  0.44439168763E+03 0.  0.
      99925    2    3    3    0    0 -0.72695436125E+02 -0.70309753489E+02 -0.17933158055E+04  0.18155296525E+04  0.26445841416E+03 0.  0.
         25    1    3    3    0    0  0.72695436125E+02  0.70309753489E+02 -0.11135329156E+04  0.11250916185E+04  0.12509000000E+03 0.  0.
         25    1    4    4    0    0 -0.66669639210E+02 -0.35687602562E+02 -0.11475427287E+04  0.11568147077E+04  0.12509000000E+03 0.  0.
         25    1    4    4    0    0 -0.60257969151E+01 -0.34622150928E+02 -0.64577307685E+03  0.65871494476E+03  0.12509000000E+03 0.  0.
<mgrwt>
<rscale>  2 0.44439169E+03</rscale>
<asrwt>0</asrwt>
<pdfrwt beam="1">  1       21 0.24832732E-02 0.44439169E+03</pdfrwt>
<pdfrwt beam="2">  1       21 0.42996147E+00 0.44439169E+03</pdfrwt>
<totfact> 0.39039888E+03</totfact>
</mgrwt>
</event>
<event>
 7    0  0.4685107E-002  0.4559429E+03  0.7546771E-02  0.1025964E+00
         21   -1    0    0  502  501  0.00000000000E+00  0.00000000000E+00  0.33210040527E+03  0.33210040527E+03  0.00000000000E+00 0. -1.
         21   -1    0    0  501  502 -0.00000000000E+00 -0.00000000000E+00 -0.15649177013E+03  0.15649177013E+03  0.00000000000E+00 0. -1.
      99926    2    1    2    0    0  0.00000000000E+00 -0.71054273576E-14  0.17560863514E+03  0.48859217540E+03  0.45594289240E+03 0.  0.
      99925    2    3    3    0    0  0.18136159784E+02 -0.45218899298E+02 -0.12470268420E+00  0.26745108182E+03  0.26297603783E+03 0.  0.
         25    1    4    4    0    0  0.36854974374E+02  0.41214413265E+01 -0.12784464606E+02  0.13109624728E+03  0.12509000000E+03 0.  0.
         25    1    3    3    0    0 -0.18136159784E+02  0.45218899298E+02  0.17573333783E+03  0.22114109358E+03  0.12509000000E+03 0.  0.
         25    1    4    4    0    0 -0.18718814589E+02 -0.49340340624E+02  0.12659761922E+02  0.13635483455E+03  0.12509000000E+03 0.  0.
<mgrwt>
<rscale>  2 0.45594289E+03</rscale>
<asrwt>0</asrwt>
<pdfrwt beam="1">  1       21 0.48838295E-01 0.45594289E+03</pdfrwt>
<pdfrwt beam="2">  1       21 0.23013496E-01 0.45594289E+03</pdfrwt>
<totfact> 0.65587457E+04</totfact>
</mgrwt>
</event>
<event>
 7    0  0.4685107E-002  0.4523301E+03  0.7546771E-02  0.1027029E+00
         21   -1    0    0  502  501  0.00000000000E+00  0.00000000000E+00  0.32175319952E+03  0.32175319952E+03  0.00000000000E+00 0.  1.
         21   -1    0    0  501  502 -0.00000000000E+00 -0.00000000000E+00 -0.15897474645E+03  0.15897474645E+03  0.00000000000E+00 0.  1.
      99926    2    1    2    0    0  0.00000000000E+00  0.17763568394E-14  0.16277845307E+03  0.48072794597E+03  0.45233011535E+03 0.  0.
      99925    2    3    3    0    0 -0.77343744037E+02  0.13266245289E+02  0.19767084855E+02  0.27516090692E+03  0.26299189921E+03 0.  0.
         25    1    3    3    0    0  0.77343744037E+02 -0.13266245289E+02  0.14301136821E+03  0.20556703905E+03  0.12509000000E+03 0.  0.
         25    1    4    4    0    0 -0.47042830859E+02  0.39823535318E+02  0.32310338131E+02  0.14314470982E+03  0.12509000000E+03 0.  0.
         25    1    4    4    0    0 -0.30300913178E+02 -0.26557290028E+02 -0.12543253276E+02  0.13201619710E+03  0.12509000000E+03 0.  0.
<mgrwt>
<rscale>  2 0.45233012E+03</rscale>
<asrwt>0</asrwt>
<pdfrwt beam="1">  1       21 0.47316647E-01 0.45233012E+03</pdfrwt>
<pdfrwt beam="2">  1       21 0.23378639E-01 0.45233012E+03</pdfrwt>
<totfact> 0.68078564E+04</totfact>
</mgrwt>
</event>
<event>
 7    0  0.4685107E-002  0.3937935E+03  0.7546771E-02  0.1045950E+00
         21   -1    0    0  502  501  0.00000000000E+00  0.00000000000E+00  0.24517150370E+03  0.24517150370E+03  0.00000000000E+00 0. -1.
         21   -1    0    0  501  502 -0.00000000000E+00 -0.00000000000E+00 -0.15812738134E+03  0.15812738134E+03  0.00000000000E+00 0. -1.
      99926    2    1    2    0    0  0.00000000000E+00  0.00000000000E+00  0.87044122359E+02  0.40329888504E+03  0.39379348831E+03 0.  0.
      99925    2    3    3    0    0  0.78415568228E+01  0.22619053789E+02  0.80106186262E+02  0.27574985656E+03  0.26276961527E+03 0.  0.
         25    1    3    3    0    0 -0.78415568228E+01 -0.22619053789E+02  0.69379360972E+01  0.12754902848E+03  0.12509000000E+03 0.  0.
         25    1    4    4    0    0 -0.15498244224E+02  0.20447819251E+02  0.75615719510E+02  0.14840334910E+03  0.12509000000E+03 0.  0.
         25    1    4    4    0    0  0.23339801047E+02  0.21712345377E+01  0.44904667524E+01  0.12734650747E+03  0.12509000000E+03 0.  0.
<mgrwt>
<rscale>  2 0.39379349E+03</rscale>
<asrwt>0</asrwt>
<pdfrwt beam="1">  1       21 0.36054633E-01 0.39379349E+03</pdfrwt>
<pdfrwt beam="2">  1       21 0.23254026E-01 0.39379349E+03</pdfrwt>
<totfact> 0.12206434E+05</totfact>
</mgrwt>
</event>
<event>
 7    0  0.4685107E-002  0.4538046E+03  0.7546771E-02  0.1026594E+00
         21   -1    0    0  502  501  0.00000000000E+00  0.00000000000E+00  0.17328775098E+04  0.17328775098E+04  0.00000000000E+00 0. -1.
         21   -1    0    0  501  502 -0.00000000000E+00 -0.00000000000E+00 -0.29710492745E+02  0.29710492745E+02  0.00000000000E+00 0. -1.
      99926    2    1    2    0    0  0.71054273576E-14 -0.14210854715E-13  0.17031670170E+04  0.17625880025E+04  0.45380456006E+03 0.  0.
      99925    2    3    3    0    0 -0.48587043413E+02  0.10086118831E+03  0.10535401880E+04  0.10916213825E+04  0.26297649114E+03 0.  0.
         25    1    4    4    0    0 -0.20694591548E+02  0.26896695084E+02  0.36413747845E+03  0.38651689438E+03  0.12509000000E+03 0.  0.
         25    1    3    3    0    0  0.48587043413E+02 -0.10086118831E+03  0.64962682901E+03  0.67096662001E+03  0.12509000000E+03 0.  0.
         25    1    4    4    0    0 -0.27892451865E+02  0.73964493224E+02  0.68940270958E+03  0.70510448814E+03  0.12509000000E+03 0.  0.
<mgrwt>
<rscale>  2 0.45380456E+03</rscale>
<asrwt>0</asrwt>
<pdfrwt beam="1">  1       21 0.25483486E+00 0.45380456E+03</pdfrwt>
<pdfrwt beam="2">  1       21 0.43691913E-02 0.45380456E+03</pdfrwt>
<totfact> 0.18157458E+04</totfact>
</mgrwt>
</event>
<event>
 7    0  0.4685107E-002  0.4507501E+03  0.7546771E-02  0.1027499E+00
         21   -1    0    0  502  501  0.00000000000E+00  0.00000000000E+00  0.46211917188E+02  0.46211917188E+02  0.00000000000E+00 0.  1.
         21   -1    0    0  501  502 -0.00000000000E+00 -0.00000000000E+00 -0.10991515979E+04  0.10991515979E+04  0.00000000000E+00 0.  1.
      99926    2    1    2    0    0  0.71054273576E-14  0.71054273576E-14 -0.10529396807E+04  0.11453635151E+04  0.45075005322E+03 0.  0.
      99925    2    3    3    0    0 -0.59272520127E+02 -0.63558178821E+02 -0.49689758396E+03  0.56883667686E+03  0.26289747480E+03 0.  0.
         25    1    4    4    0    0 -0.32747216792E+02  0.94108695801E+01 -0.23573531667E+03  0.26903455595E+03  0.12509000000E+03 0.  0.
         25    1    3    3    0    0  0.59272520127E+02  0.63558178821E+02 -0.55604209678E+03  0.57652683825E+03  0.12509000000E+03 0.  0.
         25    1    4    4    0    0 -0.26525303335E+02 -0.72969048401E+02 -0.26116226729E+03  0.29980212091E+03  0.12509000000E+03 0.  0.
<mgrwt>
<rscale>  2 0.45075005E+03</rscale>
<asrwt>0</asrwt>
<pdfrwt beam="1">  1       21 0.67958694E-02 0.45075005E+03</pdfrwt>
<pdfrwt beam="2">  1       21 0.16163996E+00 0.45075005E+03</pdfrwt>
<totfact> 0.35085389E+04</totfact>
</mgrwt>
</event>
<event>
 7    0  0.4685107E-002  0.4490658E+03  0.7546771E-02  0.1028001E+00
         21   -1    0    0  502  501  0.00000000000E+00  0.00000000000E+00  0.47851669831E+02  0.47851669831E+02  0.00000000000E+00 0.  1.
         21   -1    0    0  501  502 -0.00000000000E+00 -0.00000000000E+00 -0.10535685738E+04  0.10535685738E+04  0.00000000000E+00 0.  1.
      99926    2    1    2    0    0  0.00000000000E+00  0.00000000000E+00 -0.10057169040E+04  0.11014202436E+04  0.44906576595E+03 0.  0.
      99925    2    3    3    0    0 -0.94128039883E+02 -0.42913235217E+02 -0.70720218357E+03  0.76162592343E+03  0.26313016767E+03 0.  0.
         25    1    4    4    0    0 -0.72625549143E+02 -0.26952587842E+01 -0.29707911967E+03  0.33043190864E+03  0.12509000000E+03 0.  0.
         25    1    3    3    0    0  0.94128039883E+02  0.42913235217E+02 -0.29851472038E+03  0.33979432019E+03  0.12509000000E+03 0.  0.
         25    1    4    4    0    0 -0.21502490740E+02 -0.40217976433E+02 -0.41012306391E+03  0.43119401478E+03  0.12509000000E+03 0.  0.
<mgrwt>
<rscale>  2 0.44906577E+03</rscale>
<asrwt>0</asrwt>
<pdfrwt beam="1">  1       21 0.70370105E-02 0.44906577E+03</pdfrwt>
<pdfrwt beam="2">  1       21 0.15493655E+00 0.44906577E+03</pdfrwt>
<totfact> 0.37134474E+04</totfact>
</mgrwt>
</event>
<event>
 7    0  0.4685107E-002  0.4530670E+03  0.7546771E-02  0.1026811E+00
         21   -1    0    0  502  501  0.00000000000E+00  0.00000000000E+00  0.31157272948E+03  0.31157272948E+03  0.00000000000E+00 0. -1.
         21   -1    0    0  501  502 -0.00000000000E+00 -0.00000000000E+00 -0.16470451965E+03  0.16470451965E+03  0.00000000000E+00 0. -1.
      99926    2    1    2    0    0  0.00000000000E+00  0.17763568394E-14  0.14686820982E+03  0.47627724913E+03  0.45306704469E+03 0.  0.
      99925    2    3    3    0    0  0.37467277973E+02  0.13866579484E+02  0.20187160808E+03  0.33390814832E+03  0.26295708095E+03 0.  0.
         25    1    4    4    0    0  0.25328388309E+02 -0.32922257404E+02  0.96411649237E+02  0.16330375530E+03  0.12509000000E+03 0.  0.
         25    1    3    3    0    0 -0.37467277973E+02 -0.13866579484E+02 -0.55003398256E+02  0.14236910081E+03  0.12509000000E+03 0.  0.
         25    1    4    4    0    0  0.12138889663E+02  0.46788836888E+02  0.10545995884E+03  0.17060439302E+03  0.12509000000E+03 0.  0.
<mgrwt>
<rscale>  2 0.45306704E+03</rscale>
<asrwt>0</asrwt>
<pdfrwt beam="1">  1       21 0.45819519E-01 0.45306704E+03</pdfrwt>
<pdfrwt beam="2">  1       21 0.24221253E-01 0.45306704E+03</pdfrwt>
<totfact> 0.68009476E+04</totfact>
</mgrwt>
</event>
<event>
 7    0  0.4685107E-002  0.4766435E+03  0.7546771E-02  0.1020062E+00
         21   -1    0    0  502  501  0.00000000000E+00  0.00000000000E+00  0.42089363589E+03  0.42089363589E+03  0.00000000000E+00 0.  1.
         21   -1    0    0  501  502 -0.00000000000E+00 -0.00000000000E+00 -0.13494445535E+03  0.13494445535E+03  0.00000000000E+00 0.  1.
      99926    2    1    2    0    0  0.00000000000E+00  0.00000000000E+00  0.28594918054E+03  0.55583809125E+03  0.47664352490E+03 0.  0.
      99925    2    3    3    0    0 -0.39772001764E+02 -0.11715833152E+03  0.12082681295E+03  0.31454824242E+03  0.26274244293E+03 0.  0.
         25    1    4    4    0    0 -0.44637675042E+02 -0.51441478173E+02  0.93966000114E+02  0.17063371586E+03  0.12509000000E+03 0.  0.
         25    1    4    4    0    0  0.48656732784E+01 -0.65716853345E+02  0.26860812838E+02  0.14391452656E+03  0.12509000000E+03 0.  0.
         25    1    3    3    0    0  0.39772001764E+02  0.11715833152E+03  0.16512236759E+03  0.24128984882E+03  0.12509000000E+03 0.  0.
<mgrwt>
<rscale>  2 0.47664352E+03</rscale>
<asrwt>0</asrwt>
<pdfrwt beam="1">  1       21 0.61896123E-01 0.47664352E+03</pdfrwt>
<pdfrwt beam="2">  1       21 0.19844773E-01 0.47664352E+03</pdfrwt>
<totfact> 0.51986659E+04</totfact>
</mgrwt>
</event>
<event>
 7    0  0.4685107E-002  0.4524837E+03  0.7546771E-02  0.1026984E+00
         21   -1    0    0  502  501  0.00000000000E+00  0.00000000000E+00  0.33981151654E+03  0.33981151654E+03  0.00000000000E+00 0.  1.
         21   -1    0    0  501  502 -0.00000000000E+00 -0.00000000000E+00 -0.15062869656E+03  0.15062869656E+03  0.00000000000E+00 0.  1.
      99926    2    1    2    0    0  0.00000000000E+00  0.00000000000E+00  0.18918281998E+03  0.49044021310E+03  0.45248366076E+03 0.  0.
      99925    2    3    3    0    0 -0.21826048088E+02  0.75315944987E+02  0.34411426184E+02  0.27654640679E+03  0.26295418025E+03 0.  0.
         25    1    4    4    0    0  0.12087251563E+02  0.53801358350E+01  0.29465417728E+02  0.12919274923E+03  0.12509000000E+03 0.  0.
         25    1    3    3    0    0  0.21826048088E+02 -0.75315944987E+02  0.15477139379E+03  0.21389380632E+03  0.12509000000E+03 0.  0.
         25    1    4    4    0    0 -0.33913299651E+02  0.69935809152E+02  0.49460084561E+01  0.14735365755E+03  0.12509000000E+03 0.  0.
<mgrwt>
<rscale>  2 0.45248366E+03</rscale>
<asrwt>0</asrwt>
<pdfrwt beam="1">  1       21 0.49972282E-01 0.45248366E+03</pdfrwt>
<pdfrwt beam="2">  1       21 0.22151279E-01 0.45248366E+03</pdfrwt>
<totfact> 0.67281653E+04</totfact>
</mgrwt>
</event>
<event>
 7    0  0.4685107E-002  0.4238309E+03  0.7546771E-02  0.1035827E+00
         21   -1    0    0  502  501  0.00000000000E+00  0.00000000000E+00  0.47377611643E+03  0.47377611643E+03  0.00000000000E+00 0. -1.
         21   -1    0    0  501  502 -0.00000000000E+00 -0.00000000000E+00 -0.94787717283E+02  0.94787717283E+02  0.00000000000E+00 0. -1.
      99926    2    1    2    0    0  0.71054273576E-14 -0.14210854715E-13  0.37898839914E+03  0.56856383371E+03  0.42383089354E+03 0.  0.
      99925    2    3    3    0    0 -0.33912851905E+02  0.67920867864E+02  0.20959832648E+03  0.34472498401E+03  0.26294586957E+03 0.  0.
         25    1    4    4    0    0 -0.12492361802E+02  0.61702212987E+02  0.14718607739E+03  0.20316119627E+03  0.12509000000E+03 0.  0.
         25    1    4    4    0    0 -0.21420490103E+02  0.62186548772E+01  0.62412249081E+02  0.14156378774E+03  0.12509000000E+03 0.  0.
         25    1    3    3    0    0  0.33912851905E+02 -0.67920867864E+02  0.16939007267E+03  0.22383884970E+03  0.12509000000E+03 0.  0.
<mgrwt>
<rscale>  2 0.42383089E+03</rscale>
<asrwt>0</asrwt>
<pdfrwt beam="1">  1       21 0.69672957E-01 0.42383089E+03</pdfrwt>
<pdfrwt beam="2">  1       21 0.13939370E-01 0.42383089E+03</pdfrwt>
<totfact> 0.78226497E+04</totfact>
</mgrwt>
</event>
<event>
 7    0  0.4685107E-002  0.4495600E+03  0.7546771E-02  0.1027853E+00
         21   -1    0    0  502  501  0.00000000000E+00  0.00000000000E+00  0.11422991837E+03  0.11422991837E+03  0.00000000000E+00 0. -1.
         21   -1    0    0  501  502 -0.00000000000E+00 -0.00000000000E+00 -0.44231895606E+03  0.44231895606E+03  0.00000000000E+00 0. -1.
      99926    2    1    2    0    0 -0.13322676296E-14 -0.35527136788E-14 -0.32808903769E+03  0.55654887444E+03  0.44956004380E+03 0.  0.
      99925    2    3    3    0    0  0.23359517225E+01 -0.20503988996E+02 -0.33863417100E+03  0.42933025091E+03  0.26310737797E+03 0.  0.
         25    1    4    4    0    0 -0.23140475239E+02  0.53277754014E+01 -0.21427753715E+03  0.24925135469E+03  0.12509000000E+03 0.  0.
         25    1    4    4    0    0  0.25476426961E+02 -0.25831764397E+02 -0.12435663385E+03  0.18007889622E+03  0.12509000000E+03 0.  0.
         25    1    3    3    0    0 -0.23359517225E+01  0.20503988996E+02  0.10545133311E+02  0.12721862353E+03  0.12509000000E+03 0.  0.
<mgrwt>
<rscale>  2 0.44956004E+03</rscale>
<asrwt>0</asrwt>
<pdfrwt beam="1">  1       21 0.16798517E-01 0.44956004E+03</pdfrwt>
<pdfrwt beam="2">  1       21 0.65046906E-01 0.44956004E+03</pdfrwt>
<totfact> 0.64152219E+04</totfact>
</mgrwt>
</event>
<event>
 7    0  0.4685107E-002  0.4511098E+03  0.7546771E-02  0.1027392E+00
         21   -1    0    0  502  501  0.00000000000E+00  0.00000000000E+00  0.19119079924E+03  0.19119079924E+03  0.00000000000E+00 0.  1.
         21   -1    0    0  501  502 -0.00000000000E+00 -0.00000000000E+00 -0.26609556634E+03  0.26609556634E+03  0.00000000000E+00 0.  1.
      99926    2    1    2    0    0  0.00000000000E+00  0.00000000000E+00 -0.74904767093E+02  0.45728636558E+03  0.45110984916E+03 0.  0.
      99925    2    3    3    0    0 -0.38529570382E+02  0.81896550051E+02 -0.10978194668E+03  0.29899707832E+03  0.26297453170E+03 0.  0.
         25    1    3    3    0    0  0.38529570382E+02 -0.81896550051E+02  0.34877179591E+02  0.15828928726E+03  0.12509000000E+03 0.  0.
         25    1    4    4    0    0 -0.15611604576E+02  0.65940618996E+02 -0.22752765286E+02  0.14407318925E+03  0.12509000000E+03 0.  0.
         25    1    4    4    0    0 -0.22917965806E+02  0.15955931055E+02 -0.87029181398E+02  0.15492388908E+03  0.12509000000E+03 0.  0.
<mgrwt>
<rscale>  2 0.45110985E+03</rscale>
<asrwt>0</asrwt>
<pdfrwt beam="1">  1       21 0.28116294E-01 0.45110985E+03</pdfrwt>
<pdfrwt beam="2">  1       21 0.39131700E-01 0.45110985E+03</pdfrwt>
<totfact> 0.70541777E+04</totfact>
</mgrwt>
</event>
<event>
 7    0  0.4685107E-002  0.4585334E+03  0.7546771E-02  0.1025207E+00
         21   -1    0    0  502  501  0.00000000000E+00  0.00000000000E+00  0.83555079577E+03  0.83555079577E+03  0.00000000000E+00 0. -1.
         21   -1    0    0  501  502 -0.00000000000E+00 -0.00000000000E+00 -0.62908475612E+02  0.62908475612E+02  0.00000000000E+00 0. -1.
      99926    2    1    2    0    0 -0.71054273576E-14  0.00000000000E+00  0.77264232016E+03  0.89845927139E+03  0.45853343110E+03 0.  0.
      99925    2    3    3    0    0  0.46506770588E+02  0.84686270825E+02  0.61217431515E+03  0.67322132407E+03  0.26293519141E+03 0.  0.
         25    1    3    3    0    0 -0.46506770588E+02 -0.84686270825E+02  0.16046800502E+03  0.22523794731E+03  0.12509000000E+03 0.  0.
         25    1    4    4    0    0 -0.15966340249E+02  0.52787572377E+02  0.29982049543E+03  0.32951675132E+03  0.12509000000E+03 0.  0.
         25    1    4    4    0    0  0.62473110837E+02  0.31898698448E+02  0.31235381971E+03  0.34370457275E+03  0.12509000000E+03 0.  0.
<mgrwt>
<rscale>  2 0.45853343E+03</rscale>
<asrwt>0</asrwt>
<pdfrwt beam="1">  1       21 0.12287511E+00 0.45853343E+03</pdfrwt>
<pdfrwt beam="2">  1       21 0.92512469E-02 0.45853343E+03</pdfrwt>
<totfact> 0.42122864E+04</totfact>
</mgrwt>
</event>
<event>
 7    0  0.4685107E-002  0.4579659E+03  0.7546771E-02  0.1025373E+00
         21   -1    0    0  502  501  0.00000000000E+00  0.00000000000E+00  0.36979789293E+03  0.36979789293E+03  0.00000000000E+00 0.  1.
         21   -1    0    0  501  502 -0.00000000000E+00 -0.00000000000E+00 -0.14178877136E+03  0.14178877136E+03  0.00000000000E+00 0.  1.
      99926    2    1    2    0    0  0.00000000000E+00  0.00000000000E+00  0.22800912157E+03  0.51158666429E+03  0.45796588908E+03 0.  0.
      99925    2    3    3    0    0  0.78231006117E+02  0.80398286468E+02  0.17613822723E+03  0.33573993397E+03  0.26289285534E+03 0.  0.
         25    1    3    3    0    0 -0.78231006117E+02 -0.80398286468E+02  0.51870894344E+02  0.17584673032E+03  0.12509000000E+03 0.  0.
         25    1    4    4    0    0  0.50592444736E+02  0.11579346290E+02  0.11620909626E+03  0.17845374437E+03  0.12509000000E+03 0.  0.
         25    1    4    4    0    0  0.27638561381E+02  0.68818940177E+02  0.59929130966E+02  0.15728618961E+03  0.12509000000E+03 0.  0.
<mgrwt>
<rscale>  2 0.45796589E+03</rscale>
<asrwt>0</asrwt>
<pdfrwt beam="1">  1       21 0.54382043E-01 0.45796589E+03</pdfrwt>
<pdfrwt beam="2">  1       21 0.20851290E-01 0.45796589E+03</pdfrwt>
<totfact> 0.62968811E+04</totfact>
</mgrwt>
</event>
<event>
 7    0  0.4685107E-002  0.4576609E+03  0.7546771E-02  0.1025462E+00
         21   -1    0    0  502  501  0.00000000000E+00  0.00000000000E+00  0.14393059662E+03  0.14393059662E+03  0.00000000000E+00 0. -1.
         21   -1    0    0  501  502 -0.00000000000E+00 -0.00000000000E+00 -0.36380984140E+03  0.36380984140E+03  0.00000000000E+00 0. -1.
      99926    2    1    2    0    0  0.00000000000E+00 -0.35527136788E-14 -0.21987924478E+03  0.50774043803E+03  0.45766086803E+03 0.  0.
      99925    2    3    3    0    0 -0.62448542981E+02 -0.31860677472E+02 -0.35697422181E+02  0.27431941249E+03  0.26279632955E+03 0.  0.
         25    1    3    3    0    0  0.62448542981E+02  0.31860677472E+02 -0.18418182260E+03  0.23342102554E+03  0.12509000000E+03 0.  0.
         25    1    4    4    0    0  0.65288894449E+01 -0.91891199733E+01 -0.10912071615E+01  0.12560161287E+03  0.12509000000E+03 0.  0.
         25    1    4    4    0    0 -0.68977432426E+02 -0.22671557499E+02 -0.34606215019E+02  0.14871779961E+03  0.12509000000E+03 0.  0.
<mgrwt>
<rscale>  2 0.45766087E+03</rscale>
<asrwt>0</asrwt>
<pdfrwt beam="1">  1       21 0.21166264E-01 0.45766087E+03</pdfrwt>
<pdfrwt beam="2">  1       21 0.53501447E-01 0.45766087E+03</pdfrwt>
<totfact> 0.63381033E+04</totfact>
</mgrwt>
</event>
<event>
 7    0  0.4685107E-002  0.4616925E+03  0.7546771E-02  0.1024291E+00
         21   -1    0    0  502  501  0.00000000000E+00  0.00000000000E+00  0.57302156536E+02  0.57302156536E+02  0.00000000000E+00 0.  1.
         21   -1    0    0  501  502 -0.00000000000E+00 -0.00000000000E+00 -0.92998246062E+03  0.92998246062E+03  0.00000000000E+00 0.  1.
      99926    2    1    2    0    0 -0.35527136788E-14  0.00000000000E+00 -0.87268030408E+03  0.98728461716E+03  0.46169254070E+03 0.  0.
      99925    2    3    3    0    0  0.22980651615E+02  0.10468922233E+03 -0.43346140623E+03  0.51819113825E+03  0.26295497989E+03 0.  0.
         25    1    3    3    0    0 -0.22980651615E+02 -0.10468922233E+03 -0.43921889785E+03  0.46909347890E+03  0.12509000000E+03 0.  0.
         25    1    4    4    0    0 -0.19749983979E+02  0.24948353341E+02 -0.21291547015E+03  0.24898391059E+03  0.12509000000E+03 0.  0.
         25    1    4    4    0    0  0.42730635595E+02  0.79740868988E+02 -0.22054593608E+03  0.26920722766E+03  0.12509000000E+03 0.  0.
<mgrwt>
<rscale>  2 0.46169254E+03</rscale>
<asrwt>0</asrwt>
<pdfrwt beam="1">  1       21 0.84267882E-02 0.46169254E+03</pdfrwt>
<pdfrwt beam="2">  1       21 0.13676212E+00 0.46169254E+03</pdfrwt>
<totfact> 0.37657440E+04</totfact>
</mgrwt>
</event>
<event>
 7    0  0.4685107E-002  0.4495016E+03  0.7546771E-02  0.1027871E+00
         21   -1    0    0  502  501  0.00000000000E+00  0.00000000000E+00  0.20379450588E+03  0.20379450588E+03  0.00000000000E+00 0. -1.
         21   -1    0    0  501  502 -0.00000000000E+00 -0.00000000000E+00 -0.24786202504E+03  0.24786202504E+03  0.00000000000E+00 0. -1.
      99926    2    1    2    0    0 -0.71054273576E-14  0.00000000000E+00 -0.44067519158E+02  0.45165653092E+03  0.44950158584E+03 0.  0.
      99925    2    3    3    0    0  0.45110537455E+02  0.22324314789E+02 -0.12379580764E+03  0.29501220863E+03  0.26300848966E+03 0.  0.
         25    1    3    3    0    0 -0.45110537455E+02 -0.22324314789E+02  0.79728288480E+02  0.15664432229E+03  0.12509000000E+03 0.  0.
         25    1    4    4    0    0  0.29689110004E+02  0.39927239582E+01 -0.10546578480E+03  0.16633678174E+03  0.12509000000E+03 0.  0.
         25    1    4    4    0    0  0.15421427451E+02  0.18331590831E+02 -0.18330022839E+02  0.12867542689E+03  0.12509000000E+03 0.  0.
<mgrwt>
<rscale>  2 0.44950159E+03</rscale>
<asrwt>0</asrwt>
<pdfrwt beam="1">  1       21 0.29969780E-01 0.44950159E+03</pdfrwt>
<pdfrwt beam="2">  1       21 0.36450298E-01 0.44950159E+03</pdfrwt>
<totfact> 0.71893990E+04</totfact>
</mgrwt>
</event>
<event>
 7    0  0.4685107E-002  0.4576861E+03  0.7546771E-02  0.1025454E+00
         21   -1    0    0  502  501  0.00000000000E+00  0.00000000000E+00  0.68838490296E+03  0.68838490296E+03  0.00000000000E+00 0. -1.
         21   -1    0    0  501  502 -0.00000000000E+00 -0.00000000000E+00 -0.76075372501E+02  0.76075372501E+02  0.00000000000E+00 0. -1.
      99926    2    1    2    0    0 -0.26645352591E-14  0.00000000000E+00  0.61230953046E+03  0.76446027546E+03  0.45768608420E+03 0.  0.
      99925    2    3    3    0    0  0.43376061344E+01  0.20343508572E+02  0.19346825983E+03  0.32684378668E+03  0.26261039614E+03 0.  0.
         25    1    3    3    0    0 -0.43376061344E+01 -0.20343508572E+02  0.41884127064E+03  0.43761648878E+03  0.12509000000E+03 0.  0.
         25    1    4    4    0    0 -0.22208868906E+02  0.77792569013E+00  0.13338138583E+03  0.18420624640E+03  0.12509000000E+03 0.  0.
         25    1    4    4    0    0  0.26546475040E+02  0.19565582882E+02  0.60086873995E+02  0.14263754028E+03  0.12509000000E+03 0.  0.
<mgrwt>
<rscale>  2 0.45768608E+03</rscale>
<asrwt>0</asrwt>
<pdfrwt beam="1">  1       21 0.10123307E+00 0.45768608E+03</pdfrwt>
<pdfrwt beam="2">  1       21 0.11187555E-01 0.45768608E+03</pdfrwt>
<totfact> 0.48500754E+04</totfact>
</mgrwt>
</event>
<event>
 7    0  0.4685107E-002  0.4550319E+03  0.7546771E-02  0.1026232E+00
         21   -1    0    0  502  501  0.00000000000E+00  0.00000000000E+00  0.14869774306E+03  0.14869774306E+03  0.00000000000E+00 0.  1.
         21   -1    0    0  501  502 -0.00000000000E+00 -0.00000000000E+00 -0.34811226625E+03  0.34811226625E+03  0.00000000000E+00 0.  1.
      99926    2    1    2    0    0  0.00000000000E+00 -0.17763568394E-14 -0.19941452319E+03  0.49681000931E+03  0.45503190360E+03 0.  0.
      99925    2    3    3    0    0  0.85535016120E+02  0.11401890603E+02 -0.20552975284E+03  0.34472073873E+03  0.26295183270E+03 0.  0.
         25    1    4    4    0    0  0.25750013142E+02 -0.28508762729E+02 -0.79211776316E+02  0.15296348040E+03  0.12509000000E+03 0.  0.
         25    1    4    4    0    0  0.59785002978E+02  0.39910653331E+02 -0.12631797652E+03  0.19175725833E+03  0.12509000000E+03 0.  0.
         25    1    3    3    0    0 -0.85535016120E+02 -0.11401890603E+02  0.61152296463E+01  0.15208927058E+03  0.12509000000E+03 0.  0.
<mgrwt>
<rscale>  2 0.45503190E+03</rscale>
<asrwt>0</asrwt>
<pdfrwt beam="1">  1       21 0.21867315E-01 0.45503190E+03</pdfrwt>
<pdfrwt beam="2">  1       21 0.51192980E-01 0.45503190E+03</pdfrwt>
<totfact> 0.65478765E+04</totfact>
</mgrwt>
</event>
<event>
 7    0  0.4685107E-002  0.4509321E+03  0.7546771E-02  0.1027444E+00
         21   -1    0    0  502  501  0.00000000000E+00  0.00000000000E+00  0.22332803040E+04  0.22332803040E+04  0.00000000000E+00 0.  1.
         21   -1    0    0  501  502 -0.00000000000E+00 -0.00000000000E+00 -0.22762449067E+02  0.22762449067E+02  0.00000000000E+00 0.  1.
      99926    2    1    2    0    0  0.00000000000E+00  0.71054273576E-14  0.22105178549E+04  0.22560427531E+04  0.45093205330E+03 0.  0.
      99925    2    3    3    0    0 -0.89797462613E+02 -0.41693517185E+02  0.11645252139E+04  0.11979548329E+04  0.26301116731E+03 0.  0.
         25    1    3    3    0    0  0.89797462613E+02  0.41693517185E+02  0.10459926410E+04  0.10580879202E+04  0.12509000000E+03 0.  0.
         25    1    4    4    0    0 -0.40955728334E+02 -0.69945460373E+01  0.73083378097E+03  0.74262495168E+03  0.12509000000E+03 0.  0.
         25    1    4    4    0    0 -0.48841734278E+02 -0.34698971148E+02  0.43369143293E+03  0.45532988119E+03  0.12509000000E+03 0.  0.
<mgrwt>
<rscale>  2 0.45093205E+03</rscale>
<asrwt>0</asrwt>
<pdfrwt beam="1">  1       21 0.32842342E+00 0.45093205E+03</pdfrwt>
<pdfrwt beam="2">  1       21 0.33474205E-02 0.45093205E+03</pdfrwt>
<totfact> 0.10282830E+04</totfact>
</mgrwt>
</event>
<event>
 7    0  0.4685107E-002  0.4539109E+03  0.7546771E-02  0.1026562E+00
         21   -1    0    0  502  501  0.00000000000E+00  0.00000000000E+00  0.17685388907E+04  0.17685388907E+04  0.00000000000E+00 0. -1.
         21   -1    0    0  501  502 -0.00000000000E+00 -0.00000000000E+00 -0.29125048068E+02  0.29125048068E+02  0.00000000000E+00 0. -1.
      99926    2    1    2    0    0 -0.14210854715E-13 -0.35527136788E-14  0.17394138427E+04  0.17976639388E+04  0.45391091726E+03 0.  0.
      99925    2    3    3    0    0 -0.83201876364E+02 -0.19801146453E+02  0.80787286696E+03  0.85387861621E+03  0.26293627442E+03 0.  0.
         25    1    4    4    0    0 -0.32791207156E+02 -0.20918352761E+02  0.51571918743E+03  0.53209644721E+03  0.12509000000E+03 0.  0.
         25    1    4    4    0    0 -0.50410669208E+02  0.11172063075E+01  0.29215367953E+03  0.32178216900E+03  0.12509000000E+03 0.  0.
         25    1    3    3    0    0  0.83201876364E+02  0.19801146453E+02  0.93154097570E+03  0.94378532259E+03  0.12509000000E+03 0.  0.
<mgrwt>
<rscale>  2 0.45391092E+03</rscale>
<asrwt>0</asrwt>
<pdfrwt beam="1">  1       21 0.26007918E+00 0.45391092E+03</pdfrwt>
<pdfrwt beam="2">  1       21 0.42830965E-02 0.45391092E+03</pdfrwt>
<totfact> 0.17451475E+04</totfact>
</mgrwt>
</event>
<event>
 7    0  0.4685107E-002  0.4541463E+03  0.7546771E-02  0.1026493E+00
         21   -1    0    0  502  501  0.00000000000E+00  0.00000000000E+00  0.17157084314E+03  0.17157084314E+03  0.00000000000E+00 0. -1.
         21   -1    0    0  501  502 -0.00000000000E+00 -0.00000000000E+00 -0.30053018389E+03  0.30053018389E+03  0.00000000000E+00 0. -1.
      99926    2    1    2    0    0  0.00000000000E+00  0.00000000000E+00 -0.12895934075E+03  0.47210102702E+03  0.45414630698E+03 0.  0.
      99925    2    3    3    0    0  0.28138291183E+02 -0.87962778164E+02 -0.14779523078E+03  0.31547563755E+03  0.26296812331E+03 0.  0.
         25    1    4    4    0    0  0.78192940543E+01 -0.69946148653E+02 -0.42392614986E+02  0.14966043892E+03  0.12509000000E+03 0.  0.
         25    1    4    4    0    0  0.20318997129E+02 -0.18016629511E+02 -0.10540261579E+03  0.16581519864E+03  0.12509000000E+03 0.  0.
         25    1    3    3    0    0 -0.28138291183E+02  0.87962778164E+02  0.18835890028E+02  0.15662538947E+03  0.12509000000E+03 0.  0.
<mgrwt>
<rscale>  2 0.45414631E+03</rscale>
<asrwt>0</asrwt>
<pdfrwt beam="1">  1       21 0.25231007E-01 0.45414631E+03</pdfrwt>
<pdfrwt beam="2">  1       21 0.44195615E-01 0.45414631E+03</pdfrwt>
<totfact> 0.67737470E+04</totfact>
</mgrwt>
</event>
<event>
 7    0  0.4685107E-002  0.4572744E+03  0.7546771E-02  0.1025575E+00
         21   -1    0    0  502  501  0.00000000000E+00  0.00000000000E+00  0.14549528755E+04  0.14549528755E+04  0.00000000000E+00 0.  1.
         21   -1    0    0  501  502 -0.00000000000E+00 -0.00000000000E+00 -0.35928977222E+02  0.35928977222E+02  0.00000000000E+00 0.  1.
      99926    2    1    2    0    0  0.14210854715E-13 -0.17763568394E-14  0.14190238983E+04  0.14908818527E+04  0.45727439781E+03 0.  0.
      99925    2    3    3    0    0  0.81289544782E+02 -0.15097800928E+02  0.11530749423E+04  0.11855749760E+04  0.26300240968E+03 0.  0.
         25    1    4    4    0    0  0.71005140699E+02 -0.64882702902E+01  0.73546570584E+03  0.74942720809E+03  0.12509000000E+03 0.  0.
         25    1    4    4    0    0  0.10284404083E+02 -0.86095306375E+01  0.41760923642E+03  0.43614776788E+03  0.12509000000E+03 0.  0.
         25    1    3    3    0    0 -0.81289544782E+02  0.15097800928E+02  0.26594895601E+03  0.30530687674E+03  0.12509000000E+03 0.  0.
<mgrwt>
<rscale>  2 0.45727440E+03</rscale>
<asrwt>0</asrwt>
<pdfrwt beam="1">  1       21 0.21396362E+00 0.45727440E+03</pdfrwt>
<pdfrwt beam="2">  1       21 0.52836741E-02 0.45727440E+03</pdfrwt>
<totfact> 0.23584083E+04</totfact>
</mgrwt>
</event>
<event>
 7    0  0.4685107E-002  0.4566067E+03  0.7546771E-02  0.1025770E+00
         21   -1    0    0  502  501  0.00000000000E+00  0.00000000000E+00  0.21259410216E+03  0.21259410216E+03  0.00000000000E+00 0. -1.
         21   -1    0    0  501  502 -0.00000000000E+00 -0.00000000000E+00 -0.24517335074E+03  0.24517335074E+03  0.00000000000E+00 0. -1.
      99926    2    1    2    0    0  0.00000000000E+00  0.35527136788E-14 -0.32579248580E+02  0.45776745289E+03  0.45660665073E+03 0.  0.
      99925    2    3    3    0    0 -0.31960231966E+02  0.19649976104E+02  0.88130859547E+02  0.27993040306E+03  0.26303308569E+03 0.  0.
         25    1    4    4    0    0 -0.16595395197E+02  0.29425912509E+02  0.70711822063E+01  0.12976440647E+03  0.12509000000E+03 0.  0.
         25    1    4    4    0    0 -0.15364836769E+02 -0.97759364046E+01  0.81059677341E+02  0.15016599659E+03  0.12509000000E+03 0.  0.
         25    1    3    3    0    0  0.31960231966E+02 -0.19649976104E+02 -0.12071010813E+03  0.17783704983E+03  0.12509000000E+03 0.  0.
<mgrwt>
<rscale>  2 0.45660665E+03</rscale>
<asrwt>0</asrwt>
<pdfrwt beam="1">  1       21 0.31263839E-01 0.45660665E+03</pdfrwt>
<pdfrwt beam="2">  1       21 0.36054904E-01 0.45660665E+03</pdfrwt>
<totfact> 0.67474444E+04</totfact>
</mgrwt>
</event>
<event>
 7    0  0.4685107E-002  0.4531320E+03  0.7546771E-02  0.1026792E+00
         21   -1    0    0  502  501  0.00000000000E+00  0.00000000000E+00  0.83860299739E+03  0.83860299739E+03  0.00000000000E+00 0.  1.
         21   -1    0    0  501  502 -0.00000000000E+00 -0.00000000000E+00 -0.61211502267E+02  0.61211502267E+02  0.00000000000E+00 0.  1.
      99926    2    1    2    0    0  0.00000000000E+00  0.00000000000E+00  0.77739149512E+03  0.89981449965E+03  0.45313198640E+03 0.  0.
      99925    2    3    3    0    0 -0.32374039933E+02 -0.17961112481E+02  0.28366569179E+03  0.38914498128E+03  0.26381226608E+03 0.  0.
         25    1    4    4    0    0 -0.36098068157E+02 -0.37052578008E+02  0.18178103275E+03  0.22664469116E+03  0.12509000000E+03 0.  0.
         25    1    3    3    0    0  0.32374039933E+02  0.17961112481E+02  0.49372580333E+03  0.51066951837E+03  0.12509000000E+03 0.  0.
         25    1    4    4    0    0  0.37240282232E+01  0.19091465527E+02  0.10188465904E+03  0.16250029012E+03  0.12509000000E+03 0.  0.
<mgrwt>
<rscale>  2 0.45313199E+03</rscale>
<asrwt>0</asrwt>
<pdfrwt beam="1">  1       21 0.12332396E+00 0.45313199E+03</pdfrwt>
<pdfrwt beam="2">  1       21 0.90016920E-02 0.45313199E+03</pdfrwt>
<totfact> 0.43879968E+04</totfact>
</mgrwt>
</event>
<event>
 7    0  0.4685107E-002  0.4509040E+03  0.7546771E-02  0.1027453E+00
         21   -1    0    0  502  501  0.00000000000E+00  0.00000000000E+00  0.15548624613E+03  0.15548624613E+03  0.00000000000E+00 0. -1.
         21   -1    0    0  501  502 -0.00000000000E+00 -0.00000000000E+00 -0.32690090290E+03  0.32690090290E+03  0.00000000000E+00 0. -1.
      99926    2    1    2    0    0  0.00000000000E+00  0.00000000000E+00 -0.17141465677E+03  0.48238714903E+03  0.45090395539E+03 0.  0.
      99925    2    3    3    0    0 -0.17278416959E+02  0.20907921304E+02 -0.22179475919E+03  0.34483225931E+03  0.26264174647E+03 0.  0.
         25    1    3    3    0    0  0.17278416959E+02 -0.20907921304E+02  0.50380102419E+02  0.13755488972E+03  0.12509000000E+03 0.  0.
         25    1    4    4    0    0 -0.42713652966E+01 -0.25866958435E+02 -0.12967610116E+03  0.18207345609E+03  0.12509000000E+03 0.  0.
         25    1    4    4    0    0 -0.13007051663E+02  0.46774879738E+02 -0.92118658032E+02  0.16275880322E+03  0.12509000000E+03 0.  0.
<mgrwt>
<rscale>  2 0.45090396E+03</rscale>
<asrwt>0</asrwt>
<pdfrwt beam="1">  1       21 0.22865625E-01 0.45090396E+03</pdfrwt>
<pdfrwt beam="2">  1       21 0.48073662E-01 0.45090396E+03</pdfrwt>
<totfact> 0.68734657E+04</totfact>
</mgrwt>
</event>
<event>
 7    0  0.4685107E-002  0.4571834E+03  0.7546771E-02  0.1025601E+00
         21   -1    0    0  502  501  0.00000000000E+00  0.00000000000E+00  0.20683152725E+03  0.20683152725E+03  0.00000000000E+00 0. -1.
         21   -1    0    0  501  502 -0.00000000000E+00 -0.00000000000E+00 -0.25264119712E+03  0.25264119712E+03  0.00000000000E+00 0. -1.
      99926    2    1    2    0    0  0.00000000000E+00  0.17763568394E-14 -0.45809669873E+02  0.45947272436E+03  0.45718339710E+03 0.  0.
      99925    2    3    3    0    0  0.69946315977E+02 -0.12742276231E+02  0.62251675012E+02  0.27952935805E+03  0.26307135581E+03 0.  0.
         25    1    4    4    0    0  0.23018182442E+02 -0.43331342573E+02  0.18385311278E+02  0.13562068332E+03  0.12509000000E+03 0.  0.
         25    1    4    4    0    0  0.46928133535E+02  0.30589066342E+02  0.43866363734E+02  0.14390867473E+03  0.12509000000E+03 0.  0.
         25    1    3    3    0    0 -0.69946315977E+02  0.12742276231E+02 -0.10806134489E+03  0.17994336631E+03  0.12509000000E+03 0.  0.
<mgrwt>
<rscale>  2 0.45718340E+03</rscale>
<asrwt>0</asrwt>
<pdfrwt beam="1">  1       21 0.30416401E-01 0.45718340E+03</pdfrwt>
<pdfrwt beam="2">  1       21 0.37153117E-01 0.45718340E+03</pdfrwt>
<totfact> 0.67043787E+04</totfact>
</mgrwt>
</event>
<event>
 7    0  0.4685107E-002  0.4520528E+03  0.7546771E-02  0.1027112E+00
         21   -1    0    0  502  501  0.00000000000E+00  0.00000000000E+00  0.25670068552E+03  0.25670068552E+03  0.00000000000E+00 0.  1.
         21   -1    0    0  501  502 -0.00000000000E+00 -0.00000000000E+00 -0.19901751506E+03  0.19901751506E+03  0.00000000000E+00 0.  1.
      99926    2    1    2    0    0  0.14210854715E-13  0.00000000000E+00  0.57683170454E+02  0.45571820058E+03  0.45205279580E+03 0.  0.
      99925    2    3    3    0    0 -0.95382465759E+02  0.52665026451E+02  0.28577892906E+02  0.28729597798E+03  0.26429313880E+03 0.  0.
         25    1    4    4    0    0 -0.65202550720E+01  0.28418442965E+02  0.30188940745E+02  0.13194317667E+03  0.12509000000E+03 0.  0.
         25    1    4    4    0    0 -0.88862210687E+02  0.24246583485E+02 -0.16110478392E+01  0.15535280131E+03  0.12509000000E+03 0.  0.
         25    1    3    3    0    0  0.95382465759E+02 -0.52665026451E+02  0.29105277549E+02  0.16842222260E+03  0.12509000000E+03 0.  0.
<mgrwt>
<rscale>  2 0.45205280E+03</rscale>
<asrwt>0</asrwt>
<pdfrwt beam="1">  1       21 0.37750101E-01 0.45205280E+03</pdfrwt>
<pdfrwt beam="2">  1       21 0.29267281E-01 0.45205280E+03</pdfrwt>
<totfact> 0.70127533E+04</totfact>
</mgrwt>
</event>
<event>
 7    0  0.4685107E-002  0.4528127E+03  0.7546771E-02  0.1026887E+00
         21   -1    0    0  502  501  0.00000000000E+00  0.00000000000E+00  0.24884900470E+03  0.24884900470E+03  0.00000000000E+00 0.  1.
         21   -1    0    0  501  502 -0.00000000000E+00 -0.00000000000E+00 -0.20598771027E+03  0.20598771027E+03  0.00000000000E+00 0.  1.
      99926    2    1    2    0    0  0.71054273576E-14 -0.14210854715E-13  0.42861294430E+02  0.45483671496E+03  0.45281270600E+03 0.  0.
      99925    2    3    3    0    0  0.50208343853E+02 -0.84261298867E+02  0.79551965828E+02  0.29169702713E+03  0.26294067028E+03 0.  0.
         25    1    4    4    0    0  0.27945018586E+02 -0.75562063286E+02  0.16833916807E+02  0.14973789877E+03  0.12509000000E+03 0.  0.
         25    1    4    4    0    0  0.22263325267E+02 -0.86992355814E+01  0.62718049022E+02  0.14195912836E+03  0.12509000000E+03 0.  0.
         25    1    3    3    0    0 -0.50208343853E+02  0.84261298867E+02 -0.36690671398E+02  0.16313968783E+03  0.12509000000E+03 0.  0.
<mgrwt>
<rscale>  2 0.45281271E+03</rscale>
<asrwt>0</asrwt>
<pdfrwt beam="1">  1       21 0.36595442E-01 0.45281271E+03</pdfrwt>
<pdfrwt beam="2">  1       21 0.30292310E-01 0.45281271E+03</pdfrwt>
<totfact> 0.69767385E+04</totfact>
</mgrwt>
</event>
<event>
 7    0  0.4685107E-002  0.4524208E+03  0.7546771E-02  0.1027003E+00
         21   -1    0    0  502  501  0.00000000000E+00  0.00000000000E+00  0.55629199400E+03  0.55629199400E+03  0.00000000000E+00 0. -1.
         21   -1    0    0  501  502 -0.00000000000E+00 -0.00000000000E+00 -0.91986138278E+02  0.91986138278E+02  0.00000000000E+00 0. -1.
      99926    2    1    2    0    0  0.00000000000E+00  0.00000000000E+00  0.46430585572E+03  0.64827813228E+03  0.45242083190E+03 0.  0.
      99925    2    3    3    0    0 -0.41549146570E+02 -0.10171229369E+03  0.31159749794E+03  0.42235984417E+03  0.26310286006E+03 0.  0.
         25    1    3    3    0    0  0.41549146570E+02  0.10171229369E+03  0.15270835778E+03  0.22591828811E+03  0.12509000000E+03 0.  0.
         25    1    4    4    0    0 -0.41910311192E+02 -0.33677487970E+02  0.19753826684E+03  0.23991565673E+03  0.12509000000E+03 0.  0.
         25    1    4    4    0    0  0.36116462261E+00 -0.68034805715E+02  0.11405923110E+03  0.18244418743E+03  0.12509000000E+03 0.  0.
<mgrwt>
<rscale>  2 0.45242083E+03</rscale>
<asrwt>0</asrwt>
<pdfrwt beam="1">  1       21 0.81807645E-01 0.45242083E+03</pdfrwt>
<pdfrwt beam="2">  1       21 0.13527373E-01 0.45242083E+03</pdfrwt>
<totfact> 0.56950794E+04</totfact>
</mgrwt>
</event>
<event>
 7    0  0.4685107E-002  0.4614669E+03  0.7546771E-02  0.1024357E+00
         21   -1    0    0  502  501  0.00000000000E+00  0.00000000000E+00  0.14865802534E+03  0.14865802534E+03  0.00000000000E+00 0.  1.
         21   -1    0    0  501  502 -0.00000000000E+00 -0.00000000000E+00 -0.35812338676E+03  0.35812338676E+03  0.00000000000E+00 0.  1.
      99926    2    1    2    0    0  0.00000000000E+00 -0.71054273576E-14 -0.20946536141E+03  0.50678141210E+03  0.46146685907E+03 0.  0.
      99925    2    3    3    0    0 -0.47180369655E+01 -0.46221173504E+02 -0.11560839983E+02  0.26809256767E+03  0.26378270426E+03 0.  0.
         25    1    3    3    0    0  0.47180369655E+01  0.46221173504E+02 -0.19790452143E+03  0.23868884443E+03  0.12509000000E+03 0.  0.
         25    1    4    4    0    0 -0.96706039159E+01 -0.61367576795E+02  0.10559791096E+02  0.14006611778E+03  0.12509000000E+03 0.  0.
         25    1    4    4    0    0  0.49525669504E+01  0.15146403291E+02 -0.22120631079E+02  0.12802644989E+03  0.12509000000E+03 0.  0.
<mgrwt>
<rscale>  2 0.46146686E+03</rscale>
<asrwt>0</asrwt>
<pdfrwt beam="1">  1       21 0.21861474E-01 0.46146686E+03</pdfrwt>
<pdfrwt beam="2">  1       21 0.52665204E-01 0.46146686E+03</pdfrwt>
<totfact> 0.61574882E+04</totfact>
</mgrwt>
</event>
<event>
 7    0  0.4685107E-002  0.4447971E+03  0.7546771E-02  0.1029285E+00
         21   -1    0    0  502  501  0.00000000000E+00  0.00000000000E+00  0.34237573870E+03  0.34237573870E+03  0.00000000000E+00 0. -1.
         21   -1    0    0  501  502 -0.00000000000E+00 -0.00000000000E+00 -0.14446441173E+03  0.14446441173E+03  0.00000000000E+00 0. -1.
      99926    2    1    2    0    0  0.22204460493E-15  0.00000000000E+00  0.19791132697E+03  0.48684015043E+03  0.44479707590E+03 0.  0.
      99925    2    3    3    0    0  0.96575934395E+00 -0.83364712565E+02  0.58999800837E+02  0.28215862175E+03  0.26302452991E+03 0.  0.
         25    1    3    3    0    0 -0.96575934395E+00  0.83364712565E+02  0.13891152613E+03  0.20468152869E+03  0.12509000000E+03 0.  0.
         25    1    4    4    0    0  0.33186746406E+01 -0.70182757452E+02  0.62055035174E+02  0.15631688500E+03  0.12509000000E+03 0.  0.
         25    1    4    4    0    0 -0.23529152967E+01 -0.13181955113E+02 -0.30552343377E+01  0.12584173675E+03  0.12509000000E+03 0.  0.
<mgrwt>
<rscale>  2 0.44479708E+03</rscale>
<asrwt>0</asrwt>
<pdfrwt beam="1">  1       21 0.50349373E-01 0.44479708E+03</pdfrwt>
<pdfrwt beam="2">  1       21 0.21244767E-01 0.44479708E+03</pdfrwt>
<totfact> 0.71851205E+04</totfact>
</mgrwt>
</event>
<event>
 7    0  0.4685107E-002  0.4049322E+03  0.7546771E-02  0.1042085E+00
         21   -1    0    0  502  501  0.00000000000E+00  0.00000000000E+00  0.53166182873E+02  0.53166182873E+02  0.00000000000E+00 0.  1.
         21   -1    0    0  501  502 -0.00000000000E+00 -0.00000000000E+00 -0.77102641921E+03  0.77102641921E+03  0.00000000000E+00 0.  1.
      99926    2    1    2    0    0 -0.35527136788E-14 -0.35527136788E-14 -0.71786023633E+03  0.82419260208E+03  0.40493224916E+03 0.  0.
      99925    2    3    3    0    0  0.24687965148E+02 -0.28480963398E+02 -0.39709061977E+03  0.47783828074E+03  0.26311176586E+03 0.  0.
         25    1    4    4    0    0  0.43489147109E+02  0.94882203286E+01 -0.17884946810E+03  0.22274643113E+03  0.12509000000E+03 0.  0.
         25    1    3    3    0    0 -0.24687965148E+02  0.28480963398E+02 -0.32076961657E+03  0.34635432134E+03  0.12509000000E+03 0.  0.
         25    1    4    4    0    0 -0.18801181961E+02 -0.37969183727E+02 -0.21824115167E+03  0.25509184961E+03  0.12509000000E+03 0.  0.
<mgrwt>
<rscale>  2 0.40493225E+03</rscale>
<asrwt>0</asrwt>
<pdfrwt beam="1">  1       21 0.78185561E-02 0.40493225E+03</pdfrwt>
<pdfrwt beam="2">  1       21 0.11338624E+00 0.40493225E+03</pdfrwt>
<totfact> 0.70485317E+04</totfact>
</mgrwt>
</event>
<event>
 7    0  0.4685107E-002  0.4493268E+03  0.7546771E-02  0.1027923E+00
         21   -1    0    0  502  501  0.00000000000E+00  0.00000000000E+00  0.48611445694E+03  0.48611445694E+03  0.00000000000E+00 0. -1.
         21   -1    0    0  501  502 -0.00000000000E+00 -0.00000000000E+00 -0.10383075716E+03  0.10383075716E+03  0.00000000000E+00 0. -1.
      99926    2    1    2    0    0  0.00000000000E+00  0.00000000000E+00  0.38228369978E+03  0.58994521411E+03  0.44932675029E+03 0.  0.
      99925    2    3    3    0    0 -0.10302284933E+03 -0.25183089218E+02  0.26695333198E+03  0.38945457266E+03  0.26298837854E+03 0.  0.
         25    1    4    4    0    0 -0.84526683952E+02 -0.13396408389E+02  0.18112489710E+03  0.23617358130E+03  0.12509000000E+03 0.  0.
         25    1    3    3    0    0  0.10302284933E+03  0.25183089218E+02  0.11533036781E+03  0.20049064144E+03  0.12509000000E+03 0.  0.
         25    1    4    4    0    0 -0.18496165383E+02 -0.11786680829E+02  0.85828434877E+02  0.15328099136E+03  0.12509000000E+03 0.  0.
<mgrwt>
<rscale>  2 0.44932675E+03</rscale>
<asrwt>0</asrwt>
<pdfrwt beam="1">  1       21 0.71487419E-01 0.44932675E+03</pdfrwt>
<pdfrwt beam="2">  1       21 0.15269229E-01 0.44932675E+03</pdfrwt>
<totfact> 0.62036608E+04</totfact>
</mgrwt>
</event>
<event>
 7    0  0.4685107E-002  0.4596762E+03  0.7546771E-02  0.1024875E+00
         21   -1    0    0  502  501  0.00000000000E+00  0.00000000000E+00  0.24397927520E+03  0.24397927520E+03  0.00000000000E+00 0.  1.
         21   -1    0    0  501  502 -0.00000000000E+00 -0.00000000000E+00 -0.21651655392E+03  0.21651655392E+03  0.00000000000E+00 0.  1.
      99926    2    1    2    0    0  0.00000000000E+00  0.00000000000E+00  0.27462721272E+02  0.46049582912E+03  0.45967619862E+03 0.  0.
      99925    2    3    3    0    0 -0.11002843965E+03  0.40516916516E+02  0.92731634754E+01  0.28808281868E+03  0.26297878394E+03 0.  0.
         25    1    3    3    0    0  0.11002843965E+03 -0.40516916516E+02  0.18189557796E+02  0.17241301044E+03  0.12509000000E+03 0.  0.
         25    1    4    4    0    0 -0.31426406395E+02 -0.12966512653E+02  0.17204590167E+02  0.13076412158E+03  0.12509000000E+03 0.  0.
         25    1    4    4    0    0 -0.78602033259E+02  0.53483429170E+02 -0.79314266916E+01  0.15731869710E+03  0.12509000000E+03 0.  0.
<mgrwt>
<rscale>  2 0.45967620E+03</rscale>
<asrwt>0</asrwt>
<pdfrwt beam="1">  1       21 0.35879305E-01 0.45967620E+03</pdfrwt>
<pdfrwt beam="2">  1       21 0.31840669E-01 0.45967620E+03</pdfrwt>
<totfact> 0.65660816E+04</totfact>
</mgrwt>
</event>
<event>
 7    0  0.4685107E-002  0.4543226E+03  0.7546771E-02  0.1026441E+00
         21   -1    0    0  502  501  0.00000000000E+00  0.00000000000E+00  0.25120837004E+03  0.25120837004E+03  0.00000000000E+00 0. -1.
         21   -1    0    0  501  502 -0.00000000000E+00 -0.00000000000E+00 -0.20541613812E+03  0.20541613812E+03  0.00000000000E+00 0. -1.
      99926    2    1    2    0    0  0.00000000000E+00 -0.35527136788E-14  0.45792231919E+02  0.45662450817E+03  0.45432258688E+03 0.  0.
      99925    2    3    3    0    0 -0.84740362015E+02 -0.14353295070E+02  0.10192493395E+03  0.29480567622E+03  0.26293487509E+03 0.  0.
         25    1    3    3    0    0  0.84740362015E+02  0.14353295070E+02 -0.56132702028E+02  0.16181883194E+03  0.12509000000E+03 0.  0.
         25    1    4    4    0    0 -0.70655867636E+02  0.12242617202E+02  0.78030498929E+02  0.16394633320E+03  0.12509000000E+03 0.  0.
         25    1    4    4    0    0 -0.14084494379E+02 -0.26595912272E+02  0.23894435018E+02  0.13085934302E+03  0.12509000000E+03 0.  0.
<mgrwt>
<rscale>  2 0.45432259E+03</rscale>
<asrwt>0</asrwt>
<pdfrwt beam="1">  1       21 0.36942407E-01 0.45432259E+03</pdfrwt>
<pdfrwt beam="2">  1       21 0.30208256E-01 0.45432259E+03</pdfrwt>
<totfact> 0.68798021E+04</totfact>
</mgrwt>
</event>
<event>
 7    0  0.4685107E-002  0.4639491E+03  0.7546771E-02  0.1023642E+00
         21   -1    0    0  502  501  0.00000000000E+00  0.00000000000E+00  0.12907676617E+03  0.12907676617E+03  0.00000000000E+00 0.  1.
         21   -1    0    0  501  502 -0.00000000000E+00 -0.00000000000E+00 -0.41690063552E+03  0.41690063552E+03  0.00000000000E+00 0.  1.
      99926    2    1    2    0    0 -0.71054273576E-14  0.00000000000E+00 -0.28782386935E+03  0.54597740168E+03  0.46394907413E+03 0.  0.
      99925    2    3    3    0    0 -0.53918778732E+02 -0.34479369844E+02 -0.30113629179E+03  0.40483637173E+03  0.26289419924E+03 0.  0.
         25    1    4    4    0    0 -0.15361590572E+02 -0.19089048968E+02 -0.90363670010E+02  0.15624810787E+03  0.12509000000E+03 0.  0.
         25    1    3    3    0    0  0.53918778732E+02  0.34479369844E+02  0.13312422444E+02  0.14114102995E+03  0.12509000000E+03 0.  0.
         25    1    4    4    0    0 -0.38557188161E+02 -0.15390320875E+02 -0.21077262178E+03  0.24858826386E+03  0.12509000000E+03 0.  0.
<mgrwt>
<rscale>  2 0.46394907E+03</rscale>
<asrwt>0</asrwt>
<pdfrwt beam="1">  1       21 0.18981877E-01 0.46394907E+03</pdfrwt>
<pdfrwt beam="2">  1       21 0.61308917E-01 0.46394907E+03</pdfrwt>
<totfact> 0.57920105E+04</totfact>
</mgrwt>
</event>
<event>
 7    0  0.4685107E-002  0.4373873E+03  0.7546771E-02  0.1031551E+00
         21   -1    0    0  502  501  0.00000000000E+00  0.00000000000E+00  0.15499988685E+03  0.15499988685E+03  0.00000000000E+00 0. -1.
         21   -1    0    0  501  502 -0.00000000000E+00 -0.00000000000E+00 -0.30856090581E+03  0.30856090581E+03  0.00000000000E+00 0. -1.
      99926    2    1    2    0    0  0.00000000000E+00 -0.88817841970E-15 -0.15356101896E+03  0.46356079266E+03  0.43738726770E+03 0.  0.
      99925    2    3    3    0    0  0.88655420778E+02 -0.73068399174E+01 -0.60887642086E+02  0.28425926889E+03  0.26302633604E+03 0.  0.
         25    1    4    4    0    0  0.60437895710E+02 -0.24005782622E+02 -0.64171770012E+02  0.15490171401E+03  0.12509000000E+03 0.  0.
         25    1    3    3    0    0 -0.88655420778E+02  0.73068399174E+01 -0.92673376878E+02  0.17930152377E+03  0.12509000000E+03 0.  0.
         25    1    4    4    0    0  0.28217525068E+02  0.16698942704E+02  0.32841279262E+01  0.12935755488E+03  0.12509000000E+03 0.  0.
<mgrwt>
<rscale>  2 0.43738727E+03</rscale>
<asrwt>0</asrwt>
<pdfrwt beam="1">  1       21 0.22794101E-01 0.43738727E+03</pdfrwt>
<pdfrwt beam="2">  1       21 0.45376603E-01 0.43738727E+03</pdfrwt>
<totfact> 0.78302181E+04</totfact>
</mgrwt>
</event>
<event>
 7    0  0.4685107E-002  0.4595999E+03  0.7546771E-02  0.1024897E+00
         21   -1    0    0  502  501  0.00000000000E+00  0.00000000000E+00  0.13423231663E+03  0.13423231663E+03  0.00000000000E+00 0. -1.
         21   -1    0    0  501  502 -0.00000000000E+00 -0.00000000000E+00 -0.39340763523E+03  0.39340763523E+03  0.00000000000E+00 0. -1.
      99926    2    1    2    0    0  0.00000000000E+00  0.00000000000E+00 -0.25917531860E+03  0.52763995186E+03  0.45959990538E+03 0.  0.
      99925    2    3    3    0    0 -0.65698288466E+02 -0.95668952311E+02 -0.14254904464E+03  0.32095659640E+03  0.26310471889E+03 0.  0.
         25    1    4    4    0    0 -0.16862865895E+02 -0.23195442015E+02 -0.31248689178E+02  0.13208472074E+03  0.12509000000E+03 0.  0.
         25    1    3    3    0    0  0.65698288466E+02  0.95668952311E+02 -0.11662627396E+03  0.20668335545E+03  0.12509000000E+03 0.  0.
         25    1    4    4    0    0 -0.48835422570E+02 -0.72473510296E+02 -0.11130035546E+03  0.18887187567E+03  0.12509000000E+03 0.  0.
<mgrwt>
<rscale>  2 0.45959991E+03</rscale>
<asrwt>0</asrwt>
<pdfrwt beam="1">  1       21 0.19740047E-01 0.45959991E+03</pdfrwt>
<pdfrwt beam="2">  1       21 0.57854064E-01 0.45959991E+03</pdfrwt>
<totfact> 0.61107709E+04</totfact>
</mgrwt>
</event>
<event>
 7    0  0.4685107E-002  0.4532102E+03  0.7546771E-02  0.1026769E+00
         21   -1    0    0  502  501  0.00000000000E+00  0.00000000000E+00  0.11984059104E+03  0.11984059104E+03  0.00000000000E+00 0.  1.
         21   -1    0    0  501  502 -0.00000000000E+00 -0.00000000000E+00 -0.42848483026E+03  0.42848483026E+03  0.00000000000E+00 0.  1.
      99926    2    1    2    0    0  0.00000000000E+00  0.00000000000E+00 -0.30864423921E+03  0.54832542130E+03  0.45321021750E+03 0.  0.
      99925    2    3    3    0    0 -0.64831315955E+02  0.73422094571E+02 -0.25956125357E+03  0.38204087277E+03  0.26265810594E+03 0.  0.
         25    1    4    4    0    0 -0.45301795546E+02  0.14757118350E+02 -0.85001788805E+02  0.15856493125E+03  0.12509000000E+03 0.  0.
         25    1    4    4    0    0 -0.19529520409E+02  0.58664976221E+02 -0.17455946476E+03  0.22347594152E+03  0.12509000000E+03 0.  0.
         25    1    3    3    0    0  0.64831315955E+02 -0.73422094571E+02 -0.49082985648E+02  0.16628454853E+03  0.12509000000E+03 0.  0.
<mgrwt>
<rscale>  2 0.45321022E+03</rscale>
<asrwt>0</asrwt>
<pdfrwt beam="1">  1       21 0.17623617E-01 0.45321022E+03</pdfrwt>
<pdfrwt beam="2">  1       21 0.63012474E-01 0.45321022E+03</pdfrwt>
<totfact> 0.62862796E+04</totfact>
</mgrwt>
</event>
<event>
 7    0  0.4685107E-002  0.4463835E+03  0.7546771E-02  0.1028806E+00
         21   -1    0    0  502  501  0.00000000000E+00  0.00000000000E+00  0.15779304172E+03  0.15779304172E+03  0.00000000000E+00 0.  1.
         21   -1    0    0  501  502 -0.00000000000E+00 -0.00000000000E+00 -0.31569557134E+03  0.31569557134E+03  0.00000000000E+00 0.  1.
      99926    2    1    2    0    0  0.00000000000E+00 -0.17763568394E-14 -0.15790252962E+03  0.47348861306E+03  0.44638353222E+03 0.  0.
      99925    2    3    3    0    0  0.58940923173E+02  0.76495469752E+01 -0.85470975890E+01  0.26980478657E+03  0.26303806186E+03 0.  0.
         25    1    3    3    0    0 -0.58940923173E+02 -0.76495469752E+01 -0.14935543203E+03  0.20368382648E+03  0.12509000000E+03 0.  0.
         25    1    4    4    0    0  0.22488797775E+02 -0.28843461586E+02  0.19049571812E+02  0.13171213151E+03  0.12509000000E+03 0.  0.
         25    1    4    4    0    0  0.36452125397E+02  0.36493008561E+02 -0.27596669401E+02  0.13809265506E+03  0.12509000000E+03 0.  0.
<mgrwt>
<rscale>  2 0.44638353E+03</rscale>
<asrwt>0</asrwt>
<pdfrwt beam="1">  1       21 0.23204859E-01 0.44638353E+03</pdfrwt>
<pdfrwt beam="2">  1       21 0.46425819E-01 0.44638353E+03</pdfrwt>
<totfact> 0.71974977E+04</totfact>
</mgrwt>
</event>
<event>
 7    0  0.4685107E-002  0.4523276E+03  0.7546771E-02  0.1027030E+00
         21   -1    0    0  502  501  0.00000000000E+00  0.00000000000E+00  0.66806828375E+02  0.66806828375E+02  0.00000000000E+00 0. -1.
         21   -1    0    0  501  502 -0.00000000000E+00 -0.00000000000E+00 -0.76564138553E+03  0.76564138553E+03  0.00000000000E+00 0. -1.
      99926    2    1    2    0    0  0.00000000000E+00  0.35527136788E-14 -0.69883455716E+03  0.83244821391E+03  0.45232763630E+03 0.  0.
      99925    2    3    3    0    0  0.58803852635E+02 -0.30079218886E+02 -0.27655310211E+03  0.38710364184E+03  0.26268794937E+03 0.  0.
         25    1    4    4    0    0  0.48684237479E+02  0.93698283877E+01 -0.10367690413E+03  0.16986570346E+03  0.12509000000E+03 0.  0.
         25    1    3    3    0    0 -0.58803852635E+02  0.30079218886E+02 -0.42228145505E+03  0.44534457207E+03  0.12509000000E+03 0.  0.
         25    1    4    4    0    0  0.10119615156E+02 -0.39449047274E+02 -0.17287619798E+03  0.21723793838E+03  0.12509000000E+03 0.  0.
<mgrwt>
<rscale>  2 0.45232764E+03</rscale>
<asrwt>0</asrwt>
<pdfrwt beam="1">  1       21 0.98245339E-02 0.45232764E+03</pdfrwt>
<pdfrwt beam="2">  1       21 0.11259432E+00 0.45232764E+03</pdfrwt>
<totfact> 0.47217278E+04</totfact>
</mgrwt>
</event>
<event>
 7    0  0.4685107E-002  0.4563141E+03  0.7546771E-02  0.1025856E+00
         21   -1    0    0  502  501  0.00000000000E+00  0.00000000000E+00  0.27475258982E+03  0.27475258982E+03  0.00000000000E+00 0. -1.
         21   -1    0    0  501  502 -0.00000000000E+00 -0.00000000000E+00 -0.18946367084E+03  0.18946367084E+03  0.00000000000E+00 0. -1.
      99926    2    1    2    0    0  0.00000000000E+00  0.00000000000E+00  0.85288918982E+02  0.46421626066E+03  0.45631407710E+03 0.  0.
      99925    2    3    3    0    0  0.60081628073E+02  0.39420820687E+02 -0.37550636583E+02  0.27474101782E+03  0.26250480649E+03 0.  0.
         25    1    4    4    0    0  0.34011727791E+02 -0.14410997258E+02 -0.38808026859E+02  0.13608102556E+03  0.12509000000E+03 0.  0.
         25    1    3    3    0    0 -0.60081628073E+02 -0.39420820687E+02  0.12283955557E+03  0.18947524283E+03  0.12509000000E+03 0.  0.
         25    1    4    4    0    0  0.26069900282E+02  0.53831817945E+02  0.12573902765E+01  0.13865999226E+03  0.12509000000E+03 0.  0.
<mgrwt>
<rscale>  2 0.45631408E+03</rscale>
<asrwt>0</asrwt>
<pdfrwt beam="1">  1       21 0.40404793E-01 0.45631408E+03</pdfrwt>
<pdfrwt beam="2">  1       21 0.27862304E-01 0.45631408E+03</pdfrwt>
<totfact> 0.67164034E+04</totfact>
</mgrwt>
</event>
<event>
 7    0  0.4685107E-002  0.4623923E+03  0.7546771E-02  0.1024090E+00
         21   -1    0    0  502  501  0.00000000000E+00  0.00000000000E+00  0.16720223989E+03  0.16720223989E+03  0.00000000000E+00 0. -1.
         21   -1    0    0  501  502 -0.00000000000E+00 -0.00000000000E+00 -0.31968274430E+03  0.31968274430E+03  0.00000000000E+00 0. -1.
      99926    2    1    2    0    0  0.00000000000E+00  0.14210854715E-13 -0.15248050441E+03  0.48688498419E+03  0.46239234813E+03 0.  0.
      99925    2    3    3    0    0 -0.74351928460E+02  0.94311677580E+02 -0.96267564620E+02  0.30459317282E+03  0.26284340421E+03 0.  0.
         25    1    3    3    0    0  0.74351928460E+02 -0.94311677580E+02 -0.56212939794E+02  0.18229181137E+03  0.12509000000E+03 0.  0.
         25    1    4    4    0    0 -0.16841843061E+02  0.81867515913E+02 -0.43257169205E+02  0.15653954333E+03  0.12509000000E+03 0.  0.
         25    1    4    4    0    0 -0.57510085399E+02  0.12444161667E+02 -0.53010395415E+02  0.14805362949E+03  0.12509000000E+03 0.  0.
<mgrwt>
<rscale>  2 0.46239235E+03</rscale>
<asrwt>0</asrwt>
<pdfrwt beam="1">  1       21 0.24588565E-01 0.46239235E+03</pdfrwt>
<pdfrwt beam="2">  1       21 0.47012168E-01 0.46239235E+03</pdfrwt>
<totfact> 0.62456057E+04</totfact>
</mgrwt>
</event>
<event>
 7    0  0.4685107E-002  0.4535331E+03  0.7546771E-02  0.1026674E+00
         21   -1    0    0  502  501  0.00000000000E+00  0.00000000000E+00  0.11438047418E+03  0.11438047418E+03  0.00000000000E+00 0.  1.
         21   -1    0    0  501  502 -0.00000000000E+00 -0.00000000000E+00 -0.44957912055E+03  0.44957912055E+03  0.00000000000E+00 0.  1.
      99926    2    1    2    0    0  0.44408920985E-15  0.00000000000E+00 -0.33519864637E+03  0.56395959473E+03  0.45353312113E+03 0.  0.
      99925    2    3    3    0    0 -0.39568445447E+01 -0.86985220555E+02 -0.12311769798E+03  0.30279313061E+03  0.26257118496E+03 0.  0.
         25    1    3    3    0    0  0.39568445447E+01  0.86985220555E+02 -0.21208094838E+03  0.26116646412E+03  0.12509000000E+03 0.  0.
         25    1    4    4    0    0 -0.58902160010E+01 -0.79692475957E+02 -0.44936704971E+02  0.15508836488E+03  0.12509000000E+03 0.  0.
         25    1    4    4    0    0  0.19333714562E+01 -0.72927445978E+01 -0.78180993013E+02  0.14770476572E+03  0.12509000000E+03 0.  0.
<mgrwt>
<rscale>  2 0.45353312E+03</rscale>
<asrwt>0</asrwt>
<pdfrwt beam="1">  1       21 0.16820658E-01 0.45353312E+03</pdfrwt>
<pdfrwt beam="2">  1       21 0.66114577E-01 0.45353312E+03</pdfrwt>
<totfact> 0.61665681E+04</totfact>
</mgrwt>
</event>
<event>
 7    0  0.4685107E-002  0.4847365E+03  0.7546771E-02  0.1017842E+00
         21   -1    0    0  502  501  0.00000000000E+00  0.00000000000E+00  0.95881380123E+03  0.95881380123E+03  0.00000000000E+00 0. -1.
         21   -1    0    0  501  502 -0.00000000000E+00 -0.00000000000E+00 -0.61265666123E+02  0.61265666123E+02  0.00000000000E+00 0. -1.
      99926    2    1    2    0    0  0.00000000000E+00  0.00000000000E+00  0.89754813511E+03  0.10200794674E+04  0.48473649015E+03 0.  0.
      99925    2    3    3    0    0  0.91370354690E+01 -0.24287828324E+02  0.83891958524E+03  0.87951560649E+03  0.26284643337E+03 0.  0.
         25    1    4    4    0    0  0.34575636818E+02  0.51264215832E+01  0.48645497398E+03  0.50349548624E+03  0.12509000000E+03 0.  0.
         25    1    3    3    0    0 -0.91370354690E+01  0.24287828324E+02  0.58628549868E+02  0.14056386087E+03  0.12509000000E+03 0.  0.
         25    1    4    4    0    0 -0.25438601349E+02 -0.29414249907E+02  0.35246461126E+03  0.37602012024E+03  0.12509000000E+03 0.  0.
<mgrwt>
<rscale>  2 0.48473649E+03</rscale>
<asrwt>0</asrwt>
<pdfrwt beam="1">  1       21 0.14100202E+00 0.48473649E+03</pdfrwt>
<pdfrwt beam="2">  1       21 0.90096574E-02 0.48473649E+03</pdfrwt>
<totfact> 0.30637683E+04</totfact>
</mgrwt>
</event>
<event>
 7    0  0.4685107E-002  0.4688085E+03  0.7546771E-02  0.1022257E+00
         21   -1    0    0  502  501  0.00000000000E+00  0.00000000000E+00  0.63541603987E+03  0.63541603987E+03  0.00000000000E+00 0. -1.
         21   -1    0    0  501  502 -0.00000000000E+00 -0.00000000000E+00 -0.86471472912E+02  0.86471472912E+02  0.00000000000E+00 0. -1.
      99926    2    1    2    0    0  0.00000000000E+00 -0.14210854715E-13  0.54894456696E+03  0.72188751278E+03  0.46880853610E+03 0.  0.
      99925    2    3    3    0    0 -0.99460887746E+01 -0.96566180369E+02  0.46406322649E+03  0.54223144711E+03  0.26312793880E+03 0.  0.
         25    1    4    4    0    0 -0.91011355200E+01 -0.56168830753E+01  0.19642347191E+03  0.23311814271E+03  0.12509000000E+03 0.  0.
         25    1    4    4    0    0 -0.84495325457E+00 -0.90949297293E+02  0.26763975458E+03  0.30911330440E+03  0.12509000000E+03 0.  0.
         25    1    3    3    0    0  0.99460887746E+01  0.96566180369E+02  0.84881340461E+02  0.17965606567E+03  0.12509000000E+03 0.  0.
<mgrwt>
<rscale>  2 0.46880854E+03</rscale>
<asrwt>0</asrwt>
<pdfrwt beam="1">  1       21 0.93443533E-01 0.46880854E+03</pdfrwt>
<pdfrwt beam="2">  1       21 0.12716393E-01 0.46880854E+03</pdfrwt>
<totfact> 0.46473673E+04</totfact>
</mgrwt>
</event>
<event>
 7    0  0.4685107E-002  0.4535654E+03  0.7546771E-02  0.1026664E+00
         21   -1    0    0  502  501  0.00000000000E+00  0.00000000000E+00  0.72780348662E+02  0.72780348662E+02  0.00000000000E+00 0. -1.
         21   -1    0    0  501  502 -0.00000000000E+00 -0.00000000000E+00 -0.70665217904E+03  0.70665217904E+03  0.00000000000E+00 0. -1.
      99926    2    1    2    0    0  0.35527136788E-14  0.00000000000E+00 -0.63387183038E+03  0.77943252770E+03  0.45356539539E+03 0.  0.
      99925    2    3    3    0    0 -0.19879300027E+02  0.38802123914E+02 -0.22357874632E+03  0.34828439270E+03  0.26346493315E+03 0.  0.
         25    1    4    4    0    0  0.20252702745E+02  0.42716943081E+02 -0.92039372594E+02  0.16233811445E+03  0.12509000000E+03 0.  0.
         25    1    4    4    0    0 -0.40132002772E+02 -0.39148191673E+01 -0.13153937373E+03  0.18594627825E+03  0.12509000000E+03 0.  0.
         25    1    3    3    0    0  0.19879300027E+02 -0.38802123914E+02 -0.41029308406E+03  0.43114813500E+03  0.12509000000E+03 0.  0.
<mgrwt>
<rscale>  2 0.45356540E+03</rscale>
<asrwt>0</asrwt>
<pdfrwt beam="1">  1       21 0.10702993E-01 0.45356540E+03</pdfrwt>
<pdfrwt beam="2">  1       21 0.10391944E+00 0.45356540E+03</pdfrwt>
<totfact> 0.49328892E+04</totfact>
</mgrwt>
</event>
<event>
 7    0  0.4685107E-002  0.4585184E+03  0.7546771E-02  0.1025212E+00
         21   -1    0    0  502  501  0.00000000000E+00  0.00000000000E+00  0.96123623137E+02  0.96123623137E+02  0.00000000000E+00 0.  1.
         21   -1    0    0  501  502 -0.00000000000E+00 -0.00000000000E+00 -0.54679363717E+03  0.54679363717E+03  0.00000000000E+00 0.  1.
      99926    2    1    2    0    0  0.00000000000E+00  0.00000000000E+00 -0.45067001403E+03  0.64291726030E+03  0.45851842062E+03 0.  0.
      99925    2    3    3    0    0 -0.88237499408E+02 -0.27307318640E+02 -0.18312657877E+03  0.33346848618E+03  0.26293410101E+03 0.  0.
         25    1    4    4    0    0 -0.46032358653E+02 -0.11222873270E+02 -0.14006472079E+03  0.19367644420E+03  0.12509000000E+03 0.  0.
         25    1    3    3    0    0  0.88237499408E+02  0.27307318640E+02 -0.26754343526E+03  0.30944877412E+03  0.12509000000E+03 0.  0.
         25    1    4    4    0    0 -0.42205140754E+02 -0.16084445370E+02 -0.43061857975E+02  0.13979204198E+03  0.12509000000E+03 0.  0.
<mgrwt>
<rscale>  2 0.45851842E+03</rscale>
<asrwt>0</asrwt>
<pdfrwt beam="1">  1       21 0.14135827E-01 0.45851842E+03</pdfrwt>
<pdfrwt beam="2">  1       21 0.80410826E-01 0.45851842E+03</pdfrwt>
<totfact> 0.54580162E+04</totfact>
</mgrwt>
</event>
<event>
 7    0  0.4685107E-002  0.4586341E+03  0.7546771E-02  0.1025178E+00
         21   -1    0    0  502  501  0.00000000000E+00  0.00000000000E+00  0.15997847280E+04  0.15997847280E+04  0.00000000000E+00 0.  1.
         21   -1    0    0  501  502 -0.00000000000E+00 -0.00000000000E+00 -0.32870870160E+02  0.32870870160E+02  0.00000000000E+00 0.  1.
      99926    2    1    2    0    0  0.00000000000E+00  0.00000000000E+00  0.15669138579E+04  0.16326555982E+04  0.45863412903E+03 0.  0.
      99925    2    3    3    0    0 -0.11042191174E+03  0.18247739002E+02  0.86585088089E+03  0.91177919799E+03  0.26290222400E+03 0.  0.
         25    1    4    4    0    0 -0.62694303153E+02  0.48122712366E+02  0.41999888317E+03  0.44530095560E+03  0.12509000000E+03 0.  0.
         25    1    3    3    0    0  0.11042191174E+03 -0.18247739002E+02  0.70106297699E+03  0.72087640020E+03  0.12509000000E+03 0.  0.
         25    1    4    4    0    0 -0.47727608582E+02 -0.29874973364E+02  0.44585199772E+03  0.46647824239E+03  0.12509000000E+03 0.  0.
<mgrwt>
<rscale>  2 0.45863413E+03</rscale>
<asrwt>0</asrwt>
<pdfrwt beam="1">  1       21 0.23526241E+00 0.45863413E+03</pdfrwt>
<pdfrwt beam="2">  1       21 0.48339526E-02 0.45863413E+03</pdfrwt>
<totfact> 0.20127833E+04</totfact>
</mgrwt>
</event>
<event>
 7    0  0.4685107E-002  0.4511600E+03  0.7546771E-02  0.1027377E+00
         21   -1    0    0  502  501  0.00000000000E+00  0.00000000000E+00  0.35274553962E+03  0.35274553962E+03  0.00000000000E+00 0. -1.
         21   -1    0    0  501  502 -0.00000000000E+00 -0.00000000000E+00 -0.14425792817E+03  0.14425792817E+03  0.00000000000E+00 0. -1.
      99926    2    1    2    0    0  0.00000000000E+00 -0.35527136788E-14  0.20848761145E+03  0.49700346780E+03  0.45116001914E+03 0.  0.
      99925    2    3    3    0    0  0.24509058432E+02  0.28091856111E+02  0.24499286300E+03  0.36146753966E+03  0.26314906989E+03 0.  0.
         25    1    3    3    0    0 -0.24509058432E+02 -0.28091856111E+02 -0.36505251551E+02  0.13553592814E+03  0.12509000000E+03 0.  0.
         25    1    4    4    0    0  0.98819115373E+01  0.54076771359E+02  0.11462655050E+03  0.17834994689E+03  0.12509000000E+03 0.  0.
         25    1    4    4    0    0  0.14627146895E+02 -0.25984915248E+02  0.13036631250E+03  0.18311759277E+03  0.12509000000E+03 0.  0.
<mgrwt>
<rscale>  2 0.45116002E+03</rscale>
<asrwt>0</asrwt>
<pdfrwt beam="1">  1       21 0.51874344E-01 0.45116002E+03</pdfrwt>
<pdfrwt beam="2">  1       21 0.21214401E-01 0.45116002E+03</pdfrwt>
<totfact> 0.67516396E+04</totfact>
</mgrwt>
</event>
<event>
 7    0  0.4685107E-002  0.4572926E+03  0.7546771E-02  0.1025569E+00
         21   -1    0    0  502  501  0.00000000000E+00  0.00000000000E+00  0.11200733048E+03  0.11200733048E+03  0.00000000000E+00 0.  1.
         21   -1    0    0  501  502 -0.00000000000E+00 -0.00000000000E+00 -0.46674736096E+03  0.46674736096E+03  0.00000000000E+00 0.  1.
      99926    2    1    2    0    0  0.00000000000E+00  0.00000000000E+00 -0.35474003047E+03  0.57875469144E+03  0.45729257991E+03 0.  0.
      99925    2    3    3    0    0 -0.77978502813E+02  0.84189341466E+02 -0.23694886419E+03  0.37213726944E+03  0.26300739714E+03 0.  0.
         25    1    4    4    0    0 -0.48651724768E+02  0.12474114766E+02 -0.78867915572E+02  0.15617378163E+03  0.12509000000E+03 0.  0.
         25    1    3    3    0    0  0.77978502813E+02 -0.84189341466E+02 -0.11779116629E+03  0.20661742200E+03  0.12509000000E+03 0.  0.
         25    1    4    4    0    0 -0.29326778045E+02  0.71715226700E+02 -0.15808094862E+03  0.21596348781E+03  0.12509000000E+03 0.  0.
<mgrwt>
<rscale>  2 0.45729258E+03</rscale>
<asrwt>0</asrwt>
<pdfrwt beam="1">  1       21 0.16471666E-01 0.45729258E+03</pdfrwt>
<pdfrwt beam="2">  1       21 0.68639318E-01 0.45729258E+03</pdfrwt>
<totfact> 0.58930001E+04</totfact>
</mgrwt>
</event>
<event>
 7    0  0.4685107E-002  0.4615676E+03  0.7546771E-02  0.1024328E+00
         21   -1    0    0  502  501  0.00000000000E+00  0.00000000000E+00  0.91492730231E+03  0.91492730231E+03  0.00000000000E+00 0.  1.
         21   -1    0    0  501  502 -0.00000000000E+00 -0.00000000000E+00 -0.58213552414E+02  0.58213552414E+02  0.00000000000E+00 0.  1.
      99926    2    1    2    0    0  0.00000000000E+00  0.00000000000E+00  0.85671374989E+03  0.97314085472E+03  0.46156762654E+03 0.  0.
      99925    2    3    3    0    0 -0.14851338345E+02  0.41100704082E+02  0.76984460810E+03  0.81469974256E+03  0.26299262306E+03 0.  0.
         25    1    4    4    0    0 -0.47367035156E+02  0.15225072388E+02  0.40333343944E+03  0.42520678536E+03  0.12509000000E+03 0.  0.
         25    1    4    4    0    0  0.32515696810E+02  0.25875631693E+02  0.36651116866E+03  0.38949295720E+03  0.12509000000E+03 0.  0.
         25    1    3    3    0    0  0.14851338345E+02 -0.41100704082E+02  0.86869141793E+02  0.15844111216E+03  0.12509000000E+03 0.  0.
<mgrwt>
<rscale>  2 0.46156763E+03</rscale>
<asrwt>0</asrwt>
<pdfrwt beam="1">  1       21 0.13454812E+00 0.46156763E+03</pdfrwt>
<pdfrwt beam="2">  1       21 0.85608170E-02 0.46156763E+03</pdfrwt>
<totfact> 0.38217392E+04</totfact>
</mgrwt>
</event>
<event>
 7    0  0.4685107E-002  0.4519143E+03  0.7546771E-02  0.1027153E+00
         21   -1    0    0  502  501  0.00000000000E+00  0.00000000000E+00  0.77160118842E+02  0.77160118842E+02  0.00000000000E+00 0.  1.
         21   -1    0    0  501  502 -0.00000000000E+00 -0.00000000000E+00 -0.66169717332E+03  0.66169717332E+03  0.00000000000E+00 0.  1.
      99926    2    1    2    0    0  0.71054273576E-14  0.00000000000E+00 -0.58453705448E+03  0.73885729216E+03  0.45191429511E+03 0.  0.
      99925    2    3    3    0    0 -0.43079187734E+02  0.72887355085E+02 -0.25406654514E+03  0.37550257761E+03  0.26321852800E+03 0.  0.
         25    1    4    4    0    0 -0.23197559949E+02  0.49465891989E+00 -0.14779702335E+03  0.19501240906E+03  0.12509000000E+03 0.  0.
         25    1    4    4    0    0 -0.19881627785E+02  0.72392696165E+02 -0.10626952179E+03  0.18049016855E+03  0.12509000000E+03 0.  0.
         25    1    3    3    0    0  0.43079187734E+02 -0.72887355085E+02 -0.33047050934E+03  0.36335471456E+03  0.12509000000E+03 0.  0.
<mgrwt>
<rscale>  2 0.45191430E+03</rscale>
<asrwt>0</asrwt>
<pdfrwt beam="1">  1       21 0.11347076E-01 0.45191430E+03</pdfrwt>
<pdfrwt beam="2">  1       21 0.97308412E-01 0.45191430E+03</pdfrwt>
<totfact> 0.52095849E+04</totfact>
</mgrwt>
</event>
<event>
 7    0  0.4685107E-002  0.4535025E+03  0.7546771E-02  0.1026683E+00
         21   -1    0    0  502  501  0.00000000000E+00  0.00000000000E+00  0.73059054170E+03  0.73059054170E+03  0.00000000000E+00 0.  1.
         21   -1    0    0  501  502 -0.00000000000E+00 -0.00000000000E+00 -0.70376126914E+02  0.70376126914E+02  0.00000000000E+00 0.  1.
      99926    2    1    2    0    0  0.00000000000E+00  0.00000000000E+00  0.66021441479E+03  0.80096666862E+03  0.45350251459E+03 0.  0.
      99925    2    3    3    0    0 -0.21472858415E+02  0.10807150106E+03  0.44946778963E+03  0.53226203318E+03  0.26294684836E+03 0.  0.
         25    1    4    4    0    0 -0.78374865028E+01  0.61390708780E+02  0.30303790642E+03  0.33363112287E+03  0.12509000000E+03 0.  0.
         25    1    4    4    0    0 -0.13635371912E+02  0.46680792277E+02  0.14642988321E+03  0.19863091032E+03  0.12509000000E+03 0.  0.
         25    1    3    3    0    0  0.21472858415E+02 -0.10807150106E+03  0.21074662516E+03  0.26870463544E+03  0.12509000000E+03 0.  0.
<mgrwt>
<rscale>  2 0.45350251E+03</rscale>
<asrwt>0</asrwt>
<pdfrwt beam="1">  1       21 0.10743978E+00 0.45350251E+03</pdfrwt>
<pdfrwt beam="2">  1       21 0.10349431E-01 0.45350251E+03</pdfrwt>
<totfact> 0.48283008E+04</totfact>
</mgrwt>
</event>
<event>
 7    0  0.4685107E-002  0.4673933E+03  0.7546771E-02  0.1022659E+00
         21   -1    0    0  502  501  0.00000000000E+00  0.00000000000E+00  0.53553015877E+02  0.53553015877E+02  0.00000000000E+00 0.  1.
         21   -1    0    0  501  502 -0.00000000000E+00 -0.00000000000E+00 -0.10198142145E+04  0.10198142145E+04  0.00000000000E+00 0.  1.
      99926    2    1    2    0    0  0.00000000000E+00  0.00000000000E+00 -0.96626119866E+03  0.10733672304E+04  0.46739331113E+03 0.  0.
      99925    2    3    3    0    0 -0.66691866524E+02 -0.10399295963E+03 -0.63421599524E+03  0.69764942949E+03  0.26310160992E+03 0.  0.
         25    1    4    4    0    0 -0.26205442517E+02 -0.83861740655E+01 -0.27567786983E+03  0.30397836954E+03  0.12509000000E+03 0.  0.
         25    1    4    4    0    0 -0.40486424007E+02 -0.95606785565E+02 -0.35853812541E+03  0.39367105996E+03  0.12509000000E+03 0.  0.
         25    1    3    3    0    0  0.66691866524E+02  0.10399295963E+03 -0.33204520343E+03  0.37571780092E+03  0.12509000000E+03 0.  0.
<mgrwt>
<rscale>  2 0.46739331E+03</rscale>
<asrwt>0</asrwt>
<pdfrwt beam="1">  1       21 0.78754437E-02 0.46739331E+03</pdfrwt>
<pdfrwt beam="2">  1       21 0.14997267E+00 0.46739331E+03</pdfrwt>
<totfact> 0.33111457E+04</totfact>
</mgrwt>
</event>
<event>
 7    0  0.4685107E-002  0.4583464E+03  0.7546771E-02  0.1025262E+00
         21   -1    0    0  502  501  0.00000000000E+00  0.00000000000E+00  0.92992073983E+02  0.92992073983E+02  0.00000000000E+00 0.  1.
         21   -1    0    0  501  502 -0.00000000000E+00 -0.00000000000E+00 -0.56478319549E+03  0.56478319549E+03  0.00000000000E+00 0.  1.
      99926    2    1    2    0    0  0.00000000000E+00  0.00000000000E+00 -0.47179112150E+03  0.65777526947E+03  0.45834642226E+03 0.  0.
      99925    2    3    3    0    0 -0.79990341672E+02 -0.82998522259E+02 -0.31821694502E+03  0.42860340113E+03  0.26296699774E+03 0.  0.
         25    1    3    3    0    0  0.79990341672E+02  0.82998522259E+02 -0.15357417648E+03  0.22917186834E+03  0.12509000000E+03 0.  0.
         25    1    4    4    0    0 -0.70770913445E+01 -0.27429898357E+02 -0.10993859126E+03  0.16892745926E+03  0.12509000000E+03 0.  0.
         25    1    4    4    0    0 -0.72913250328E+02 -0.55568623901E+02 -0.20827835377E+03  0.25967594186E+03  0.12509000000E+03 0.  0.
<mgrwt>
<rscale>  2 0.45834642E+03</rscale>
<asrwt>0</asrwt>
<pdfrwt beam="1">  1       21 0.13675305E-01 0.45834642E+03</pdfrwt>
<pdfrwt beam="2">  1       21 0.83056352E-01 0.45834642E+03</pdfrwt>
<totfact> 0.53821080E+04</totfact>
</mgrwt>
</event>
<event>
 7    0  0.4685107E-002  0.4466103E+03  0.7546771E-02  0.1028738E+00
         21   -1    0    0  502  501  0.00000000000E+00  0.00000000000E+00  0.28040774480E+03  0.28040774480E+03  0.00000000000E+00 0.  1.
         21   -1    0    0  501  502 -0.00000000000E+00 -0.00000000000E+00 -0.17783096787E+03  0.17783096787E+03  0.00000000000E+00 0.  1.
      99926    2    1    2    0    0  0.00000000000E+00  0.00000000000E+00  0.10257677693E+03  0.45823871267E+03  0.44661025808E+03 0.  0.
      99925    2    3    3    0    0 -0.98133085251E+02  0.16784323128E+02  0.99542875012E+02  0.29833709109E+03  0.26302931401E+03 0.  0.
         25    1    3    3    0    0  0.98133085251E+02 -0.16784323128E+02  0.30339019171E+01  0.15990162158E+03  0.12509000000E+03 0.  0.
         25    1    4    4    0    0 -0.61496793667E+02 -0.27956411826E+02  0.36403300971E+02  0.14675191656E+03  0.12509000000E+03 0.  0.
         25    1    4    4    0    0 -0.36636291584E+02  0.44740734954E+02  0.63139574041E+02  0.15158517452E+03  0.12509000000E+03 0.  0.
<mgrwt>
<rscale>  2 0.44661026E+03</rscale>
<asrwt>0</asrwt>
<pdfrwt beam="1">  1       21 0.41236433E-01 0.44661026E+03</pdfrwt>
<pdfrwt beam="2">  1       21 0.26151613E-01 0.44661026E+03</pdfrwt>
<totfact> 0.73063248E+04</totfact>
</mgrwt>
</event>
<event>
 7    0  0.4685107E-002  0.4514930E+03  0.7546771E-02  0.1027278E+00
         21   -1    0    0  502  501  0.00000000000E+00  0.00000000000E+00  0.55251321389E+02  0.55251321389E+02  0.00000000000E+00 0. -1.
         21   -1    0    0  501  502 -0.00000000000E+00 -0.00000000000E+00 -0.92235779132E+03  0.92235779132E+03  0.00000000000E+00 0. -1.
      99926    2    1    2    0    0  0.00000000000E+00 -0.14210854715E-13 -0.86710646993E+03  0.97760911271E+03  0.45149301994E+03 0.  0.
      99925    2    3    3    0    0  0.48845704613E+02  0.92431434488E+02 -0.47396846632E+03  0.55201015721E+03  0.26294416452E+03 0.  0.
         25    1    4    4    0    0  0.42420474107E+02  0.12735328647E+02 -0.25495122297E+03  0.28741837000E+03  0.12509000000E+03 0.  0.
         25    1    3    3    0    0 -0.48845704613E+02 -0.92431434488E+02 -0.39313800360E+03  0.42559895550E+03  0.12509000000E+03 0.  0.
         25    1    4    4    0    0  0.64252305058E+01  0.79696105841E+02 -0.21901724335E+03  0.26459178721E+03  0.12509000000E+03 0.  0.
<mgrwt>
<rscale>  2 0.45149302E+03</rscale>
<asrwt>0</asrwt>
<pdfrwt beam="1">  1       21 0.81251951E-02 0.45149302E+03</pdfrwt>
<pdfrwt beam="2">  1       21 0.13564084E+00 0.45149302E+03</pdfrwt>
<totfact> 0.41159349E+04</totfact>
</mgrwt>
</event>
<event>
 7    0  0.4685107E-002  0.4502452E+03  0.7546771E-02  0.1027649E+00
         21   -1    0    0  502  501  0.00000000000E+00  0.00000000000E+00  0.19860325670E+04  0.19860325670E+04  0.00000000000E+00 0.  1.
         21   -1    0    0  501  502 -0.00000000000E+00 -0.00000000000E+00 -0.25518305270E+02  0.25518305270E+02  0.00000000000E+00 0.  1.
      99926    2    1    2    0    0 -0.71054273576E-14  0.00000000000E+00  0.19605142617E+04  0.20115508723E+04  0.45024520129E+03 0.  0.
      99925    2    3    3    0    0 -0.58722492220E+02  0.84219027016E+02  0.10808607877E+04  0.11171354665E+04  0.26304074309E+03 0.  0.
         25    1    4    4    0    0 -0.21419923677E+02  0.46328062548E+00  0.51472462459E+03  0.53013958070E+03  0.12509000000E+03 0.  0.
         25    1    4    4    0    0 -0.37302568543E+02  0.83755746391E+02  0.56613616309E+03  0.58699588579E+03  0.12509000000E+03 0.  0.
         25    1    3    3    0    0  0.58722492220E+02 -0.84219027016E+02  0.87965347403E+03  0.89441540577E+03  0.12509000000E+03 0.  0.
<mgrwt>
<rscale>  2 0.45024520E+03</rscale>
<asrwt>0</asrwt>
<pdfrwt beam="1">  1       21 0.29206351E+00 0.45024520E+03</pdfrwt>
<pdfrwt beam="2">  1       21 0.37526933E-02 0.45024520E+03</pdfrwt>
<totfact> 0.14032810E+04</totfact>
</mgrwt>
</event>
<event>
 7    0  0.4685107E-002  0.4480369E+03  0.7546771E-02  0.1028309E+00
         21   -1    0    0  502  501  0.00000000000E+00  0.00000000000E+00  0.31983069865E+03  0.31983069865E+03  0.00000000000E+00 0.  1.
         21   -1    0    0  501  502 -0.00000000000E+00 -0.00000000000E+00 -0.15690884335E+03  0.15690884335E+03  0.00000000000E+00 0.  1.
      99926    2    1    2    0    0  0.00000000000E+00  0.00000000000E+00  0.16292185531E+03  0.47673954200E+03  0.44803689577E+03 0.  0.
      99925    2    3    3    0    0 -0.23505354797E+02  0.70401564058E+02  0.18451797715E+03  0.32969267021E+03  0.26294769627E+03 0.  0.
         25    1    4    4    0    0  0.99202200048E+01  0.54471738987E+02  0.12861959495E+03  0.18776604969E+03  0.12509000000E+03 0.  0.
         25    1    4    4    0    0 -0.33425574802E+02  0.15929825071E+02  0.55898382200E+02  0.14192662051E+03  0.12509000000E+03 0.  0.
         25    1    3    3    0    0  0.23505354797E+02 -0.70401564058E+02 -0.21596121842E+02  0.14704687179E+03  0.12509000000E+03 0.  0.
<mgrwt>
<rscale>  2 0.44803690E+03</rscale>
<asrwt>0</asrwt>
<pdfrwt beam="1">  1       21 0.47033926E-01 0.44803690E+03</pdfrwt>
<pdfrwt beam="2">  1       21 0.23074830E-01 0.44803690E+03</pdfrwt>
<totfact> 0.70769518E+04</totfact>
</mgrwt>
</event>
<event>
 7    0  0.4685107E-002  0.4570995E+03  0.7546771E-02  0.1025626E+00
         21   -1    0    0  502  501  0.00000000000E+00  0.00000000000E+00  0.32273973415E+03  0.32273973415E+03  0.00000000000E+00 0. -1.
         21   -1    0    0  501  502 -0.00000000000E+00 -0.00000000000E+00 -0.16184863391E+03  0.16184863391E+03  0.00000000000E+00 0. -1.
      99926    2    1    2    0    0  0.00000000000E+00  0.00000000000E+00  0.16089110024E+03  0.48458836806E+03  0.45709948624E+03 0.  0.
      99925    2    3    3    0    0 -0.51465148024E+02  0.92635985187E+02  0.53261394129E+02  0.28847169627E+03  0.26296208136E+03 0.  0.
         25    1    3    3    0    0  0.51465148024E+02 -0.92635985187E+02  0.10762970611E+03  0.19611667178E+03  0.12509000000E+03 0.  0.
         25    1    4    4    0    0 -0.88152921445E+01  0.13030595327E+02  0.45354610054E+02  0.13398527734E+03  0.12509000000E+03 0.  0.
         25    1    4    4    0    0 -0.42649855880E+02  0.79605389860E+02  0.79067840751E+01  0.15448641894E+03  0.12509000000E+03 0.  0.
<mgrwt>
<rscale>  2 0.45709949E+03</rscale>
<asrwt>0</asrwt>
<pdfrwt beam="1">  1       21 0.47461726E-01 0.45709949E+03</pdfrwt>
<pdfrwt beam="2">  1       21 0.23801270E-01 0.45709949E+03</pdfrwt>
<totfact> 0.65272950E+04</totfact>
</mgrwt>
</event>
<event>
 7    0  0.4685107E-002  0.4536835E+03  0.7546771E-02  0.1026629E+00
         21   -1    0    0  502  501  0.00000000000E+00  0.00000000000E+00  0.34268123979E+03  0.34268123979E+03  0.00000000000E+00 0.  1.
         21   -1    0    0  501  502 -0.00000000000E+00 -0.00000000000E+00 -0.15016045136E+03  0.15016045136E+03  0.00000000000E+00 0.  1.
      99926    2    1    2    0    0  0.00000000000E+00  0.00000000000E+00  0.19252078843E+03  0.49284169114E+03  0.45368345634E+03 0.  0.
      99925    2    3    3    0    0  0.46764941184E+02  0.88699245655E+02  0.66209534054E+02  0.28874231097E+03  0.26255266870E+03 0.  0.
         25    1    3    3    0    0 -0.46764941184E+02 -0.88699245655E+02  0.12631125438E+03  0.20409938017E+03  0.12509000000E+03 0.  0.
         25    1    4    4    0    0  0.34128129823E+02  0.10335498888E+02  0.51379104899E+02  0.13985303823E+03  0.12509000000E+03 0.  0.
         25    1    4    4    0    0  0.12636811361E+02  0.78363746767E+02  0.14830429155E+02  0.14888927274E+03  0.12509000000E+03 0.  0.
<mgrwt>
<rscale>  2 0.45368346E+03</rscale>
<asrwt>0</asrwt>
<pdfrwt beam="1">  1       21 0.50394300E-01 0.45368346E+03</pdfrwt>
<pdfrwt beam="2">  1       21 0.22082419E-01 0.45368346E+03</pdfrwt>
<totfact> 0.66468518E+04</totfact>
</mgrwt>
</event>
<event>
 7    0  0.4685107E-002  0.4490327E+03  0.7546771E-02  0.1028011E+00
         21   -1    0    0  502  501  0.00000000000E+00  0.00000000000E+00  0.65758786424E+03  0.65758786424E+03  0.00000000000E+00 0.  1.
         21   -1    0    0  501  502 -0.00000000000E+00 -0.00000000000E+00 -0.76655304975E+02  0.76655304975E+02  0.00000000000E+00 0.  1.
      99926    2    1    2    0    0 -0.17763568394E-14  0.00000000000E+00  0.58093255926E+03  0.73424316921E+03  0.44903273057E+03 0.  0.
      99925    2    3    3    0    0 -0.88667009249E+01  0.18110127791E+02  0.54018802499E+03  0.60114838987E+03  0.26300131025E+03 0.  0.
         25    1    4    4    0    0  0.11063135150E+02  0.23289130982E+01  0.18401943007E+03  0.22279693790E+03  0.12509000000E+03 0.  0.
         25    1    4    4    0    0 -0.19929836075E+02  0.15781214692E+02  0.35616859492E+03  0.37835145197E+03  0.12509000000E+03 0.  0.
         25    1    3    3    0    0  0.88667009249E+01 -0.18110127791E+02  0.40744534276E+02  0.13309477934E+03  0.12509000000E+03 0.  0.
<mgrwt>
<rscale>  2 0.44903273E+03</rscale>
<asrwt>0</asrwt>
<pdfrwt beam="1">  1       21 0.96704094E-01 0.44903273E+03</pdfrwt>
<pdfrwt beam="2">  1       21 0.11272839E-01 0.44903273E+03</pdfrwt>
<totfact> 0.53551582E+04</totfact>
</mgrwt>
</event>
<event>
 7    0  0.4685107E-002  0.4607170E+03  0.7546771E-02  0.1024573E+00
         21   -1    0    0  502  501  0.00000000000E+00  0.00000000000E+00  0.66931001826E+02  0.66931001826E+02  0.00000000000E+00 0.  1.
         21   -1    0    0  501  502 -0.00000000000E+00 -0.00000000000E+00 -0.79283195026E+03  0.79283195026E+03  0.00000000000E+00 0.  1.
      99926    2    1    2    0    0  0.00000000000E+00 -0.17763568394E-14 -0.72590094843E+03  0.85976295209E+03  0.46071699214E+03 0.  0.
      99925    2    3    3    0    0  0.58699472513E+02 -0.13459573479E+02 -0.64491276186E+03  0.69903528597E+03  0.26288984847E+03 0.  0.
         25    1    3    3    0    0 -0.58699472513E+02  0.13459573479E+02 -0.80988186576E+02  0.16072766612E+03  0.12509000000E+03 0.  0.
         25    1    4    4    0    0  0.49305394849E+02 -0.10613884958E+02 -0.42448514820E+03  0.44539737949E+03  0.12509000000E+03 0.  0.
         25    1    4    4    0    0  0.93940776641E+01 -0.28456885208E+01 -0.22042761366E+03  0.25363790648E+03  0.12509000000E+03 0.  0.
<mgrwt>
<rscale>  2 0.46071699E+03</rscale>
<asrwt>0</asrwt>
<pdfrwt beam="1">  1       21 0.98427947E-02 0.46071699E+03</pdfrwt>
<pdfrwt beam="2">  1       21 0.11659293E+00 0.46071699E+03</pdfrwt>
<totfact> 0.43042870E+04</totfact>
</mgrwt>
</event>
<event>
 7    0  0.4685107E-002  0.4601556E+03  0.7546771E-02  0.1024736E+00
         21   -1    0    0  502  501  0.00000000000E+00  0.00000000000E+00  0.25760524327E+03  0.25760524327E+03  0.00000000000E+00 0. -1.
         21   -1    0    0  501  502 -0.00000000000E+00 -0.00000000000E+00 -0.20549189716E+03  0.20549189716E+03  0.00000000000E+00 0. -1.
      99926    2    1    2    0    0  0.00000000000E+00  0.71054273576E-14  0.52113346107E+02  0.46309714044E+03  0.46015558308E+03 0.  0.
      99925    2    3    3    0    0 -0.10627522429E+03 -0.51219205218E+02  0.31757477553E+02  0.28995067132E+03  0.26295441456E+03 0.  0.
         25    1    4    4    0    0 -0.75059176020E+02 -0.34544102173E+02 -0.17495834089E+02  0.15093305539E+03  0.12509000000E+03 0.  0.
         25    1    4    4    0    0 -0.31216048273E+02 -0.16675103045E+02  0.49253311642E+02  0.13901761593E+03  0.12509000000E+03 0.  0.
         25    1    3    3    0    0  0.10627522429E+03  0.51219205218E+02  0.20355868555E+02  0.17314646911E+03  0.12509000000E+03 0.  0.
<mgrwt>
<rscale>  2 0.46015558E+03</rscale>
<asrwt>0</asrwt>
<pdfrwt beam="1">  1       21 0.37883124E-01 0.46015558E+03</pdfrwt>
<pdfrwt beam="2">  1       21 0.30219397E-01 0.46015558E+03</pdfrwt>
<totfact> 0.65231758E+04</totfact>
</mgrwt>
</event>
<event>
 7    0  0.4685107E-002  0.4551960E+03  0.7546771E-02  0.1026184E+00
         21   -1    0    0  502  501  0.00000000000E+00  0.00000000000E+00  0.16880317815E+03  0.16880317815E+03  0.00000000000E+00 0. -1.
         21   -1    0    0  501  502 -0.00000000000E+00 -0.00000000000E+00 -0.30687127716E+03  0.30687127716E+03  0.00000000000E+00 0. -1.
      99926    2    1    2    0    0  0.00000000000E+00  0.00000000000E+00 -0.13806809901E+03  0.47567445531E+03  0.45519598798E+03 0.  0.
      99925    2    3    3    0    0 -0.79223487862E+02 -0.80987936647E+02 -0.89632419847E+02  0.30009276484E+03  0.26303286850E+03 0.  0.
         25    1    4    4    0    0 -0.32555311438E+02  0.13863439461E+01 -0.34245494948E+02  0.13372371621E+03  0.12509000000E+03 0.  0.
         25    1    4    4    0    0 -0.46668176424E+02 -0.82374280594E+02 -0.55386924899E+02  0.16636904864E+03  0.12509000000E+03 0.  0.
         25    1    3    3    0    0  0.79223487862E+02  0.80987936647E+02 -0.48435679165E+02  0.17558169047E+03  0.12509000000E+03 0.  0.
<mgrwt>
<rscale>  2 0.45519599E+03</rscale>
<asrwt>0</asrwt>
<pdfrwt beam="1">  1       21 0.24823997E-01 0.45519599E+03</pdfrwt>
<pdfrwt beam="2">  1       21 0.45128129E-01 0.45519599E+03</pdfrwt>
<totfact> 0.66912208E+04</totfact>
</mgrwt>
</event>
<event>
 7    0  0.4685107E-002  0.4554616E+03  0.7546771E-02  0.1026106E+00
         21   -1    0    0  502  501  0.00000000000E+00  0.00000000000E+00  0.14850824918E+03  0.14850824918E+03  0.00000000000E+00 0.  1.
         21   -1    0    0  501  502 -0.00000000000E+00 -0.00000000000E+00 -0.34921503789E+03  0.34921503789E+03  0.00000000000E+00 0.  1.
      99926    2    1    2    0    0 -0.14210854715E-13  0.26645352591E-14 -0.20070678872E+03  0.49772328707E+03  0.45546158505E+03 0.  0.
      99925    2    3    3    0    0 -0.87735298856E+02 -0.12060143138E+01 -0.47287418458E+02  0.28119627165E+03  0.26293783697E+03 0.  0.
         25    1    4    4    0    0 -0.34556666653E+02 -0.38451995025E+02 -0.34514077602E+02  0.13968338765E+03  0.12509000000E+03 0.  0.
         25    1    3    3    0    0  0.87735298856E+02  0.12060143138E+01 -0.15341937026E+03  0.21652701542E+03  0.12509000000E+03 0.  0.
         25    1    4    4    0    0 -0.53178632203E+02  0.37245980711E+02 -0.12773340856E+02  0.14151288400E+03  0.12509000000E+03 0.  0.
<mgrwt>
<rscale>  2 0.45546159E+03</rscale>
<asrwt>0</asrwt>
<pdfrwt beam="1">  1       21 0.21839448E-01 0.45546159E+03</pdfrwt>
<pdfrwt beam="2">  1       21 0.51355152E-01 0.45546159E+03</pdfrwt>
<totfact> 0.65191698E+04</totfact>
</mgrwt>
</event>
<event>
 7    0  0.4685107E-002  0.4557609E+03  0.7546771E-02  0.1026018E+00
         21   -1    0    0  502  501  0.00000000000E+00  0.00000000000E+00  0.72798008835E+02  0.72798008835E+02  0.00000000000E+00 0.  1.
         21   -1    0    0  501  502 -0.00000000000E+00 -0.00000000000E+00 -0.71333676507E+03  0.71333676507E+03  0.00000000000E+00 0.  1.
      99926    2    1    2    0    0  0.00000000000E+00  0.00000000000E+00 -0.64053875623E+03  0.78613477390E+03  0.45576088523E+03 0.  0.
      99925    2    3    3    0    0  0.93414162583E+02  0.36395602349E+02 -0.49582840085E+03  0.57017310902E+03  0.26306030777E+03 0.  0.
         25    1    4    4    0    0  0.89621643563E+02  0.15963323569E+02 -0.27412859874E+03  0.31477112866E+03  0.12509000000E+03 0.  0.
         25    1    4    4    0    0  0.37925190199E+01  0.20432278780E+02 -0.22169980211E+03  0.25540198036E+03  0.12509000000E+03 0.  0.
         25    1    3    3    0    0 -0.93414162583E+02 -0.36395602349E+02 -0.14471035538E+03  0.21596166488E+03  0.12509000000E+03 0.  0.
<mgrwt>
<rscale>  2 0.45576089E+03</rscale>
<asrwt>0</asrwt>
<pdfrwt beam="1">  1       21 0.10705590E-01 0.45576089E+03</pdfrwt>
<pdfrwt beam="2">  1       21 0.10490246E+00 0.45576089E+03</pdfrwt>
<totfact> 0.48154576E+04</totfact>
</mgrwt>
</event>
<event>
 7    0  0.4685107E-002  0.4575285E+03  0.7546771E-02  0.1025500E+00
         21   -1    0    0  502  501  0.00000000000E+00  0.00000000000E+00  0.10829921444E+03  0.10829921444E+03  0.00000000000E+00 0.  1.
         21   -1    0    0  501  502 -0.00000000000E+00 -0.00000000000E+00 -0.48322676749E+03  0.48322676749E+03  0.00000000000E+00 0.  1.
      99926    2    1    2    0    0  0.00000000000E+00  0.71054273576E-14 -0.37492755305E+03  0.59152598193E+03  0.45752848792E+03 0.  0.
      99925    2    3    3    0    0 -0.32599174700E+02 -0.63500390340E+02 -0.11795237715E+03  0.29694364217E+03  0.26299763799E+03 0.  0.
         25    1    4    4    0    0 -0.46209882147E+02 -0.94510780955E+01 -0.75682101375E+02  0.15362279992E+03  0.12509000000E+03 0.  0.
         25    1    4    4    0    0  0.13610707446E+02 -0.54049312245E+02 -0.42270275774E+02  0.14332084226E+03  0.12509000000E+03 0.  0.
         25    1    3    3    0    0  0.32599174700E+02  0.63500390340E+02 -0.25697517590E+03  0.29458233975E+03  0.12509000000E+03 0.  0.
<mgrwt>
<rscale>  2 0.45752849E+03</rscale>
<asrwt>0</asrwt>
<pdfrwt beam="1">  1       21 0.15926355E-01 0.45752849E+03</pdfrwt>
<pdfrwt beam="2">  1       21 0.71062761E-01 0.45752849E+03</pdfrwt>
<totfact> 0.58034474E+04</totfact>
</mgrwt>
</event>
<event>
 7    0  0.4685107E-002  0.4480027E+03  0.7546771E-02  0.1028319E+00
         21   -1    0    0  502  501  0.00000000000E+00  0.00000000000E+00  0.10846524698E+04  0.10846524698E+04  0.00000000000E+00 0. -1.
         21   -1    0    0  501  502 -0.00000000000E+00 -0.00000000000E+00 -0.46260537476E+02  0.46260537476E+02  0.00000000000E+00 0. -1.
      99926    2    1    2    0    0  0.14210854715E-13  0.00000000000E+00  0.10383919324E+04  0.11309130073E+04  0.44800270637E+03 0.  0.
      99925    2    3    3    0    0 -0.82592977932E+02 -0.18343789383E+02  0.82101919488E+03  0.86623110444E+03  0.26291769304E+03 0.  0.
         25    1    4    4    0    0 -0.57996282267E+01  0.10899927086E+02  0.34154013379E+03  0.36393627902E+03  0.12509000000E+03 0.  0.
         25    1    4    4    0    0 -0.76793349705E+02 -0.29243716469E+02  0.47947906110E+03  0.50229482542E+03  0.12509000000E+03 0.  0.
         25    1    3    3    0    0  0.82592977932E+02  0.18343789383E+02  0.21737273748E+03  0.26468190288E+03  0.12509000000E+03 0.  0.
<mgrwt>
<rscale>  2 0.44800271E+03</rscale>
<asrwt>0</asrwt>
<pdfrwt beam="1">  1       21 0.15950770E+00 0.44800271E+03</pdfrwt>
<pdfrwt beam="2">  1       21 0.68030209E-02 0.44800271E+03</pdfrwt>
<totfact> 0.36369748E+04</totfact>
</mgrwt>
</event>
<event>
 7    0  0.4685107E-002  0.4563000E+03  0.7546771E-02  0.1025860E+00
         21   -1    0    0  502  501  0.00000000000E+00  0.00000000000E+00  0.37391786262E+02  0.37391786262E+02  0.00000000000E+00 0. -1.
         21   -1    0    0  501  502 -0.00000000000E+00 -0.00000000000E+00 -0.13920816092E+04  0.13920816092E+04  0.00000000000E+00 0. -1.
      99926    2    1    2    0    0 -0.35527136788E-14  0.88817841970E-15 -0.13546898230E+04  0.14294733955E+04  0.45629998024E+03 0.  0.
      99925    2    3    3    0    0 -0.19805744353E+02  0.68419097057E+01 -0.12035545172E+04  0.12321704103E+04  0.26317553981E+03 0.  0.
         25    1    4    4    0    0 -0.50253447999E+02  0.29523849112E+01 -0.58300709980E+03  0.59839695197E+03  0.12509000000E+03 0.  0.
         25    1    3    3    0    0  0.19805744353E+02 -0.68419097057E+01 -0.15113530573E+03  0.19730298522E+03  0.12509000000E+03 0.  0.
         25    1    4    4    0    0  0.30447703646E+02  0.38895247944E+01 -0.62054741742E+03  0.63377345829E+03  0.12509000000E+03 0.  0.
<mgrwt>
<rscale>  2 0.45629998E+03</rscale>
<asrwt>0</asrwt>
<pdfrwt beam="1">  1       21 0.54987927E-02 0.45629998E+03</pdfrwt>
<pdfrwt beam="2">  1       21 0.20471786E+00 0.45629998E+03</pdfrwt>
<totfact> 0.25300561E+04</totfact>
</mgrwt>
</event>
<event>
 7    0  0.4685107E-002  0.4423184E+03  0.7546771E-02  0.1030038E+00
         21   -1    0    0  502  501  0.00000000000E+00  0.00000000000E+00  0.11709160883E+03  0.11709160883E+03  0.00000000000E+00 0.  1.
         21   -1    0    0  501  502 -0.00000000000E+00 -0.00000000000E+00 -0.41771907939E+03  0.41771907939E+03  0.00000000000E+00 0.  1.
      99926    2    1    2    0    0 -0.35527136788E-14  0.71054273576E-14 -0.30062747057E+03  0.53481068822E+03  0.44231843301E+03 0.  0.
      99925    2    3    3    0    0  0.26104960625E+02 -0.61019823008E+02 -0.28322058390E+03  0.39213835183E+03  0.26297091105E+03 0.  0.
         25    1    4    4    0    0  0.23843791867E+02 -0.50444518559E+02 -0.19657099522E+03  0.23958472432E+03  0.12509000000E+03 0.  0.
         25    1    3    3    0    0 -0.26104960625E+02  0.61019823008E+02 -0.17406886666E+02  0.14267233640E+03  0.12509000000E+03 0.  0.
         25    1    4    4    0    0  0.22611687583E+01 -0.10575304449E+02 -0.86649588678E+02  0.15255362751E+03  0.12509000000E+03 0.  0.
<mgrwt>
<rscale>  2 0.44231843E+03</rscale>
<asrwt>0</asrwt>
<pdfrwt beam="1">  1       21 0.17219354E-01 0.44231843E+03</pdfrwt>
<pdfrwt beam="2">  1       21 0.61429276E-01 0.44231843E+03</pdfrwt>
<totfact> 0.69609724E+04</totfact>
</mgrwt>
</event>
<event>
 7    0  0.4685107E-002  0.4573538E+03  0.7546771E-02  0.1025551E+00
         21   -1    0    0  502  501  0.00000000000E+00  0.00000000000E+00  0.14786781919E+03  0.14786781919E+03  0.00000000000E+00 0.  1.
         21   -1    0    0  501  502 -0.00000000000E+00 -0.00000000000E+00 -0.35364777750E+03  0.35364777750E+03  0.00000000000E+00 0.  1.
      99926    2    1    2    0    0 -0.71054273576E-14  0.00000000000E+00 -0.20577995831E+03  0.50151559669E+03  0.45735380449E+03 0.  0.
      99925    2    3    3    0    0 -0.32183536052E+02 -0.87693495311E+02 -0.55069432234E+02  0.28451997489E+03  0.26304570826E+03 0.  0.
         25    1    4    4    0    0  0.32670063535E+01 -0.23877720632E+02  0.55522898246E+01  0.12751139124E+03  0.12509000000E+03 0.  0.
         25    1    3    3    0    0  0.32183536052E+02  0.87693495311E+02 -0.15071052608E+03  0.21699562180E+03  0.12509000000E+03 0.  0.
         25    1    4    4    0    0 -0.35450542405E+02 -0.63815774680E+02 -0.60621722059E+02  0.15700858365E+03  0.12509000000E+03 0.  0.
<mgrwt>
<rscale>  2 0.45735380E+03</rscale>
<asrwt>0</asrwt>
<pdfrwt beam="1">  1       21 0.21745268E-01 0.45735380E+03</pdfrwt>
<pdfrwt beam="2">  1       21 0.52007025E-01 0.45735380E+03</pdfrwt>
<totfact> 0.63960857E+04</totfact>
</mgrwt>
</event>
<event>
 7    0  0.4685107E-002  0.4582562E+03  0.7546771E-02  0.1025288E+00
         21   -1    0    0  502  501  0.00000000000E+00  0.00000000000E+00  0.12120930131E+03  0.12120930131E+03  0.00000000000E+00 0. -1.
         21   -1    0    0  501  502 -0.00000000000E+00 -0.00000000000E+00 -0.43313256333E+03  0.43313256333E+03  0.00000000000E+00 0. -1.
      99926    2    1    2    0    0  0.00000000000E+00  0.00000000000E+00 -0.31192326202E+03  0.55434186464E+03  0.45825624001E+03 0.  0.
      99925    2    3    3    0    0 -0.54402802594E+02  0.30111735041E+02 -0.31409056041E+03  0.41463292864E+03  0.26344108232E+03 0.  0.
         25    1    3    3    0    0  0.54402802594E+02 -0.30111735041E+02  0.21672983916E+01  0.13970893600E+03  0.12509000000E+03 0.  0.
         25    1    4    4    0    0 -0.60531920432E+02 -0.65479627124E+01 -0.14367377715E+03  0.19999162869E+03  0.12509000000E+03 0.  0.
         25    1    4    4    0    0  0.61291178374E+01  0.36659697754E+02 -0.17041678326E+03  0.21464129995E+03  0.12509000000E+03 0.  0.
<mgrwt>
<rscale>  2 0.45825624E+03</rscale>
<asrwt>0</asrwt>
<pdfrwt beam="1">  1       21 0.17824897E-01 0.45825624E+03</pdfrwt>
<pdfrwt beam="2">  1       21 0.63695965E-01 0.45825624E+03</pdfrwt>
<totfact> 0.60019376E+04</totfact>
</mgrwt>
</event>
<event>
 7    0  0.4685107E-002  0.4496143E+03  0.7546771E-02  0.1027837E+00
         21   -1    0    0  502  501  0.00000000000E+00  0.00000000000E+00  0.78732678636E+02  0.78732678636E+02  0.00000000000E+00 0. -1.
         21   -1    0    0  501  502 -0.00000000000E+00 -0.00000000000E+00 -0.64189678878E+03  0.64189678878E+03  0.00000000000E+00 0. -1.
      99926    2    1    2    0    0  0.71054273576E-14  0.00000000000E+00 -0.56316411015E+03  0.72062946742E+03  0.44961429510E+03 0.  0.
      99925    2    3    3    0    0  0.32078548576E+02  0.64178332188E+02 -0.22662959325E+03  0.35449987183E+03  0.26298535129E+03 0.  0.
         25    1    4    4    0    0  0.21632377981E+02  0.64920187205E+02 -0.15224883205E+03  0.20859004158E+03  0.12509000000E+03 0.  0.
         25    1    3    3    0    0 -0.32078548576E+02 -0.64178332188E+02 -0.33653451689E+03  0.36612959558E+03  0.12509000000E+03 0.  0.
         25    1    4    4    0    0  0.10446170595E+02 -0.74185501682E+00 -0.74380761198E+02  0.14590983026E+03  0.12509000000E+03 0.  0.
<mgrwt>
<rscale>  2 0.44961430E+03</rscale>
<asrwt>0</asrwt>
<pdfrwt beam="1">  1       21 0.11578335E-01 0.44961430E+03</pdfrwt>
<pdfrwt beam="2">  1       21 0.94396586E-01 0.44961430E+03</pdfrwt>
<totfact> 0.54050712E+04</totfact>
</mgrwt>
</event>
<event>
 7    0  0.4685107E-002  0.4434018E+03  0.7546771E-02  0.1029708E+00
         21   -1    0    0  502  501  0.00000000000E+00  0.00000000000E+00  0.29677500908E+03  0.29677500908E+03  0.00000000000E+00 0. -1.
         21   -1    0    0  501  502 -0.00000000000E+00 -0.00000000000E+00 -0.16561800016E+03  0.16561800016E+03  0.00000000000E+00 0. -1.
      99926    2    1    2    0    0  0.00000000000E+00  0.00000000000E+00  0.13115700891E+03  0.46239300924E+03  0.44340177492E+03 0.  0.
      99925    2    3    3    0    0  0.43407752537E+02 -0.87858085338E+02  0.54101862179E+02  0.28579097109E+03  0.26295663431E+03 0.  0.
         25    1    4    4    0    0  0.31855765290E+02 -0.85601578861E+02  0.26191075477E+02  0.15708564740E+03  0.12509000000E+03 0.  0.
         25    1    4    4    0    0  0.11551987246E+02 -0.22565064774E+01  0.27910786702E+02  0.12870532369E+03  0.12509000000E+03 0.  0.
         25    1    3    3    0    0 -0.43407752537E+02  0.87858085338E+02  0.77055146734E+02  0.17660203815E+03  0.12509000000E+03 0.  0.
<mgrwt>
<rscale>  2 0.44340177E+03</rscale>
<asrwt>0</asrwt>
<pdfrwt beam="1">  1       21 0.43643384E-01 0.44340177E+03</pdfrwt>
<pdfrwt beam="2">  1       21 0.24355588E-01 0.44340177E+03</pdfrwt>
<totfact> 0.74640837E+04</totfact>
</mgrwt>
</event>
<event>
 7    0  0.4685107E-002  0.4532628E+03  0.7546771E-02  0.1026753E+00
         21   -1    0    0  502  501  0.00000000000E+00  0.00000000000E+00  0.74921515592E+02  0.74921515592E+02  0.00000000000E+00 0. -1.
         21   -1    0    0  501  502 -0.00000000000E+00 -0.00000000000E+00 -0.68554120309E+03  0.68554120309E+03  0.00000000000E+00 0. -1.
      99926    2    1    2    0    0  0.26645352591E-14  0.00000000000E+00 -0.61061968749E+03  0.76046271868E+03  0.45326277560E+03 0.  0.
      99925    2    3    3    0    0 -0.35435709427E+01  0.52370463773E+02 -0.21942651064E+03  0.34641582268E+03  0.26287013193E+03 0.  0.
         25    1    4    4    0    0 -0.35310267424E+02  0.36286129323E+01 -0.11050344634E+03  0.17064144154E+03  0.12509000000E+03 0.  0.
         25    1    3    3    0    0  0.35435709427E+01 -0.52370463773E+02 -0.39119317685E+03  0.41404689600E+03  0.12509000000E+03 0.  0.
         25    1    4    4    0    0  0.31766696481E+02  0.48741850841E+02 -0.10892306430E+03  0.17577438114E+03  0.12509000000E+03 0.  0.
<mgrwt>
<rscale>  2 0.45326278E+03</rscale>
<asrwt>0</asrwt>
<pdfrwt beam="1">  1       21 0.11017870E-01 0.45326278E+03</pdfrwt>
<pdfrwt beam="2">  1       21 0.10081488E+00 0.45326278E+03</pdfrwt>
<totfact> 0.50420404E+04</totfact>
</mgrwt>
</event>
<event>
 7    0  0.4685107E-002  0.4513232E+03  0.7546771E-02  0.1027328E+00
         21   -1    0    0  502  501  0.00000000000E+00  0.00000000000E+00  0.11445373072E+04  0.11445373072E+04  0.00000000000E+00 0.  1.
         21   -1    0    0  501  502 -0.00000000000E+00 -0.00000000000E+00 -0.44492351376E+02  0.44492351376E+02  0.00000000000E+00 0.  1.
      99926    2    1    2    0    0  0.00000000000E+00  0.00000000000E+00  0.11000449558E+04  0.11890296585E+04  0.45132319255E+03 0.  0.
      99925    2    3    3    0    0  0.85632145018E+02 -0.29568740771E+02  0.53258517692E+03  0.60092653542E+03  0.26317020273E+03 0.  0.
         25    1    4    4    0    0  0.56066085462E+02  0.22874702098E+02  0.24794409415E+03  0.28423659135E+03  0.12509000000E+03 0.  0.
         25    1    4    4    0    0  0.29566059556E+02 -0.52443442869E+02  0.28464108276E+03  0.31668994407E+03  0.12509000000E+03 0.  0.
         25    1    3    3    0    0 -0.85632145018E+02  0.29568740771E+02  0.56745977887E+03  0.58810312312E+03  0.12509000000E+03 0.  0.
<mgrwt>
<rscale>  2 0.45132319E+03</rscale>
<asrwt>0</asrwt>
<pdfrwt beam="1">  1       21 0.16831429E+00 0.45132319E+03</pdfrwt>
<pdfrwt beam="2">  1       21 0.65429936E-02 0.45132319E+03</pdfrwt>
<totfact> 0.33453647E+04</totfact>
</mgrwt>
</event>
<event>
 7    0  0.4685107E-002  0.4772519E+03  0.7546771E-02  0.1019893E+00
         21   -1    0    0  502  501  0.00000000000E+00  0.00000000000E+00  0.14655287352E+04  0.14655287352E+04  0.00000000000E+00 0.  1.
         21   -1    0    0  501  502 -0.00000000000E+00 -0.00000000000E+00 -0.38854475640E+02  0.38854475640E+02  0.00000000000E+00 0.  1.
      99926    2    1    2    0    0  0.00000000000E+00  0.14210854715E-13  0.14266742596E+04  0.15043832109E+04  0.47725192736E+03 0.  0.
      99925    2    3    3    0    0  0.48041744247E+02  0.78120285616E+02  0.57817862554E+03  0.64182704614E+03  0.26313617370E+03 0.  0.
         25    1    4    4    0    0 -0.12132641143E+02  0.31085532951E+02  0.22759296185E+03  0.26183883540E+03  0.12509000000E+03 0.  0.
         25    1    3    3    0    0 -0.48041744247E+02 -0.78120285616E+02  0.84849563406E+03  0.86255616474E+03  0.12509000000E+03 0.  0.
         25    1    4    4    0    0  0.60174385390E+02  0.47034752665E+02  0.35058566369E+03  0.37998821074E+03  0.12509000000E+03 0.  0.
<mgrwt>
<rscale>  2 0.47725193E+03</rscale>
<asrwt>0</asrwt>
<pdfrwt beam="1">  1       21 0.21551889E+00 0.47725193E+03</pdfrwt>
<pdfrwt beam="2">  1       21 0.57138944E-02 0.47725193E+03</pdfrwt>
<totfact> 0.19987729E+04</totfact>
</mgrwt>
</event>
<event>
 7    0  0.4685107E-002  0.4621201E+03  0.7546771E-02  0.1024168E+00
         21   -1    0    0  502  501  0.00000000000E+00  0.00000000000E+00  0.43529312142E+03  0.43529312142E+03  0.00000000000E+00 0.  1.
         21   -1    0    0  501  502 -0.00000000000E+00 -0.00000000000E+00 -0.12265012831E+03  0.12265012831E+03  0.00000000000E+00 0.  1.
      99926    2    1    2    0    0  0.00000000000E+00  0.00000000000E+00  0.31264299310E+03  0.55794324973E+03  0.46212014540E+03 0.  0.
      99925    2    3    3    0    0  0.73291326612E+02  0.93280913091E+02  0.17595907111E+03  0.33793654543E+03  0.26299537397E+03 0.  0.
         25    1    3    3    0    0 -0.73291326612E+02 -0.93280913091E+02  0.13668392199E+03  0.22000670430E+03  0.12509000000E+03 0.  0.
         25    1    4    4    0    0  0.72514406255E+02  0.52708104825E+02  0.11939667777E+03  0.19478079523E+03  0.12509000000E+03 0.  0.
         25    1    4    4    0    0  0.77692035636E+00  0.40572808267E+02  0.56562393343E+02  0.14315575020E+03  0.12509000000E+03 0.  0.
<mgrwt>
<rscale>  2 0.46212015E+03</rscale>
<asrwt>0</asrwt>
<pdfrwt beam="1">  1       21 0.64013694E-01 0.46212015E+03</pdfrwt>
<pdfrwt beam="2">  1       21 0.18036784E-01 0.46212015E+03</pdfrwt>
<totfact> 0.58007751E+04</totfact>
</mgrwt>
</event>
<event>
 7    0  0.4685107E-002  0.4557497E+03  0.7546771E-02  0.1026021E+00
         21   -1    0    0  502  501  0.00000000000E+00  0.00000000000E+00  0.24775776272E+03  0.24775776272E+03  0.00000000000E+00 0.  1.
         21   -1    0    0  501  502 -0.00000000000E+00 -0.00000000000E+00 -0.20958754671E+03  0.20958754671E+03  0.00000000000E+00 0.  1.
      99926    2    1    2    0    0  0.00000000000E+00 -0.71054273576E-14  0.38170216008E+02  0.45734530943E+03  0.45574967545E+03 0.  0.
      99925    2    3    3    0    0 -0.94406775790E+02  0.56388656085E+02  0.53687377280E+02  0.29007125214E+03  0.26299558359E+03 0.  0.
         25    1    4    4    0    0 -0.78374344848E+02  0.17921792947E+01  0.26568474026E+02  0.14999713914E+03  0.12509000000E+03 0.  0.
         25    1    3    3    0    0  0.94406775790E+02 -0.56388656085E+02 -0.15517161271E+02  0.16727405730E+03  0.12509000000E+03 0.  0.
         25    1    4    4    0    0 -0.16032430943E+02  0.54596476791E+02  0.27118903254E+02  0.14007411300E+03  0.12509000000E+03 0.  0.
<mgrwt>
<rscale>  2 0.45574968E+03</rscale>
<asrwt>0</asrwt>
<pdfrwt beam="1">  1       21 0.36434965E-01 0.45574968E+03</pdfrwt>
<pdfrwt beam="2">  1       21 0.30821698E-01 0.45574968E+03</pdfrwt>
<totfact> 0.67966897E+04</totfact>
</mgrwt>
</event>
<event>
 7    0  0.4685107E-002  0.4599525E+03  0.7546771E-02  0.1024795E+00
         21   -1    0    0  502  501  0.00000000000E+00  0.00000000000E+00  0.72333747324E+03  0.72333747324E+03  0.00000000000E+00 0. -1.
         21   -1    0    0  501  502 -0.00000000000E+00 -0.00000000000E+00 -0.73118116497E+02  0.73118116497E+02  0.00000000000E+00 0. -1.
      99926    2    1    2    0    0 -0.14210854715E-13  0.00000000000E+00  0.65021935674E+03  0.79645558974E+03  0.45995249161E+03 0.  0.
      99925    2    3    3    0    0  0.11005095146E+03 -0.41695469991E+02  0.39946321973E+03  0.49252159611E+03  0.26297706093E+03 0.  0.
         25    1    4    4    0    0  0.97170129012E+02 -0.33747425438E+02  0.23264005058E+03  0.28346044509E+03  0.12509000000E+03 0.  0.
         25    1    4    4    0    0  0.12880822451E+02 -0.79480445534E+01  0.16682316915E+03  0.20906115102E+03  0.12509000000E+03 0.  0.
         25    1    3    3    0    0 -0.11005095146E+03  0.41695469991E+02  0.25075613701E+03  0.30393399363E+03  0.12509000000E+03 0.  0.
<mgrwt>
<rscale>  2 0.45995249E+03</rscale>
<asrwt>0</asrwt>
<pdfrwt beam="1">  1       21 0.10637315E+00 0.45995249E+03</pdfrwt>
<pdfrwt beam="2">  1       21 0.10752665E-01 0.45995249E+03</pdfrwt>
<totfact> 0.46117964E+04</totfact>
</mgrwt>
</event>
<event>
 7    0  0.4685107E-002  0.4537634E+03  0.7546771E-02  0.1026606E+00
         21   -1    0    0  502  501  0.00000000000E+00  0.00000000000E+00  0.20975457205E+02  0.20975457205E+02  0.00000000000E+00 0. -1.
         21   -1    0    0  501  502 -0.00000000000E+00 -0.00000000000E+00 -0.24540734991E+04  0.24540734991E+04  0.00000000000E+00 0. -1.
      99926    2    1    2    0    0  0.00000000000E+00  0.00000000000E+00 -0.24330980418E+04  0.24750489563E+04  0.45376343465E+03 0.  0.
      99925    2    3    3    0    0 -0.63444431925E+02 -0.75840969337E+02 -0.18192880197E+04  0.18408665692E+04  0.26306611084E+03 0.  0.
         25    1    4    4    0    0  0.28688279189E+01 -0.48907200492E+02 -0.75406205510E+03  0.76593552958E+03  0.12509000000E+03 0.  0.
         25    1    4    4    0    0 -0.66313259844E+02 -0.26933768845E+02 -0.10652259646E+04  0.10749310397E+04  0.12509000000E+03 0.  0.
         25    1    3    3    0    0  0.63444431925E+02  0.75840969337E+02 -0.61381002218E+03  0.63418238701E+03  0.12509000000E+03 0.  0.
<mgrwt>
<rscale>  2 0.45376343E+03</rscale>
<asrwt>0</asrwt>
<pdfrwt beam="1">  1       21 0.30846283E-02 0.45376343E+03</pdfrwt>
<pdfrwt beam="2">  1       21 0.36089289E+00 0.45376343E+03</pdfrwt>
<totfact> 0.74619739E+03</totfact>
</mgrwt>
</event>
<event>
 7    0  0.4685107E-002  0.4680528E+03  0.7546771E-02  0.1022471E+00
         21   -1    0    0  502  501  0.00000000000E+00  0.00000000000E+00  0.25032577721E+03  0.25032577721E+03  0.00000000000E+00 0.  1.
         21   -1    0    0  501  502 -0.00000000000E+00 -0.00000000000E+00 -0.21878836407E+03  0.21878836407E+03  0.00000000000E+00 0.  1.
      99926    2    1    2    0    0 -0.35527136788E-14  0.00000000000E+00  0.31537413133E+02  0.46911414128E+03  0.46805284864E+03 0.  0.
      99925    2    3    3    0    0  0.16062089898E+02  0.76975927817E+02  0.11786601328E+03  0.29799015261E+03  0.26214967055E+03 0.  0.
         25    1    4    4    0    0  0.37712490579E+02  0.15884848910E+02  0.43065312080E+02  0.13847992481E+03  0.12509000000E+03 0.  0.
         25    1    3    3    0    0 -0.16062089898E+02 -0.76975927817E+02 -0.86328600149E+02  0.17112398867E+03  0.12509000000E+03 0.  0.
         25    1    4    4    0    0 -0.21650400681E+02  0.61091078907E+02  0.74800701201E+02  0.15951022780E+03  0.12509000000E+03 0.  0.
<mgrwt>
<rscale>  2 0.46805285E+03</rscale>
<asrwt>0</asrwt>
<pdfrwt beam="1">  1       21 0.36812614E-01 0.46805285E+03</pdfrwt>
<pdfrwt beam="2">  1       21 0.32174759E-01 0.46805285E+03</pdfrwt>
<totfact> 0.60927095E+04</totfact>
</mgrwt>
</event>
<event>
 7    0  0.4685107E-002  0.4628141E+03  0.7546771E-02  0.1023968E+00
         21   -1    0    0  502  501  0.00000000000E+00  0.00000000000E+00  0.22337312654E+03  0.22337312654E+03  0.00000000000E+00 0.  1.
         21   -1    0    0  501  502 -0.00000000000E+00 -0.00000000000E+00 -0.23972988457E+03  0.23972988457E+03  0.00000000000E+00 0.  1.
      99926    2    1    2    0    0  0.00000000000E+00  0.71054273576E-14 -0.16356758024E+02  0.46310301111E+03  0.46281406133E+03 0.  0.
      99925    2    3    3    0    0 -0.10035114715E+03 -0.59543155017E+02 -0.40053112294E+02  0.29040453008E+03  0.26289693654E+03 0.  0.
         25    1    4    4    0    0 -0.84552258357E+02 -0.34931796515E+02  0.27498373768E+01  0.15499801452E+03  0.12509000000E+03 0.  0.
         25    1    3    3    0    0  0.10035114715E+03  0.59543155017E+02  0.23696354270E+02  0.17269848103E+03  0.12509000000E+03 0.  0.
         25    1    4    4    0    0 -0.15798888793E+02 -0.24611358502E+02 -0.42802949671E+02  0.13540651556E+03  0.12509000000E+03 0.  0.
<mgrwt>
<rscale>  2 0.46281406E+03</rscale>
<asrwt>0</asrwt>
<pdfrwt beam="1">  1       21 0.32848989E-01 0.46281406E+03</pdfrwt>
<pdfrwt beam="2">  1       21 0.35254395E-01 0.46281406E+03</pdfrwt>
<totfact> 0.63879600E+04</totfact>
</mgrwt>
</event>
<event>
 6    0  0.4685107E-002  0.4516390E+03  0.7546771E-02  0.1027234E+00
         21   -1    0    0  502  501  0.00000000000E+00  0.00000000000E+00  0.12809720950E+03  0.12809720950E+03  0.00000000000E+00 0.  1.
         21   -1    0    0  501  502 -0.00000000000E+00 -0.00000000000E+00 -0.39809182508E+03  0.39809182508E+03  0.00000000000E+00 0.  1.
      99926    2    1    2    0    0  0.35527136788E-14  0.14210854715E-13 -0.26999461558E+03  0.52618903458E+03  0.45163902363E+03 0.  0.
         25    1    3    3    0    0  0.20101292735E+02  0.10264314842E+03 -0.15460226941E+03  0.22469768066E+03  0.12509000000E+03 0.  0.
         25    1    3    3    0    0 -0.20219954633E+01 -0.53629401184E+02 -0.91052495936E+02  0.16376283538E+03  0.12509000000E+03 0.  0.
         25    1    3    3    0    0 -0.18079297272E+02 -0.49013747237E+02 -0.24339850236E+02  0.13772851853E+03  0.12509000000E+03 0.  0.
<mgrwt>
<rscale>  2 0.45163902E+03</rscale>
<asrwt>0</asrwt>
<pdfrwt beam="1">  1       21 0.18837825E-01 0.45163902E+03</pdfrwt>
<pdfrwt beam="2">  1       21 0.58542915E-01 0.45163902E+03</pdfrwt>
<totfact> 0.65184577E+04</totfact>
</mgrwt>
</event>
<event>
 7    0  0.4685107E-002  0.4575803E+03  0.7546771E-02  0.1025485E+00
         21   -1    0    0  502  501  0.00000000000E+00  0.00000000000E+00  0.68027398129E+03  0.68027398129E+03  0.00000000000E+00 0. -1.
         21   -1    0    0  501  502 -0.00000000000E+00 -0.00000000000E+00 -0.76946847644E+02  0.76946847644E+02  0.00000000000E+00 0. -1.
      99926    2    1    2    0    0 -0.71054273576E-14  0.00000000000E+00  0.60332713365E+03  0.75722082893E+03  0.45758032473E+03 0.  0.
      99925    2    3    3    0    0  0.46078926888E+02 -0.91925175146E+02  0.29104530376E+03  0.40545250361E+03  0.26288944161E+03 0.  0.
         25    1    3    3    0    0 -0.46078926888E+02  0.91925175146E+02  0.31228182988E+03  0.35176832533E+03  0.12509000000E+03 0.  0.
         25    1    4    4    0    0  0.34188425040E+01 -0.81293375361E+02  0.16574342463E+03  0.22302173049E+03  0.12509000000E+03 0.  0.
         25    1    4    4    0    0  0.42660084384E+02 -0.10631799784E+02  0.12530187913E+03  0.18243077312E+03  0.12509000000E+03 0.  0.
<mgrwt>
<rscale>  2 0.45758032E+03</rscale>
<asrwt>0</asrwt>
<pdfrwt beam="1">  1       21 0.10004029E+00 0.45758032E+03</pdfrwt>
<pdfrwt beam="2">  1       21 0.11315713E-01 0.45758032E+03</pdfrwt>
<totfact> 0.48904576E+04</totfact>
</mgrwt>
</event>
<event>
 7    0  0.4685107E-002  0.4544804E+03  0.7546771E-02  0.1026394E+00
         21   -1    0    0  502  501  0.00000000000E+00  0.00000000000E+00  0.74797491872E+03  0.74797491872E+03  0.00000000000E+00 0.  1.
         21   -1    0    0  501  502 -0.00000000000E+00 -0.00000000000E+00 -0.69037215873E+02  0.69037215873E+02  0.00000000000E+00 0.  1.
      99926    2    1    2    0    0  0.00000000000E+00  0.00000000000E+00  0.67893770284E+03  0.81701213459E+03  0.45448038871E+03 0.  0.
      99925    2    3    3    0    0 -0.98252840403E+02  0.52419907500E+02  0.46683820264E+03  0.54676192934E+03  0.26193364157E+03 0.  0.
         25    1    4    4    0    0 -0.28006450538E+02 -0.46667390111E+01  0.18034795946E+03  0.22131207447E+03  0.12509000000E+03 0.  0.
         25    1    3    3    0    0  0.98252840403E+02 -0.52419907500E+02  0.21209950021E+03  0.27025020525E+03  0.12509000000E+03 0.  0.
         25    1    4    4    0    0 -0.70246389865E+02  0.57086646511E+02  0.28649024318E+03  0.32544985487E+03  0.12509000000E+03 0.  0.
<mgrwt>
<rscale>  2 0.45448039E+03</rscale>
<asrwt>0</asrwt>
<pdfrwt beam="1">  1       21 0.10999631E+00 0.45448039E+03</pdfrwt>
<pdfrwt beam="2">  1       21 0.10152532E-01 0.45448039E+03</pdfrwt>
<totfact> 0.47144873E+04</totfact>
</mgrwt>
</event>
<event>
 7    0  0.4685107E-002  0.4520584E+03  0.7546771E-02  0.1027110E+00
         21   -1    0    0  502  501  0.00000000000E+00  0.00000000000E+00  0.39875027336E+02  0.39875027336E+02  0.00000000000E+00 0. -1.
         21   -1    0    0  501  502 -0.00000000000E+00 -0.00000000000E+00 -0.12812328474E+04  0.12812328474E+04  0.00000000000E+00 0. -1.
      99926    2    1    2    0    0  0.14210854715E-13  0.00000000000E+00 -0.12413578201E+04  0.13211078747E+04  0.45205838036E+03 0.  0.
      99925    2    3    3    0    0  0.82991170991E+02 -0.54327639065E+02 -0.64057483008E+03  0.69947555899E+03  0.26285151295E+03 0.  0.
         25    1    4    4    0    0  0.73304885133E+02 -0.34224392837E+02 -0.40971846732E+03  0.43596060121E+03  0.12509000000E+03 0.  0.
         25    1    3    3    0    0 -0.82991170991E+02  0.54327639065E+02 -0.60078298999E+03  0.62163231575E+03  0.12509000000E+03 0.  0.
         25    1    4    4    0    0  0.96862858584E+01 -0.20103246229E+02 -0.23085636276E+03  0.26351495777E+03  0.12509000000E+03 0.  0.
<mgrwt>
<rscale>  2 0.45205838E+03</rscale>
<asrwt>0</asrwt>
<pdfrwt beam="1">  1       21 0.58639742E-02 0.45205838E+03</pdfrwt>
<pdfrwt beam="2">  1       21 0.18841661E+00 0.45205838E+03</pdfrwt>
<totfact> 0.29169334E+04</totfact>
</mgrwt>
</event>
<event>
 7    0  0.4685107E-002  0.4192474E+03  0.7546771E-02  0.1037312E+00
         21   -1    0    0  502  501  0.00000000000E+00  0.00000000000E+00  0.22206992041E+03  0.22206992041E+03  0.00000000000E+00 0. -1.
         21   -1    0    0  501  502 -0.00000000000E+00 -0.00000000000E+00 -0.19787507035E+03  0.19787507035E+03  0.00000000000E+00 0. -1.
      99926    2    1    2    0    0  0.35527136788E-14  0.71054273576E-14  0.24194850061E+02  0.41994499075E+03  0.41924742634E+03 0.  0.
      99925    2    3    3    0    0  0.27458239802E+02  0.54525764812E+02  0.59287742046E+02  0.27639697395E+03  0.26297003040E+03 0.  0.
         25    1    4    4    0    0  0.51801970081E+01  0.19653730964E+02 -0.10743186856E+02  0.12718501384E+03  0.12509000000E+03 0.  0.
         25    1    3    3    0    0 -0.27458239802E+02 -0.54525764812E+02 -0.35092891985E+02  0.14354801681E+03  0.12509000000E+03 0.  0.
         25    1    4    4    0    0  0.22278042794E+02  0.34872033848E+02  0.70030928903E+02  0.14921196011E+03  0.12509000000E+03 0.  0.
<mgrwt>
<rscale>  2 0.41924743E+03</rscale>
<asrwt>0</asrwt>
<pdfrwt beam="1">  1       21 0.32657341E-01 0.41924743E+03</pdfrwt>
<pdfrwt beam="2">  1       21 0.29099275E-01 0.41924743E+03</pdfrwt>
<totfact> 0.95722119E+04</totfact>
</mgrwt>
</event>
<event>
 7    0  0.4685107E-002  0.4570183E+03  0.7546771E-02  0.1025650E+00
         21   -1    0    0  502  501  0.00000000000E+00  0.00000000000E+00  0.15658914932E+03  0.15658914932E+03  0.00000000000E+00 0.  1.
         21   -1    0    0  501  502 -0.00000000000E+00 -0.00000000000E+00 -0.33346134416E+03  0.33346134416E+03  0.00000000000E+00 0.  1.
      99926    2    1    2    0    0 -0.71054273576E-14  0.00000000000E+00 -0.17687219484E+03  0.49005049348E+03  0.45701828503E+03 0.  0.
      99925    2    3    3    0    0  0.56086406746E+02  0.33106028947E+02 -0.21264364970E+03  0.34455547893E+03  0.26317192504E+03 0.  0.
         25    1    4    4    0    0  0.49371530486E+02  0.37529424604E+02 -0.75374526676E+02  0.15866579060E+03  0.12509000000E+03 0.  0.
         25    1    3    3    0    0 -0.56086406746E+02 -0.33106028947E+02  0.35771454863E+02  0.14549501454E+03  0.12509000000E+03 0.  0.
         25    1    4    4    0    0  0.67148762605E+01 -0.44233956574E+01 -0.13726912303E+03  0.18588968834E+03  0.12509000000E+03 0.  0.
<mgrwt>
<rscale>  2 0.45701829E+03</rscale>
<asrwt>0</asrwt>
<pdfrwt beam="1">  1       21 0.23027816E-01 0.45701829E+03</pdfrwt>
<pdfrwt beam="2">  1       21 0.49038433E-01 0.45701829E+03</pdfrwt>
<totfact> 0.64928882E+04</totfact>
</mgrwt>
</event>
<event>
 7    0  0.4685107E-002  0.4605493E+03  0.7546771E-02  0.1024622E+00
         21   -1    0    0  502  501  0.00000000000E+00  0.00000000000E+00  0.91632997803E+02  0.91632997803E+02  0.00000000000E+00 0. -1.
         21   -1    0    0  501  502 -0.00000000000E+00 -0.00000000000E+00 -0.57868253385E+03  0.57868253385E+03  0.00000000000E+00 0. -1.
      99926    2    1    2    0    0  0.00000000000E+00 -0.66613381478E-15 -0.48704953605E+03  0.67031553166E+03  0.46054930400E+03 0.  0.
      99925    2    3    3    0    0 -0.11795456521E+03  0.13248286522E+01 -0.31814109960E+03  0.42929146102E+03  0.26298738491E+03 0.  0.
         25    1    4    4    0    0 -0.94068936635E+02 -0.89637237456E+01 -0.14078013291E+03  0.21070326790E+03  0.12509000000E+03 0.  0.
         25    1    3    3    0    0  0.11795456521E+03 -0.13248286522E+01 -0.16890843645E+03  0.24102407064E+03  0.12509000000E+03 0.  0.
         25    1    4    4    0    0 -0.23885628571E+02  0.10288552398E+02 -0.17736096669E+03  0.21858819311E+03  0.12509000000E+03 0.  0.
<mgrwt>
<rscale>  2 0.46054930E+03</rscale>
<asrwt>0</asrwt>
<pdfrwt beam="1">  1       21 0.13475441E-01 0.46054930E+03</pdfrwt>
<pdfrwt beam="2">  1       21 0.85100372E-01 0.46054930E+03</pdfrwt>
<totfact> 0.52222210E+04</totfact>
</mgrwt>
</event>
<event>
 6    0  0.4685107E-002  0.4635004E+03  0.7546771E-02  0.1023771E+00
         21   -1    0    0  502  501  0.00000000000E+00  0.00000000000E+00  0.23666450925E+04  0.23666450925E+04  0.00000000000E+00 0.  1.
         21   -1    0    0  501  502 -0.00000000000E+00 -0.00000000000E+00 -0.22693795704E+02  0.22693795704E+02  0.00000000000E+00 0.  1.
      99926    2    1    2    0    0  0.17763568394E-14  0.00000000000E+00  0.23439512968E+04  0.23893388882E+04  0.46350042172E+03 0.  0.
         25    1    3    3    0    0 -0.39334742406E+02  0.61333293146E+02  0.11829868227E+04  0.11918113632E+04  0.12509000000E+03 0.  0.
         25    1    3    3    0    0  0.28681849002E+02  0.23707508972E+02  0.70594918884E+03  0.71791117819E+03  0.12509000000E+03 0.  0.
         25    1    3    3    0    0  0.10652893404E+02 -0.85040802118E+02  0.45501528530E+03  0.47961634680E+03  0.12509000000E+03 0.  0.
<mgrwt>
<rscale>  2 0.46350042E+03</rscale>
<asrwt>0</asrwt>
<pdfrwt beam="1">  1       21 0.34803587E+00 0.46350042E+03</pdfrwt>
<pdfrwt beam="2">  1       21 0.33373245E-02 0.46350042E+03</pdfrwt>
<totfact> 0.78029152E+03</totfact>
</mgrwt>
</event>
<event>
 7    0  0.4685107E-002  0.4614726E+03  0.7546771E-02  0.1024355E+00
         21   -1    0    0  502  501  0.00000000000E+00  0.00000000000E+00  0.11883894610E+03  0.11883894610E+03  0.00000000000E+00 0.  1.
         21   -1    0    0  501  502 -0.00000000000E+00 -0.00000000000E+00 -0.44799479284E+03  0.44799479284E+03  0.00000000000E+00 0.  1.
      99926    2    1    2    0    0  0.35527136788E-14  0.00000000000E+00 -0.32915584674E+03  0.56683373895E+03  0.46147255191E+03 0.  0.
      99925    2    3    3    0    0 -0.30417737956E+02  0.18914440435E+02 -0.66179101636E+02  0.27342741419E+03  0.26286856506E+03 0.  0.
         25    1    4    4    0    0 -0.47461143522E+02  0.26231336571E+02 -0.53028115561E+02  0.14628784058E+03  0.12509000000E+03 0.  0.
         25    1    3    3    0    0  0.30417737956E+02 -0.18914440435E+02 -0.26297674511E+03  0.29340632476E+03  0.12509000000E+03 0.  0.
         25    1    4    4    0    0  0.17043405566E+02 -0.73168961364E+01 -0.13150986075E+02  0.12713957361E+03  0.12509000000E+03 0.  0.
<mgrwt>
<rscale>  2 0.46147255E+03</rscale>
<asrwt>0</asrwt>
<pdfrwt beam="1">  1       21 0.17476316E-01 0.46147255E+03</pdfrwt>
<pdfrwt beam="2">  1       21 0.65881586E-01 0.46147255E+03</pdfrwt>
<totfact> 0.57754006E+04</totfact>
</mgrwt>
</event>
<event>
 7    0  0.4685107E-002  0.4495376E+03  0.7546771E-02  0.1027860E+00
         21   -1    0    0  502  501  0.00000000000E+00  0.00000000000E+00  0.13161014042E+04  0.13161014042E+04  0.00000000000E+00 0.  1.
         21   -1    0    0  501  502 -0.00000000000E+00 -0.00000000000E+00 -0.38386862473E+02  0.38386862473E+02  0.00000000000E+00 0.  1.
      99926    2    1    2    0    0  0.00000000000E+00  0.00000000000E+00  0.12777145418E+04  0.13544882667E+04  0.44953755619E+03 0.  0.
      99925    2    3    3    0    0  0.61046127168E+02 -0.78201650638E+02  0.93609565098E+03  0.97740325979E+03  0.26305880837E+03 0.  0.
         25    1    4    4    0    0  0.19574841398E+02 -0.42142387761E+02  0.32715567252E+03  0.35332350250E+03  0.12509000000E+03 0.  0.
         25    1    3    3    0    0 -0.61046127168E+02  0.78201650638E+02  0.34161889080E+03  0.37708500693E+03  0.12509000000E+03 0.  0.
         25    1    4    4    0    0  0.41471285770E+02 -0.36059262876E+02  0.60893997846E+03  0.62407975728E+03  0.12509000000E+03 0.  0.
<mgrwt>
<rscale>  2 0.44953756E+03</rscale>
<asrwt>0</asrwt>
<pdfrwt beam="1">  1       21 0.19354429E+00 0.44953756E+03</pdfrwt>
<pdfrwt beam="2">  1       21 0.56451277E-02 0.44953756E+03</pdfrwt>
<totfact> 0.28772905E+04</totfact>
</mgrwt>
</event>
<event>
 7    0  0.4685107E-002  0.4503531E+03  0.7546771E-02  0.1027617E+00
         21   -1    0    0  502  501  0.00000000000E+00  0.00000000000E+00  0.21582624075E+02  0.21582624075E+02  0.00000000000E+00 0.  1.
         21   -1    0    0  501  502 -0.00000000000E+00 -0.00000000000E+00 -0.23493196675E+04  0.23493196675E+04  0.00000000000E+00 0.  1.
      99926    2    1    2    0    0  0.35527136788E-14  0.00000000000E+00 -0.23277370434E+04  0.23709022915E+04  0.45035312018E+03 0.  0.
      99925    2    3    3    0    0  0.29307252269E+02  0.43848037889E+02 -0.96924337955E+03  0.10056425696E+04  0.26287389295E+03 0.  0.
         25    1    4    4    0    0  0.44128067941E+02  0.32156834292E+02 -0.40460455584E+03  0.42700550709E+03  0.12509000000E+03 0.  0.
         25    1    4    4    0    0 -0.14820815672E+02  0.11691203597E+02 -0.56463882370E+03  0.57863706254E+03  0.12509000000E+03 0.  0.
         25    1    3    3    0    0 -0.29307252269E+02 -0.43848037889E+02 -0.13584936638E+04  0.13652597219E+04  0.12509000000E+03 0.  0.
<mgrwt>
<rscale>  2 0.45035312E+03</rscale>
<asrwt>0</asrwt>
<pdfrwt beam="1">  1       21 0.31739148E-02 0.45035312E+03</pdfrwt>
<pdfrwt beam="2">  1       21 0.34548824E+00 0.45035312E+03</pdfrwt>
<totfact> 0.88601156E+03</totfact>
</mgrwt>
</event>
<event>
 7    0  0.4685107E-002  0.4512264E+03  0.7546771E-02  0.1027357E+00
         21   -1    0    0  502  501  0.00000000000E+00  0.00000000000E+00  0.21156033475E+03  0.21156033475E+03  0.00000000000E+00 0. -1.
         21   -1    0    0  501  502 -0.00000000000E+00 -0.00000000000E+00 -0.24059948637E+03  0.24059948637E+03  0.00000000000E+00 0. -1.
      99926    2    1    2    0    0  0.00000000000E+00  0.14210854715E-13 -0.29039151621E+02  0.45215982111E+03  0.45122636393E+03 0.  0.
      99925    2    3    3    0    0  0.40367835631E+02 -0.10020299224E+03 -0.36393657629E+02  0.28671557472E+03  0.26308006512E+03 0.  0.
         25    1    4    4    0    0  0.23348635834E+02 -0.19654884583E+02  0.12056221688E+02  0.12932259611E+03  0.12509000000E+03 0.  0.
         25    1    3    3    0    0 -0.40367835631E+02  0.10020299224E+03  0.73545060082E+01  0.16544424640E+03  0.12509000000E+03 0.  0.
         25    1    4    4    0    0  0.17019199797E+02 -0.80548107657E+02 -0.48449879317E+02  0.15739297861E+03  0.12509000000E+03 0.  0.
<mgrwt>
<rscale>  2 0.45122636E+03</rscale>
<asrwt>0</asrwt>
<pdfrwt beam="1">  1       21 0.31111814E-01 0.45122636E+03</pdfrwt>
<pdfrwt beam="2">  1       21 0.35382277E-01 0.45122636E+03</pdfrwt>
<totfact> 0.70864137E+04</totfact>
</mgrwt>
</event>
<event>
 7    0  0.4685107E-002  0.4536687E+03  0.7546771E-02  0.1026634E+00
         21   -1    0    0  502  501  0.00000000000E+00  0.00000000000E+00  0.54983362295E+02  0.54983362295E+02  0.00000000000E+00 0.  1.
         21   -1    0    0  501  502 -0.00000000000E+00 -0.00000000000E+00 -0.93580717176E+03  0.93580717176E+03  0.00000000000E+00 0.  1.
      99926    2    1    2    0    0  0.00000000000E+00 -0.44408920985E-15 -0.88082380947E+03  0.99079053406E+03  0.45366871068E+03 0.  0.
      99925    2    3    3    0    0  0.50646138123E+01  0.11107181731E+01 -0.31064457201E+03  0.40702794966E+03  0.26295402199E+03 0.  0.
         25    1    3    3    0    0 -0.50646138123E+01 -0.11107181731E+01 -0.57017923746E+03  0.58376258439E+03  0.12509000000E+03 0.  0.
         25    1    4    4    0    0  0.27563307586E+02 -0.18818581783E+02 -0.19485339154E+03  0.23394278626E+03  0.12509000000E+03 0.  0.
         25    1    4    4    0    0 -0.22498693774E+02  0.19929299956E+02 -0.11579118046E+03  0.17308516341E+03  0.12509000000E+03 0.  0.
<mgrwt>
<rscale>  2 0.45366871E+03</rscale>
<asrwt>0</asrwt>
<pdfrwt beam="1">  1       21 0.80857885E-02 0.45366871E+03</pdfrwt>
<pdfrwt beam="2">  1       21 0.13761870E+00 0.45366871E+03</pdfrwt>
<totfact> 0.39940578E+04</totfact>
</mgrwt>
</event>
<event>
 7    0  0.4685107E-002  0.4979744E+03  0.7546771E-02  0.1014309E+00
         21   -1    0    0  502  501  0.00000000000E+00  0.00000000000E+00  0.88237331561E+02  0.88237331561E+02  0.00000000000E+00 0. -1.
         21   -1    0    0  501  502 -0.00000000000E+00 -0.00000000000E+00 -0.70258941235E+03  0.70258941235E+03  0.00000000000E+00 0. -1.
      99926    2    1    2    0    0  0.00000000000E+00  0.00000000000E+00 -0.61435208079E+03  0.79082674391E+03  0.49797435648E+03 0.  0.
      99925    2    3    3    0    0 -0.14270568885E+03 -0.89400348899E+01 -0.44486226106E+03  0.53623070123E+03  0.26305150784E+03 0.  0.
         25    1    4    4    0    0 -0.30294630481E+02 -0.25460096444E+01 -0.15989224142E+03  0.20527368017E+03  0.12509000000E+03 0.  0.
         25    1    3    3    0    0  0.14270568885E+03  0.89400348899E+01 -0.16948981973E+03  0.25459604268E+03  0.12509000000E+03 0.  0.
         25    1    4    4    0    0 -0.11241105837E+03 -0.63940252455E+01 -0.28497001964E+03  0.33095702107E+03  0.12509000000E+03 0.  0.
<mgrwt>
<rscale>  2 0.49797436E+03</rscale>
<asrwt>0</asrwt>
<pdfrwt beam="1">  1       21 0.12976078E-01 0.49797436E+03</pdfrwt>
<pdfrwt beam="2">  1       21 0.10332197E+00 0.49797436E+03</pdfrwt>
<totfact> 0.34875545E+04</totfact>
</mgrwt>
</event>
<event>
 7    0  0.4685107E-002  0.4602437E+03  0.7546771E-02  0.1024711E+00
         21   -1    0    0  502  501  0.00000000000E+00  0.00000000000E+00  0.17431092257E+03  0.17431092257E+03  0.00000000000E+00 0.  1.
         21   -1    0    0  501  502 -0.00000000000E+00 -0.00000000000E+00 -0.30380231318E+03  0.30380231318E+03  0.00000000000E+00 0.  1.
      99926    2    1    2    0    0  0.00000000000E+00  0.00000000000E+00 -0.12949139060E+03  0.47811323575E+03  0.46024368106E+03 0.  0.
      99925    2    3    3    0    0 -0.26533288481E+02 -0.21424315559E+02  0.36263040358E+02  0.26767308707E+03  0.26300352992E+03 0.  0.
         25    1    4    4    0    0 -0.49199213496E+02 -0.30218828268E+02  0.19376079871E+02  0.13912828886E+03  0.12509000000E+03 0.  0.
         25    1    4    4    0    0  0.22665925015E+02  0.87945127092E+01  0.16886960487E+02  0.12854479820E+03  0.12509000000E+03 0.  0.
         25    1    3    3    0    0  0.26533288481E+02  0.21424315559E+02 -0.16575443096E+03  0.21044014868E+03  0.12509000000E+03 0.  0.
<mgrwt>
<rscale>  2 0.46024368E+03</rscale>
<asrwt>0</asrwt>
<pdfrwt beam="1">  1       21 0.25633959E-01 0.46024368E+03</pdfrwt>
<pdfrwt beam="2">  1       21 0.44676811E-01 0.46024368E+03</pdfrwt>
<totfact> 0.64127353E+04</totfact>
</mgrwt>
</event>
<event>
 7    0  0.4685107E-002  0.4539801E+03  0.7546771E-02  0.1026542E+00
         21   -1    0    0  502  501  0.00000000000E+00  0.00000000000E+00  0.10882883367E+04  0.10882883367E+04  0.00000000000E+00 0. -1.
         21   -1    0    0  501  502 -0.00000000000E+00 -0.00000000000E+00 -0.47344506668E+02  0.47344506668E+02  0.00000000000E+00 0. -1.
      99926    2    1    2    0    0  0.26645352591E-14  0.00000000000E+00  0.10409438300E+04  0.11356328433E+04  0.45398006305E+03 0.  0.
      99925    2    3    3    0    0  0.59306684660E+01  0.10568030563E+03  0.74880641023E+03  0.80067720455E+03  0.26300084801E+03 0.  0.
         25    1    3    3    0    0 -0.59306684660E+01 -0.10568030563E+03  0.29213741976E+03  0.33495563878E+03  0.12509000000E+03 0.  0.
         25    1    4    4    0    0 -0.20975697666E+02  0.17369807396E+02  0.33430782586E+03  0.35798173226E+03  0.12509000000E+03 0.  0.
         25    1    4    4    0    0  0.26906366132E+02  0.88310498234E+02  0.41449858438E+03  0.44269547229E+03  0.12509000000E+03 0.  0.
<mgrwt>
<rscale>  2 0.45398006E+03</rscale>
<asrwt>0</asrwt>
<pdfrwt beam="1">  1       21 0.16004239E+00 0.45398006E+03</pdfrwt>
<pdfrwt beam="2">  1       21 0.69624281E-02 0.45398006E+03</pdfrwt>
<totfact> 0.34539479E+04</totfact>
</mgrwt>
</event>
<event>
 7    0  0.4685107E-002  0.4578012E+03  0.7546771E-02  0.1025421E+00
         21   -1    0    0  502  501  0.00000000000E+00  0.00000000000E+00  0.44222779345E+03  0.44222779345E+03  0.00000000000E+00 0. -1.
         21   -1    0    0  501  502 -0.00000000000E+00 -0.00000000000E+00 -0.11848078186E+03  0.11848078186E+03  0.00000000000E+00 0. -1.
      99926    2    1    2    0    0  0.00000000000E+00  0.00000000000E+00  0.32374701160E+03  0.56070857531E+03  0.45780124389E+03 0.  0.
      99925    2    3    3    0    0 -0.35929220509E+02  0.89446277367E+02  0.28182030063E+03  0.39731670705E+03  0.26295691364E+03 0.  0.
         25    1    4    4    0    0 -0.24383579171E+02  0.17542294716E+02  0.89954935391E+02  0.15697671655E+03  0.12509000000E+03 0.  0.
         25    1    4    4    0    0 -0.11545641338E+02  0.71903982651E+02  0.19186536524E+03  0.24033999050E+03  0.12509000000E+03 0.  0.
         25    1    3    3    0    0  0.35929220509E+02 -0.89446277367E+02  0.41926710964E+02  0.16339186826E+03  0.12509000000E+03 0.  0.
<mgrwt>
<rscale>  2 0.45780124E+03</rscale>
<asrwt>0</asrwt>
<pdfrwt beam="1">  1       21 0.65033498E-01 0.45780124E+03</pdfrwt>
<pdfrwt beam="2">  1       21 0.17423645E-01 0.45780124E+03</pdfrwt>
<totfact> 0.59827701E+04</totfact>
</mgrwt>
</event>
<event>
 7    0  0.4685107E-002  0.4540938E+03  0.7546771E-02  0.1026508E+00
         21   -1    0    0  502  501  0.00000000000E+00  0.00000000000E+00  0.10401020933E+03  0.10401020933E+03  0.00000000000E+00 0. -1.
         21   -1    0    0  501  502 -0.00000000000E+00 -0.00000000000E+00 -0.49562735746E+03  0.49562735746E+03  0.00000000000E+00 0. -1.
      99926    2    1    2    0    0 -0.14210854715E-13 -0.71054273576E-14 -0.39161714813E+03  0.59963756679E+03  0.45409384580E+03 0.  0.
      99925    2    3    3    0    0  0.93616928864E+02  0.51868364668E+02 -0.20128229421E+03  0.34798439009E+03  0.26291465757E+03 0.  0.
         25    1    4    4    0    0  0.88475253559E+02  0.36088012046E+02 -0.11921370686E+03  0.19745792238E+03  0.12509000000E+03 0.  0.
         25    1    4    4    0    0  0.51416753051E+01  0.15780352622E+02 -0.82068587342E+02  0.15052646771E+03  0.12509000000E+03 0.  0.
         25    1    3    3    0    0 -0.93616928864E+02 -0.51868364668E+02 -0.19033485393E+03  0.25165317670E+03  0.12509000000E+03 0.  0.
<mgrwt>
<rscale>  2 0.45409385E+03</rscale>
<asrwt>0</asrwt>
<pdfrwt beam="1">  1       21 0.15295619E-01 0.45409385E+03</pdfrwt>
<pdfrwt beam="2">  1       21 0.72886378E-01 0.45409385E+03</pdfrwt>
<totfact> 0.59122752E+04</totfact>
</mgrwt>
</event>
<event>
 7    0  0.4685107E-002  0.4509405E+03  0.7546771E-02  0.1027442E+00
         21   -1    0    0  502  501  0.00000000000E+00  0.00000000000E+00  0.81915044653E+02  0.81915044653E+02  0.00000000000E+00 0. -1.
         21   -1    0    0  501  502 -0.00000000000E+00 -0.00000000000E+00 -0.62060430635E+03  0.62060430635E+03  0.00000000000E+00 0. -1.
      99926    2    1    2    0    0  0.00000000000E+00  0.00000000000E+00 -0.53868926170E+03  0.70251935101E+03  0.45094048151E+03 0.  0.
      99925    2    3    3    0    0 -0.65025700938E+02  0.76499800442E+01 -0.20403148797E+03  0.33929738361E+03  0.26307223812E+03 0.  0.
         25    1    4    4    0    0 -0.77264159367E+01 -0.21363569362E+02 -0.70464899638E+02  0.14535786797E+03  0.12509000000E+03 0.  0.
         25    1    4    4    0    0 -0.57299285001E+02  0.29013549407E+02 -0.13356658833E+03  0.19393951565E+03  0.12509000000E+03 0.  0.
         25    1    3    3    0    0  0.65025700938E+02 -0.76499800442E+01 -0.33465777373E+03  0.36322196739E+03  0.12509000000E+03 0.  0.
<mgrwt>
<rscale>  2 0.45094048E+03</rscale>
<asrwt>0</asrwt>
<pdfrwt beam="1">  1       21 0.12046330E-01 0.45094048E+03</pdfrwt>
<pdfrwt beam="2">  1       21 0.91265340E-01 0.45094048E+03</pdfrwt>
<totfact> 0.54486196E+04</totfact>
</mgrwt>
</event>
<event>
 7    0  0.4685107E-002  0.4336101E+03  0.7546771E-02  0.1032726E+00
         21   -1    0    0  502  501  0.00000000000E+00  0.00000000000E+00  0.19784634761E+03  0.19784634761E+03  0.00000000000E+00 0. -1.
         21   -1    0    0  501  502 -0.00000000000E+00 -0.00000000000E+00 -0.23758048939E+03  0.23758048939E+03  0.00000000000E+00 0. -1.
      99926    2    1    2    0    0  0.00000000000E+00 -0.71054273576E-14 -0.39734141781E+02  0.43542683700E+03  0.43361011099E+03 0.  0.
      99925    2    3    3    0    0 -0.40494754171E+02  0.46092065163E+02 -0.93983538987E+02  0.28591159101E+03  0.26296050785E+03 0.  0.
         25    1    4    4    0    0 -0.53630641778E+02  0.71027733359E+01 -0.30191811178E+02  0.13959136323E+03  0.12509000000E+03 0.  0.
         25    1    4    4    0    0  0.13135887606E+02  0.38989291827E+02 -0.63791727809E+02  0.14632022778E+03  0.12509000000E+03 0.  0.
         25    1    3    3    0    0  0.40494754171E+02 -0.46092065163E+02  0.54249397206E+02  0.14951524599E+03  0.12509000000E+03 0.  0.
<mgrwt>
<rscale>  2 0.43361011E+03</rscale>
<asrwt>0</asrwt>
<pdfrwt beam="1">  1       21 0.29095051E-01 0.43361011E+03</pdfrwt>
<pdfrwt beam="2">  1       21 0.34938307E-01 0.43361011E+03</pdfrwt>
<totfact> 0.83345401E+04</totfact>
</mgrwt>
</event>
<event>
 7    0  0.4685107E-002  0.4558263E+03  0.7546771E-02  0.1025999E+00
         21   -1    0    0  502  501  0.00000000000E+00  0.00000000000E+00  0.28899982630E+03  0.28899982630E+03  0.00000000000E+00 0.  1.
         21   -1    0    0  501  502 -0.00000000000E+00 -0.00000000000E+00 -0.17973853157E+03  0.17973853157E+03  0.00000000000E+00 0.  1.
      99926    2    1    2    0    0  0.00000000000E+00  0.00000000000E+00  0.10926129473E+03  0.46873835788E+03  0.45582630203E+03 0.  0.
      99925    2    3    3    0    0  0.93750875046E+02 -0.58668528784E+02  0.42155835093E+02  0.28878871588E+03  0.26342092769E+03 0.  0.
         25    1    3    3    0    0 -0.93750875046E+02  0.58668528784E+02  0.67105459634E+02  0.17994964200E+03  0.12509000000E+03 0.  0.
         25    1    4    4    0    0  0.55140001275E+02  0.91186721143E+01  0.33877811481E+02  0.14113392269E+03  0.12509000000E+03 0.  0.
         25    1    4    4    0    0  0.38610873771E+02 -0.67787200898E+02  0.82780236122E+01  0.14765479320E+03  0.12509000000E+03 0.  0.
<mgrwt>
<rscale>  2 0.45582630E+03</rscale>
<asrwt>0</asrwt>
<pdfrwt beam="1">  1       21 0.42499974E-01 0.45582630E+03</pdfrwt>
<pdfrwt beam="2">  1       21 0.26432137E-01 0.45582630E+03</pdfrwt>
<totfact> 0.67088961E+04</totfact>
</mgrwt>
</event>
<event>
 7    0  0.4685107E-002  0.4855430E+03  0.7546771E-02  0.1017623E+00
         21   -1    0    0  502  501  0.00000000000E+00  0.00000000000E+00  0.60520584244E+02  0.60520584244E+02  0.00000000000E+00 0.  1.
         21   -1    0    0  501  502 -0.00000000000E+00 -0.00000000000E+00 -0.97385041221E+03  0.97385041221E+03  0.00000000000E+00 0.  1.
      99926    2    1    2    0    0  0.00000000000E+00  0.71054273576E-14 -0.91332982797E+03  0.10343709965E+04  0.48554297818E+03 0.  0.
      99925    2    3    3    0    0 -0.26622111745E+02 -0.53809730876E+02 -0.29113148731E+03  0.39688961854E+03  0.26298213330E+03 0.  0.
         25    1    3    3    0    0  0.26622111745E+02  0.53809730876E+02 -0.62219834066E+03  0.63748137791E+03  0.12509000000E+03 0.  0.
         25    1    4    4    0    0 -0.13940996647E+02 -0.60659223467E+02 -0.18736880905E+03  0.23372734432E+03  0.12509000000E+03 0.  0.
         25    1    4    4    0    0 -0.12681115098E+02  0.68494925918E+01 -0.10376267826E+03  0.16316227422E+03  0.12509000000E+03 0.  0.
<mgrwt>
<rscale>  2 0.48554298E+03</rscale>
<asrwt>0</asrwt>
<pdfrwt beam="1">  1       21 0.89000860E-02 0.48554298E+03</pdfrwt>
<pdfrwt beam="2">  1       21 0.14321329E+00 0.48554298E+03</pdfrwt>
<totfact> 0.30030314E+04</totfact>
</mgrwt>
</event>
<event>
 7    0  0.4685107E-002  0.4535383E+03  0.7546771E-02  0.1026672E+00
         21   -1    0    0  502  501  0.00000000000E+00  0.00000000000E+00  0.46542316245E+03  0.46542316245E+03  0.00000000000E+00 0.  1.
         21   -1    0    0  501  502 -0.00000000000E+00 -0.00000000000E+00 -0.11048922664E+03  0.11048922664E+03  0.00000000000E+00 0.  1.
      99926    2    1    2    0    0  0.00000000000E+00  0.00000000000E+00  0.35493393581E+03  0.57591238909E+03  0.45353829069E+03 0.  0.
      99925    2    3    3    0    0  0.30327199714E+02  0.10186558341E+03  0.26737737915E+03  0.38987477236E+03  0.26308808243E+03 0.  0.
         25    1    4    4    0    0 -0.25051728368E+02  0.41820846215E+02  0.12154042056E+03  0.18109708502E+03  0.12509000000E+03 0.  0.
         25    1    4    4    0    0  0.55378928083E+02  0.60044737194E+02  0.14583695858E+03  0.20877768734E+03  0.12509000000E+03 0.  0.
         25    1    3    3    0    0 -0.30327199714E+02 -0.10186558341E+03  0.87556556658E+02  0.18603761673E+03  0.12509000000E+03 0.  0.
<mgrwt>
<rscale>  2 0.45353829E+03</rscale>
<asrwt>0</asrwt>
<pdfrwt beam="1">  1       21 0.68444582E-01 0.45353829E+03</pdfrwt>
<pdfrwt beam="2">  1       21 0.16248416E-01 0.45353829E+03</pdfrwt>
<totfact> 0.60886598E+04</totfact>
</mgrwt>
</event>
<event>
 7    0  0.4685107E-002  0.4542628E+03  0.7546771E-02  0.1026458E+00
         21   -1    0    0  502  501  0.00000000000E+00  0.00000000000E+00  0.34394791685E+03  0.34394791685E+03  0.00000000000E+00 0.  1.
         21   -1    0    0  501  502 -0.00000000000E+00 -0.00000000000E+00 -0.14998980925E+03  0.14998980925E+03  0.00000000000E+00 0.  1.
      99926    2    1    2    0    0  0.00000000000E+00  0.00000000000E+00  0.19395810760E+03  0.49393772610E+03  0.45426284216E+03 0.  0.
      99925    2    3    3    0    0  0.51618606553E+02 -0.92344870159E+02  0.82150590331E+02  0.29559336746E+03  0.26350458024E+03 0.  0.
         25    1    4    4    0    0  0.63559226280E+02 -0.40047015183E+02  0.59662677102E+02  0.15764099026E+03  0.12509000000E+03 0.  0.
         25    1    4    4    0    0 -0.11940619728E+02 -0.52297854976E+02  0.22487913228E+02  0.13795237720E+03  0.12509000000E+03 0.  0.
         25    1    3    3    0    0 -0.51618606553E+02  0.92344870159E+02  0.11180751727E+03  0.19834435864E+03  0.12509000000E+03 0.  0.
<mgrwt>
<rscale>  2 0.45426284E+03</rscale>
<asrwt>0</asrwt>
<pdfrwt beam="1">  1       21 0.50580576E-01 0.45426284E+03</pdfrwt>
<pdfrwt beam="2">  1       21 0.22057325E-01 0.45426284E+03</pdfrwt>
<totfact> 0.66084562E+04</totfact>
</mgrwt>
</event>
<event>
 7    0  0.4685107E-002  0.4552299E+03  0.7546771E-02  0.1026174E+00
         21   -1    0    0  502  501  0.00000000000E+00  0.00000000000E+00  0.29782620006E+03  0.29782620006E+03  0.00000000000E+00 0.  1.
         21   -1    0    0  501  502 -0.00000000000E+00 -0.00000000000E+00 -0.17395568983E+03  0.17395568983E+03  0.00000000000E+00 0.  1.
      99926    2    1    2    0    0  0.00000000000E+00  0.00000000000E+00  0.12387051023E+03  0.47178188989E+03  0.45522988514E+03 0.  0.
      99925    2    3    3    0    0 -0.56345241782E+02 -0.67556156991E+02  0.33824236595E+01  0.27709365777E+03  0.26273719525E+03 0.  0.
         25    1    4    4    0    0 -0.88301035595E+01 -0.55031494257E+02  0.29742781857E+02  0.14013770821E+03  0.12509000000E+03 0.  0.
         25    1    3    3    0    0  0.56345241782E+02  0.67556156991E+02  0.12048808657E+03  0.19468823212E+03  0.12509000000E+03 0.  0.
         25    1    4    4    0    0 -0.47515138222E+02 -0.12524662734E+02 -0.26360358197E+02  0.13695594956E+03  0.12509000000E+03 0.  0.
<mgrwt>
<rscale>  2 0.45522989E+03</rscale>
<asrwt>0</asrwt>
<pdfrwt beam="1">  1       21 0.43797971E-01 0.45522989E+03</pdfrwt>
<pdfrwt beam="2">  1       21 0.25581719E-01 0.45522989E+03</pdfrwt>
<totfact> 0.67180821E+04</totfact>
</mgrwt>
</event>
<event>
 7    0  0.4685107E-002  0.4416760E+03  0.7546771E-02  0.1030234E+00
         21   -1    0    0  502  501  0.00000000000E+00  0.00000000000E+00  0.17280154351E+03  0.17280154351E+03  0.00000000000E+00 0.  1.
         21   -1    0    0  501  502 -0.00000000000E+00 -0.00000000000E+00 -0.28222788652E+03  0.28222788652E+03  0.00000000000E+00 0.  1.
      99926    2    1    2    0    0  0.00000000000E+00 -0.14210854715E-13 -0.10942634300E+03  0.45502943003E+03  0.44167596454E+03 0.  0.
      99925    2    3    3    0    0  0.23192975657E+02  0.96793718545E+02 -0.81730917673E+02  0.29279046198E+03  0.26294367012E+03 0.  0.
         25    1    4    4    0    0  0.16374947282E+02  0.89045315442E+02 -0.31500724831E+02  0.15759762329E+03  0.12509000000E+03 0.  0.
         25    1    4    4    0    0  0.68180283750E+01  0.77484031032E+01 -0.50230192842E+02  0.13519283870E+03  0.12509000000E+03 0.  0.
         25    1    3    3    0    0 -0.23192975657E+02 -0.96793718545E+02 -0.27695425330E+02  0.16223896805E+03  0.12509000000E+03 0.  0.
<mgrwt>
<rscale>  2 0.44167596E+03</rscale>
<asrwt>0</asrwt>
<pdfrwt beam="1">  1       21 0.25411992E-01 0.44167596E+03</pdfrwt>
<pdfrwt beam="2">  1       21 0.41504101E-01 0.44167596E+03</pdfrwt>
<totfact> 0.76318062E+04</totfact>
</mgrwt>
</event>
<event>
 7    0  0.4685107E-002  0.4527738E+03  0.7546771E-02  0.1026898E+00
         21   -1    0    0  502  501  0.00000000000E+00  0.00000000000E+00  0.15780976148E+03  0.15780976148E+03  0.00000000000E+00 0. -1.
         21   -1    0    0  501  502 -0.00000000000E+00 -0.00000000000E+00 -0.32476463987E+03  0.32476463987E+03  0.00000000000E+00 0. -1.
      99926    2    1    2    0    0  0.35527136788E-14  0.00000000000E+00 -0.16695487839E+03  0.48257440136E+03  0.45277380824E+03 0.  0.
      99925    2    3    3    0    0 -0.16143384600E+02  0.82024969984E+01 -0.22216671382E+03  0.34464780967E+03  0.26286151137E+03 0.  0.
         25    1    4    4    0    0 -0.45605014715E+02 -0.98673744557E+01 -0.11934336132E+03  0.17907408644E+03  0.12509000000E+03 0.  0.
         25    1    4    4    0    0  0.29461630114E+02  0.18069871454E+02 -0.10282335250E+03  0.16557372323E+03  0.12509000000E+03 0.  0.
         25    1    3    3    0    0  0.16143384600E+02 -0.82024969984E+01  0.55211835425E+02  0.13792659169E+03  0.12509000000E+03 0.  0.
<mgrwt>
<rscale>  2 0.45277381E+03</rscale>
<asrwt>0</asrwt>
<pdfrwt beam="1">  1       21 0.23207318E-01 0.45277381E+03</pdfrwt>
<pdfrwt beam="2">  1       21 0.47759505E-01 0.45277381E+03</pdfrwt>
<totfact> 0.67701713E+04</totfact>
</mgrwt>
</event>
<event>
 7    0  0.4685107E-002  0.4562351E+03  0.7546771E-02  0.1025879E+00
         21   -1    0    0  502  501  0.00000000000E+00  0.00000000000E+00  0.56240069952E+03  0.56240069952E+03  0.00000000000E+00 0.  1.
         21   -1    0    0  501  502 -0.00000000000E+00 -0.00000000000E+00 -0.92527642987E+02  0.92527642987E+02  0.00000000000E+00 0.  1.
      99926    2    1    2    0    0  0.00000000000E+00 -0.14210854715E-13  0.46987305654E+03  0.65492834251E+03  0.45623507599E+03 0.  0.
      99925    2    3    3    0    0 -0.81424886152E+00  0.11306471061E+03  0.27091573790E+03  0.39412992510E+03  0.26298054877E+03 0.  0.
         25    1    4    4    0    0  0.21405474391E+02  0.93364361978E+02  0.14306643036E+03  0.21281590640E+03  0.12509000000E+03 0.  0.
         25    1    4    4    0    0 -0.22219723252E+02  0.19700348629E+02  0.12784930754E+03  0.18131401869E+03  0.12509000000E+03 0.  0.
         25    1    3    3    0    0  0.81424886152E+00 -0.11306471061E+03  0.19895731864E+03  0.26079841741E+03  0.12509000000E+03 0.  0.
<mgrwt>
<rscale>  2 0.45623508E+03</rscale>
<asrwt>0</asrwt>
<pdfrwt beam="1">  1       21 0.82705984E-01 0.45623508E+03</pdfrwt>
<pdfrwt beam="2">  1       21 0.13607007E-01 0.45623508E+03</pdfrwt>
<totfact> 0.54881848E+04</totfact>
</mgrwt>
</event>
<event>
 7    0  0.4685107E-002  0.3985034E+03  0.7546771E-02  0.1044299E+00
         21   -1    0    0  502  501  0.00000000000E+00  0.00000000000E+00  0.18598457992E+03  0.18598457992E+03  0.00000000000E+00 0. -1.
         21   -1    0    0  501  502 -0.00000000000E+00 -0.00000000000E+00 -0.21346523985E+03  0.21346523985E+03  0.00000000000E+00 0. -1.
      99926    2    1    2    0    0 -0.88817841970E-15  0.00000000000E+00 -0.27480659930E+02  0.39944981978E+03  0.39850341510E+03 0.  0.
      99925    2    3    3    0    0 -0.15626366036E+01 -0.15287294448E+02  0.21372478240E+02  0.26428221858E+03  0.26296799240E+03 0.  0.
         25    1    4    4    0    0  0.26751830578E+02 -0.48824778996E+01 -0.19016591602E+02  0.12941652864E+03  0.12509000000E+03 0.  0.
         25    1    4    4    0    0 -0.28314467182E+02 -0.10404816548E+02  0.40389069842E+02  0.13486568994E+03  0.12509000000E+03 0.  0.
         25    1    3    3    0    0  0.15626366036E+01  0.15287294448E+02 -0.48853138169E+02  0.13516760120E+03  0.12509000000E+03 0.  0.
<mgrwt>
<rscale>  2 0.39850342E+03</rscale>
<asrwt>0</asrwt>
<pdfrwt beam="1">  1       21 0.27350673E-01 0.39850342E+03</pdfrwt>
<pdfrwt beam="2">  1       21 0.31391947E-01 0.39850342E+03</pdfrwt>
<totfact> 0.11751477E+05</totfact>
</mgrwt>
</event>
<event>
 7    0  0.4685107E-002  0.4498950E+03  0.7546771E-02  0.1027753E+00
         21   -1    0    0  502  501  0.00000000000E+00  0.00000000000E+00  0.53230175476E+03  0.53230175476E+03  0.00000000000E+00 0.  1.
         21   -1    0    0  501  502 -0.00000000000E+00 -0.00000000000E+00 -0.95061466099E+02  0.95061466099E+02  0.00000000000E+00 0.  1.
      99926    2    1    2    0    0  0.00000000000E+00  0.00000000000E+00  0.43724028866E+03  0.62736322086E+03  0.44989503316E+03 0.  0.
      99925    2    3    3    0    0 -0.50980899383E+02  0.37449612876E+02  0.15387472906E+03  0.31122231229E+03  0.26302161473E+03 0.  0.
         25    1    3    3    0    0  0.50980899383E+02 -0.37449612876E+02  0.28336555960E+03  0.31614090857E+03  0.12509000000E+03 0.  0.
         25    1    4    4    0    0 -0.49113162593E+01  0.44740915842E+02  0.49865227792E+02  0.14198563174E+03  0.12509000000E+03 0.  0.
         25    1    4    4    0    0 -0.46069583124E+02 -0.72913029669E+01  0.10400950127E+03  0.16923668055E+03  0.12509000000E+03 0.  0.
<mgrwt>
<rscale>  2 0.44989503E+03</rscale>
<asrwt>0</asrwt>
<pdfrwt beam="1">  1       21 0.78279668E-01 0.44989503E+03</pdfrwt>
<pdfrwt beam="2">  1       21 0.13979628E-01 0.44989503E+03</pdfrwt>
<totfact> 0.59382028E+04</totfact>
</mgrwt>
</event>
<event>
 7    0  0.4685107E-002  0.4534147E+03  0.7546771E-02  0.1026709E+00
         21   -1    0    0  502  501  0.00000000000E+00  0.00000000000E+00  0.96735440809E+03  0.96735440809E+03  0.00000000000E+00 0. -1.
         21   -1    0    0  501  502 -0.00000000000E+00 -0.00000000000E+00 -0.53130705794E+02  0.53130705794E+02  0.00000000000E+00 0. -1.
      99926    2    1    2    0    0  0.00000000000E+00  0.14210854715E-13  0.91422370230E+03  0.10204851139E+04  0.45341469961E+03 0.  0.
      99925    2    3    3    0    0 -0.77156364714E+02  0.78913816202E+02  0.61426057931E+03  0.67725650456E+03  0.26302056703E+03 0.  0.
         25    1    4    4    0    0 -0.46878534515E+02  0.81172013841E+02  0.34948525147E+03  0.38284976417E+03  0.12509000000E+03 0.  0.
         25    1    3    3    0    0  0.77156364714E+02 -0.78913816202E+02  0.29996312299E+03  0.34322860932E+03  0.12509000000E+03 0.  0.
         25    1    4    4    0    0 -0.30277830200E+02 -0.22581976389E+01  0.26477532784E+03  0.29440674040E+03  0.12509000000E+03 0.  0.
<mgrwt>
<rscale>  2 0.45341470E+03</rscale>
<asrwt>0</asrwt>
<pdfrwt beam="1">  1       21 0.14225799E+00 0.45341470E+03</pdfrwt>
<pdfrwt beam="2">  1       21 0.78133397E-02 0.45341470E+03</pdfrwt>
<totfact> 0.38858095E+04</totfact>
</mgrwt>
</event>
<event>
 7    0  0.4685107E-002  0.3963495E+03  0.7546771E-02  0.1045051E+00
         21   -1    0    0  502  501  0.00000000000E+00  0.00000000000E+00  0.66088185844E+02  0.66088185844E+02  0.00000000000E+00 0. -1.
         21   -1    0    0  501  502 -0.00000000000E+00 -0.00000000000E+00 -0.59425484983E+03  0.59425484983E+03  0.00000000000E+00 0. -1.
      99926    2    1    2    0    0 -0.35527136788E-14 -0.17763568394E-14 -0.52816666399E+03  0.66034303567E+03  0.39634946678E+03 0.  0.
      99925    2    3    3    0    0  0.31776482919E+02  0.28649885585E+01 -0.32073479834E+03  0.41602062571E+03  0.26302927047E+03 0.  0.
         25    1    3    3    0    0 -0.31776482919E+02 -0.28649885585E+01 -0.20743186565E+03  0.24432240997E+03  0.12509000000E+03 0.  0.
         25    1    4    4    0    0  0.39060944480E+02 -0.27546950173E+02 -0.18952650855E+03  0.23206119321E+03  0.12509000000E+03 0.  0.
         25    1    4    4    0    0 -0.72844615608E+01  0.30411938731E+02 -0.13120828978E+03  0.18395943250E+03  0.12509000000E+03 0.  0.
<mgrwt>
<rscale>  2 0.39634947E+03</rscale>
<asrwt>0</asrwt>
<pdfrwt beam="1">  1       21 0.97188501E-02 0.39634947E+03</pdfrwt>
<pdfrwt beam="2">  1       21 0.87390426E-01 0.39634947E+03</pdfrwt>
<totfact> 0.90055476E+04</totfact>
</mgrwt>
</event>
<event>
 7    0  0.4685107E-002  0.4258569E+03  0.7546771E-02  0.1035177E+00
         21   -1    0    0  502  501  0.00000000000E+00  0.00000000000E+00  0.30454171264E+03  0.30454171264E+03  0.00000000000E+00 0. -1.
         21   -1    0    0  501  502 -0.00000000000E+00 -0.00000000000E+00 -0.14887461815E+03  0.14887461815E+03  0.00000000000E+00 0. -1.
      99926    2    1    2    0    0  0.00000000000E+00  0.71054273576E-14  0.15566709449E+03  0.45341633080E+03  0.42585692988E+03 0.  0.
      99925    2    3    3    0    0 -0.67479101925E+02 -0.39555982438E+02  0.12990499024E+03  0.30365218603E+03  0.26308028935E+03 0.  0.
         25    1    3    3    0    0  0.67479101925E+02  0.39555982438E+02  0.25762104249E+02  0.14976414477E+03  0.12509000000E+03 0.  0.
         25    1    4    4    0    0 -0.87102960338E+01 -0.40285721827E+02  0.90953453774E+02  0.16005888758E+03  0.12509000000E+03 0.  0.
         25    1    4    4    0    0 -0.58768805891E+02  0.72973938929E+00  0.38951536469E+02  0.14359329845E+03  0.12509000000E+03 0.  0.
<mgrwt>
<rscale>  2 0.42585693E+03</rscale>
<asrwt>0</asrwt>
<pdfrwt beam="1">  1       21 0.44785546E-01 0.42585693E+03</pdfrwt>
<pdfrwt beam="2">  1       21 0.21893326E-01 0.42585693E+03</pdfrwt>
<totfact> 0.87168702E+04</totfact>
</mgrwt>
</event>
<event>
 7    0  0.4685107E-002  0.4619050E+03  0.7546771E-02  0.1024230E+00
         21   -1    0    0  502  501  0.00000000000E+00  0.00000000000E+00  0.55149644563E+03  0.55149644563E+03  0.00000000000E+00 0. -1.
         21   -1    0    0  501  502 -0.00000000000E+00 -0.00000000000E+00 -0.96716972067E+02  0.96716972067E+02  0.00000000000E+00 0. -1.
      99926    2    1    2    0    0  0.71054273576E-14 -0.35527136788E-14  0.45477947356E+03  0.64821341769E+03  0.46190503927E+03 0.  0.
      99925    2    3    3    0    0 -0.45867619699E+02  0.26026252039E+02  0.13360116338E+03  0.29952412998E+03  0.26283878948E+03 0.  0.
         25    1    4    4    0    0 -0.15183010354E+01 -0.84045793528E+01  0.94315652174E+02  0.15689452679E+03  0.12509000000E+03 0.  0.
         25    1    4    4    0    0 -0.44349318664E+02  0.34430831392E+02  0.39285511204E+02  0.14262960319E+03  0.12509000000E+03 0.  0.
         25    1    3    3    0    0  0.45867619699E+02 -0.26026252039E+02  0.32117831018E+03  0.34868928771E+03  0.12509000000E+03 0.  0.
<mgrwt>
<rscale>  2 0.46190504E+03</rscale>
<asrwt>0</asrwt>
<pdfrwt beam="1">  1       21 0.81102417E-01 0.46190504E+03</pdfrwt>
<pdfrwt beam="2">  1       21 0.14223084E-01 0.46190504E+03</pdfrwt>
<totfact> 0.52865038E+04</totfact>
</mgrwt>
</event>
<event>
 7    0  0.4685107E-002  0.4509609E+03  0.7546771E-02  0.1027436E+00
         21   -1    0    0  502  501  0.00000000000E+00  0.00000000000E+00  0.13294049084E+03  0.13294049084E+03  0.00000000000E+00 0. -1.
         21   -1    0    0  501  502 -0.00000000000E+00 -0.00000000000E+00 -0.38243760214E+03  0.38243760214E+03  0.00000000000E+00 0. -1.
      99926    2    1    2    0    0  0.35527136788E-14  0.00000000000E+00 -0.24949711131E+03  0.51537809298E+03  0.45096094085E+03 0.  0.
      99925    2    3    3    0    0  0.13541145933E+02 -0.26297277307E+02 -0.37101630044E+02  0.26711561497E+03  0.26286747874E+03 0.  0.
         25    1    3    3    0    0 -0.13541145933E+02  0.26297277307E+02 -0.21239548127E+03  0.24826247801E+03  0.12509000000E+03 0.  0.
         25    1    4    4    0    0 -0.56978567286E+01 -0.27644766159E+01 -0.55648877385E+02  0.13705624231E+03  0.12509000000E+03 0.  0.
         25    1    4    4    0    0  0.19239002662E+02 -0.23532800691E+02  0.18547247341E+02  0.13005937266E+03  0.12509000000E+03 0.  0.
<mgrwt>
<rscale>  2 0.45096094E+03</rscale>
<asrwt>0</asrwt>
<pdfrwt beam="1">  1       21 0.19550073E-01 0.45096094E+03</pdfrwt>
<pdfrwt beam="2">  1       21 0.56240822E-01 0.45096094E+03</pdfrwt>
<totfact> 0.66302744E+04</totfact>
</mgrwt>
</event>
<event>
 7    0  0.4685107E-002  0.4538818E+03  0.7546771E-02  0.1026571E+00
         21   -1    0    0  502  501  0.00000000000E+00  0.00000000000E+00  0.49501908632E+03  0.49501908632E+03  0.00000000000E+00 0.  1.
         21   -1    0    0  501  502 -0.00000000000E+00 -0.00000000000E+00 -0.10404078786E+03  0.10404078786E+03  0.00000000000E+00 0.  1.
      99926    2    1    2    0    0  0.00000000000E+00  0.00000000000E+00  0.39097829846E+03  0.59905987418E+03  0.45388181610E+03 0.  0.
      99925    2    3    3    0    0 -0.99969804987E+02 -0.26123974725E+02  0.30372698004E+03  0.41484064437E+03  0.26299478674E+03 0.  0.
         25    1    4    4    0    0 -0.38789497970E+02 -0.32890331917E+02  0.10022284688E+03  0.16816220213E+03  0.12509000000E+03 0.  0.
         25    1    4    4    0    0 -0.61180307016E+02  0.67663571920E+01  0.20350413316E+03  0.24667844225E+03  0.12509000000E+03 0.  0.
         25    1    3    3    0    0  0.99969804987E+02  0.26123974725E+02  0.87251318411E+02  0.18421922980E+03  0.12509000000E+03 0.  0.
<mgrwt>
<rscale>  2 0.45388182E+03</rscale>
<asrwt>0</asrwt>
<pdfrwt beam="1">  1       21 0.72796924E-01 0.45388182E+03</pdfrwt>
<pdfrwt beam="2">  1       21 0.15300116E-01 0.45388182E+03</pdfrwt>
<totfact> 0.59257998E+04</totfact>
</mgrwt>
</event>
<event>
 7    0  0.4685107E-002  0.4442876E+03  0.7546771E-02  0.1029439E+00
         21   -1    0    0  502  501  0.00000000000E+00  0.00000000000E+00  0.39841842719E+03  0.39841842719E+03  0.00000000000E+00 0. -1.
         21   -1    0    0  501  502 -0.00000000000E+00 -0.00000000000E+00 -0.12385938689E+03  0.12385938689E+03  0.00000000000E+00 0. -1.
      99926    2    1    2    0    0  0.00000000000E+00 -0.88817841970E-15  0.27455904030E+03  0.52227781407E+03  0.44428757406E+03 0.  0.
      99925    2    3    3    0    0 -0.64074297752E+02 -0.51147472858E+01  0.80181785922E+02  0.28235761611E+03  0.26299244915E+03 0.  0.
         25    1    4    4    0    0 -0.46300444126E+02 -0.32884044239E+02  0.65410352862E+02  0.15215490085E+03  0.12509000000E+03 0.  0.
         25    1    3    3    0    0  0.64074297752E+02  0.51147472858E+01  0.19437725437E+03  0.23992019796E+03  0.12509000000E+03 0.  0.
         25    1    4    4    0    0 -0.17773853626E+02  0.27769296953E+02  0.14771433061E+02  0.13020271526E+03  0.12509000000E+03 0.  0.
<mgrwt>
<rscale>  2 0.44428757E+03</rscale>
<asrwt>0</asrwt>
<pdfrwt beam="1">  1       21 0.58590945E-01 0.44428757E+03</pdfrwt>
<pdfrwt beam="2">  1       21 0.18214616E-01 0.44428757E+03</pdfrwt>
<totfact> 0.69441273E+04</totfact>
</mgrwt>
</event>
<event>
 7    0  0.4685107E-002  0.4553934E+03  0.7546771E-02  0.1026126E+00
         21   -1    0    0  502  501  0.00000000000E+00  0.00000000000E+00  0.68449363205E+02  0.68449363205E+02  0.00000000000E+00 0.  1.
         21   -1    0    0  501  502 -0.00000000000E+00 -0.00000000000E+00 -0.75743275054E+03  0.75743275054E+03  0.00000000000E+00 0.  1.
      99926    2    1    2    0    0  0.35527136788E-14  0.00000000000E+00 -0.68898338734E+03  0.82588211375E+03  0.45539340990E+03 0.  0.
      99925    2    3    3    0    0 -0.22164024329E+02  0.68847312484E+02 -0.59216439226E+03  0.65194930396E+03  0.26296013210E+03 0.  0.
         25    1    4    4    0    0 -0.31190010464E+02  0.58215626187E+02 -0.37714752665E+03  0.40280223540E+03  0.12509000000E+03 0.  0.
         25    1    3    3    0    0  0.22164024329E+02 -0.68847312484E+02 -0.96818995083E+02  0.17393280978E+03  0.12509000000E+03 0.  0.
         25    1    4    4    0    0  0.90259861355E+01  0.10631686297E+02 -0.21501686561E+03  0.24914706856E+03  0.12509000000E+03 0.  0.
<mgrwt>
<rscale>  2 0.45539341E+03</rscale>
<asrwt>0</asrwt>
<pdfrwt beam="1">  1       21 0.10066083E-01 0.45539341E+03</pdfrwt>
<pdfrwt beam="2">  1       21 0.11138716E+00 0.45539341E+03</pdfrwt>
<totfact> 0.46394894E+04</totfact>
</mgrwt>
</event>
<event>
 7    0  0.4685107E-002  0.4555378E+03  0.7546771E-02  0.1026083E+00
         21   -1    0    0  502  501  0.00000000000E+00  0.00000000000E+00  0.27904444317E+03  0.27904444317E+03  0.00000000000E+00 0.  1.
         21   -1    0    0  501  502 -0.00000000000E+00 -0.00000000000E+00 -0.18591542673E+03  0.18591542673E+03  0.00000000000E+00 0.  1.
      99926    2    1    2    0    0  0.00000000000E+00  0.00000000000E+00  0.93129016441E+02  0.46495986990E+03  0.45553777770E+03 0.  0.
      99925    2    3    3    0    0 -0.89230571782E+02  0.54664072014E+02  0.14491066018E+02  0.28390272131E+03  0.26351567024E+03 0.  0.
         25    1    3    3    0    0  0.89230571782E+02 -0.54664072014E+02  0.78637950423E+02  0.18105714859E+03  0.12509000000E+03 0.  0.
         25    1    4    4    0    0 -0.12840866769E+02 -0.28813287189E+01  0.58124120703E-01  0.12578036966E+03  0.12509000000E+03 0.  0.
         25    1    4    4    0    0 -0.76389705013E+02  0.57545400733E+02  0.14432941898E+02  0.15812235164E+03  0.12509000000E+03 0.  0.
<mgrwt>
<rscale>  2 0.45553778E+03</rscale>
<asrwt>0</asrwt>
<pdfrwt beam="1">  1       21 0.41035948E-01 0.45553778E+03</pdfrwt>
<pdfrwt beam="2">  1       21 0.27340504E-01 0.45553778E+03</pdfrwt>
<totfact> 0.67524126E+04</totfact>
</mgrwt>
</event>
<event>
 7    0  0.4685107E-002  0.4503926E+03  0.7546771E-02  0.1027605E+00
         21   -1    0    0  502  501  0.00000000000E+00  0.00000000000E+00  0.21873395181E+03  0.21873395181E+03  0.00000000000E+00 0. -1.
         21   -1    0    0  501  502 -0.00000000000E+00 -0.00000000000E+00 -0.23184954710E+03  0.23184954710E+03  0.00000000000E+00 0. -1.
      99926    2    1    2    0    0 -0.14210854715E-13  0.71054273576E-14 -0.13115595299E+02  0.45058349891E+03  0.45039257393E+03 0.  0.
      99925    2    3    3    0    0 -0.98372209578E+02  0.39687714354E+02 -0.32317424287E+02  0.28545196157E+03  0.26303269790E+03 0.  0.
         25    1    4    4    0    0 -0.80002537749E+02  0.27623891326E+02 -0.45566035751E+02  0.15775695589E+03  0.12509000000E+03 0.  0.
         25    1    3    3    0    0  0.98372209578E+02 -0.39687714354E+02  0.19201828988E+02  0.16513153734E+03  0.12509000000E+03 0.  0.
         25    1    4    4    0    0 -0.18369671830E+02  0.12063823028E+02  0.13248611464E+02  0.12769500568E+03  0.12509000000E+03 0.  0.
<mgrwt>
<rscale>  2 0.45039257E+03</rscale>
<asrwt>0</asrwt>
<pdfrwt beam="1">  1       21 0.32166758E-01 0.45039257E+03</pdfrwt>
<pdfrwt beam="2">  1       21 0.34095521E-01 0.45039257E+03</pdfrwt>
<totfact> 0.71461757E+04</totfact>
</mgrwt>
</event>
<event>
 7    0  0.4685107E-002  0.4496674E+03  0.7546771E-02  0.1027821E+00
         21   -1    0    0  502  501  0.00000000000E+00  0.00000000000E+00  0.26644846787E+03  0.26644846787E+03  0.00000000000E+00 0.  1.
         21   -1    0    0  501  502 -0.00000000000E+00 -0.00000000000E+00 -0.18971842097E+03  0.18971842097E+03  0.00000000000E+00 0.  1.
      99926    2    1    2    0    0  0.00000000000E+00  0.00000000000E+00  0.76730046907E+02  0.45616688884E+03  0.44966735524E+03 0.  0.
      99925    2    3    3    0    0 -0.90147154076E+01 -0.10123388417E+03  0.11132838907E+02  0.28215520476E+03  0.26297919133E+03 0.  0.
         25    1    4    4    0    0 -0.37605108777E+02 -0.43292345963E+02  0.27778502271E+02  0.14038349160E+03  0.12509000000E+03 0.  0.
         25    1    3    3    0    0  0.90147154076E+01  0.10123388417E+03  0.65597208000E+02  0.17401168408E+03  0.12509000000E+03 0.  0.
         25    1    4    4    0    0  0.28590393370E+02 -0.57941538210E+02 -0.16645663365E+02  0.14177171316E+03  0.12509000000E+03 0.  0.
<mgrwt>
<rscale>  2 0.44966736E+03</rscale>
<asrwt>0</asrwt>
<pdfrwt beam="1">  1       21 0.39183598E-01 0.44966736E+03</pdfrwt>
<pdfrwt beam="2">  1       21 0.27899768E-01 0.44966736E+03</pdfrwt>
<totfact> 0.71451140E+04</totfact>
</mgrwt>
</event>
<event>
 7    0  0.4685107E-002  0.4242327E+03  0.7546771E-02  0.1035697E+00
         21   -1    0    0  502  501  0.00000000000E+00  0.00000000000E+00  0.10592804392E+03  0.10592804392E+03  0.00000000000E+00 0. -1.
         21   -1    0    0  501  502 -0.00000000000E+00 -0.00000000000E+00 -0.42475382289E+03  0.42475382289E+03  0.00000000000E+00 0. -1.
      99926    2    1    2    0    0  0.71054273576E-14  0.00000000000E+00 -0.31882577897E+03  0.53068186681E+03  0.42423267958E+03 0.  0.
      99925    2    3    3    0    0  0.42759261838E+02  0.56873636890E+02 -0.15757135828E+03  0.31454889538E+03  0.26277235317E+03 0.  0.
         25    1    4    4    0    0 -0.54930805406E+01  0.54177047320E+02 -0.97033443011E+02  0.16741661672E+03  0.12509000000E+03 0.  0.
         25    1    4    4    0    0  0.48252342379E+02  0.26965895693E+01 -0.60537915267E+02  0.14713227867E+03  0.12509000000E+03 0.  0.
         25    1    3    3    0    0 -0.42759261838E+02 -0.56873636890E+02 -0.16125442069E+03  0.21613297143E+03  0.12509000000E+03 0.  0.
<mgrwt>
<rscale>  2 0.42423268E+03</rscale>
<asrwt>0</asrwt>
<pdfrwt beam="1">  1       21 0.15577653E-01 0.42423268E+03</pdfrwt>
<pdfrwt beam="2">  1       21 0.62463799E-01 0.42423268E+03</pdfrwt>
<totfact> 0.81203925E+04</totfact>
</mgrwt>
</event>
<event>
 7    0  0.4685107E-002  0.4509898E+03  0.7546771E-02  0.1027427E+00
         21   -1    0    0  502  501  0.00000000000E+00  0.00000000000E+00  0.46817754680E+03  0.46817754680E+03  0.00000000000E+00 0. -1.
         21   -1    0    0  501  502 -0.00000000000E+00 -0.00000000000E+00 -0.10860827120E+03  0.10860827120E+03  0.00000000000E+00 0. -1.
      99926    2    1    2    0    0 -0.14210854715E-13  0.00000000000E+00  0.35956927560E+03  0.57678581800E+03  0.45098981795E+03 0.  0.
      99925    2    3    3    0    0  0.10545722683E+03  0.27406920188E+02  0.21529363110E+03  0.35693283153E+03  0.26301584109E+03 0.  0.
         25    1    3    3    0    0 -0.10545722683E+03 -0.27406920188E+02  0.14427564450E+03  0.21985298647E+03  0.12509000000E+03 0.  0.
         25    1    4    4    0    0  0.71456995846E+02  0.35668765241E+02  0.15201138390E+03  0.21244606846E+03  0.12509000000E+03 0.  0.
         25    1    4    4    0    0  0.34000230986E+02 -0.82618450525E+01  0.63282247200E+02  0.14448676307E+03  0.12509000000E+03 0.  0.
<mgrwt>
<rscale>  2 0.45098982E+03</rscale>
<asrwt>0</asrwt>
<pdfrwt beam="1">  1       21 0.68849638E-01 0.45098982E+03</pdfrwt>
<pdfrwt beam="2">  1       21 0.15971805E-01 0.45098982E+03</pdfrwt>
<totfact> 0.62075260E+04</totfact>
</mgrwt>
</event>
<event>
 7    0  0.4685107E-002  0.4556441E+03  0.7546771E-02  0.1026052E+00
         21   -1    0    0  502  501  0.00000000000E+00  0.00000000000E+00  0.15741428676E+03  0.15741428676E+03  0.00000000000E+00 0.  1.
         21   -1    0    0  501  502 -0.00000000000E+00 -0.00000000000E+00 -0.32972155573E+03  0.32972155573E+03  0.00000000000E+00 0.  1.
      99926    2    1    2    0    0  0.14210854715E-13  0.00000000000E+00 -0.17230726897E+03  0.48713584249E+03  0.45564408709E+03 0.  0.
      99925    2    3    3    0    0 -0.10925489966E+03 -0.33652763275E+02 -0.10261598369E+03  0.30390504563E+03  0.26221955509E+03 0.  0.
         25    1    4    4    0    0 -0.55224257718E+02 -0.29172030465E+00 -0.12809498624E+02  0.13733679440E+03  0.12509000000E+03 0.  0.
         25    1    3    3    0    0  0.10925489966E+03  0.33652763275E+02 -0.69691285283E+02  0.18323079686E+03  0.12509000000E+03 0.  0.
         25    1    4    4    0    0 -0.54030641939E+02 -0.33361042970E+02 -0.89806485067E+02  0.16656825123E+03  0.12509000000E+03 0.  0.
<mgrwt>
<rscale>  2 0.45564409E+03</rscale>
<asrwt>0</asrwt>
<pdfrwt beam="1">  1       21 0.23149160E-01 0.45564409E+03</pdfrwt>
<pdfrwt beam="2">  1       21 0.48488464E-01 0.45564409E+03</pdfrwt>
<totfact> 0.65846893E+04</totfact>
</mgrwt>
</event>
<event>
 7    0  0.4685107E-002  0.4527694E+03  0.7546771E-02  0.1026899E+00
         21   -1    0    0  502  501  0.00000000000E+00  0.00000000000E+00  0.10693708633E+03  0.10693708633E+03  0.00000000000E+00 0. -1.
         21   -1    0    0  501  502 -0.00000000000E+00 -0.00000000000E+00 -0.47925403360E+03  0.47925403360E+03  0.00000000000E+00 0. -1.
      99926    2    1    2    0    0 -0.14210854715E-13  0.00000000000E+00 -0.37231694728E+03  0.58619111993E+03  0.45276938926E+03 0.  0.
      99925    2    3    3    0    0 -0.96521152385E+02  0.34765345750E+02 -0.17813869417E+03  0.33345081012E+03  0.26254730295E+03 0.  0.
         25    1    3    3    0    0  0.96521152385E+02 -0.34765345750E+02 -0.19417825310E+03  0.25274030981E+03  0.12509000000E+03 0.  0.
         25    1    4    4    0    0 -0.17326748703E+02  0.33505949911E+02 -0.10851424503E+03  0.16984026135E+03  0.12509000000E+03 0.  0.
         25    1    4    4    0    0 -0.79194403682E+02  0.12593958395E+01 -0.69624449145E+02  0.16361054878E+03  0.12509000000E+03 0.  0.
<mgrwt>
<rscale>  2 0.45276939E+03</rscale>
<asrwt>0</asrwt>
<pdfrwt beam="1">  1       21 0.15726042E-01 0.45276939E+03</pdfrwt>
<pdfrwt beam="2">  1       21 0.70478535E-01 0.45276939E+03</pdfrwt>
<totfact> 0.60597768E+04</totfact>
</mgrwt>
</event>
<event>
 7    0  0.4685107E-002  0.4561799E+03  0.7546771E-02  0.1025895E+00
         21   -1    0    0  502  501  0.00000000000E+00  0.00000000000E+00  0.54738823863E+03  0.54738823863E+03  0.00000000000E+00 0. -1.
         21   -1    0    0  501  502 -0.00000000000E+00 -0.00000000000E+00 -0.95042290171E+02  0.95042290171E+02  0.00000000000E+00 0. -1.
      99926    2    1    2    0    0  0.71054273576E-14  0.00000000000E+00  0.45234594846E+03  0.64243052881E+03  0.45617992859E+03 0.  0.
      99925    2    3    3    0    0  0.61089059489E+02  0.31495122131E+02  0.15573567994E+03  0.31326647336E+03  0.26297997151E+03 0.  0.
         25    1    4    4    0    0  0.56163913861E+02  0.93574106824E+01  0.44846170197E+02  0.14457051372E+03  0.12509000000E+03 0.  0.
         25    1    4    4    0    0  0.49251456271E+01  0.22137711448E+02  0.11088950975E+03  0.16869595964E+03  0.12509000000E+03 0.  0.
         25    1    3    3    0    0 -0.61089059489E+02 -0.31495122131E+02  0.29661026852E+03  0.32916405545E+03  0.12509000000E+03 0.  0.
<mgrwt>
<rscale>  2 0.45617993E+03</rscale>
<asrwt>0</asrwt>
<pdfrwt beam="1">  1       21 0.80498269E-01 0.45617993E+03</pdfrwt>
<pdfrwt beam="2">  1       21 0.13976808E-01 0.45617993E+03</pdfrwt>
<totfact> 0.55620006E+04</totfact>
</mgrwt>
</event>
<event>
 7    0  0.4685107E-002  0.4500681E+03  0.7546771E-02  0.1027702E+00
         21   -1    0    0  502  501  0.00000000000E+00  0.00000000000E+00  0.15293873848E+03  0.15293873848E+03  0.00000000000E+00 0. -1.
         21   -1    0    0  501  502 -0.00000000000E+00 -0.00000000000E+00 -0.33111504033E+03  0.33111504033E+03  0.00000000000E+00 0. -1.
      99926    2    1    2    0    0  0.00000000000E+00 -0.14210854715E-13 -0.17817630185E+03  0.48405377881E+03  0.45006806845E+03 0.  0.
      99925    2    3    3    0    0 -0.43763497604E+02  0.94897049000E+02 -0.81613650132E+02  0.29460049318E+03  0.26307407523E+03 0.  0.
         25    1    3    3    0    0  0.43763497604E+02 -0.94897049000E+02 -0.96562651721E+02  0.18945328564E+03  0.12509000000E+03 0.  0.
         25    1    4    4    0    0 -0.22166839911E+02  0.42956067080E+01 -0.37158547945E+02  0.13243144194E+03  0.12509000000E+03 0.  0.
         25    1    4    4    0    0 -0.21596657692E+02  0.90601442292E+02 -0.44455102186E+02  0.16216905124E+03  0.12509000000E+03 0.  0.
<mgrwt>
<rscale>  2 0.45006807E+03</rscale>
<asrwt>0</asrwt>
<pdfrwt beam="1">  1       21 0.22490991E-01 0.45006807E+03</pdfrwt>
<pdfrwt beam="2">  1       21 0.48693388E-01 0.45006807E+03</pdfrwt>
<totfact> 0.69071120E+04</totfact>
</mgrwt>
</event>
<event>
 7    0  0.4685107E-002  0.4709257E+03  0.7546771E-02  0.1021659E+00
         21   -1    0    0  502  501  0.00000000000E+00  0.00000000000E+00  0.49115751888E+03  0.49115751888E+03  0.00000000000E+00 0. -1.
         21   -1    0    0  501  502 -0.00000000000E+00 -0.00000000000E+00 -0.11288180942E+03  0.11288180942E+03  0.00000000000E+00 0. -1.
      99926    2    1    2    0    0  0.14210854715E-13  0.00000000000E+00  0.37827570946E+03  0.60403932829E+03  0.47092568178E+03 0.  0.
      99925    2    3    3    0    0 -0.10777354464E+03  0.65009932753E+02  0.20896908178E+03  0.35877687589E+03  0.26308048437E+03 0.  0.
         25    1    4    4    0    0 -0.18262728360E+02  0.15259227496E+02  0.68374310646E+02  0.14453001670E+03  0.12509000000E+03 0.  0.
         25    1    4    4    0    0 -0.89510816281E+02  0.49750705257E+02  0.14059477113E+03  0.21424685919E+03  0.12509000000E+03 0.  0.
         25    1    3    3    0    0  0.10777354464E+03 -0.65009932753E+02  0.16930662768E+03  0.24526245240E+03  0.12509000000E+03 0.  0.
<mgrwt>
<rscale>  2 0.47092568E+03</rscale>
<asrwt>0</asrwt>
<pdfrwt beam="1">  1       21 0.72229046E-01 0.47092568E+03</pdfrwt>
<pdfrwt beam="2">  1       21 0.16600266E-01 0.47092568E+03</pdfrwt>
<totfact> 0.51621676E+04</totfact>
</mgrwt>
</event>
<event>
 7    0  0.4685107E-002  0.4558864E+03  0.7546771E-02  0.1025981E+00
         21   -1    0    0  502  501  0.00000000000E+00  0.00000000000E+00  0.10982731466E+03  0.10982731466E+03  0.00000000000E+00 0. -1.
         21   -1    0    0  501  502 -0.00000000000E+00 -0.00000000000E+00 -0.47308908104E+03  0.47308908104E+03  0.00000000000E+00 0. -1.
      99926    2    1    2    0    0  0.00000000000E+00  0.00000000000E+00 -0.36326176638E+03  0.58291639569E+03  0.45588640411E+03 0.  0.
      99925    2    3    3    0    0 -0.53998007473E+02 -0.23728820198E+02 -0.35314013682E+03  0.44424845706E+03  0.26300169895E+03 0.  0.
         25    1    3    3    0    0  0.53998007473E+02  0.23728820198E+02 -0.10121629556E+02  0.13866793863E+03  0.12509000000E+03 0.  0.
         25    1    4    4    0    0 -0.65955378067E+02 -0.26348853174E+02 -0.18859764500E+03  0.23719391594E+03  0.12509000000E+03 0.  0.
         25    1    4    4    0    0  0.11957370594E+02  0.26200329760E+01 -0.16454249182E+03  0.20705454112E+03  0.12509000000E+03 0.  0.
<mgrwt>
<rscale>  2 0.45588640E+03</rscale>
<asrwt>0</asrwt>
<pdfrwt beam="1">  1       21 0.16151075E-01 0.45588640E+03</pdfrwt>
<pdfrwt beam="2">  1       21 0.69571925E-01 0.45588640E+03</pdfrwt>
<totfact> 0.59325528E+04</totfact>
</mgrwt>
</event>
<event>
 7    0  0.4685107E-002  0.4576910E+03  0.7546771E-02  0.1025453E+00
         21   -1    0    0  502  501  0.00000000000E+00  0.00000000000E+00  0.30234576107E+03  0.30234576107E+03  0.00000000000E+00 0.  1.
         21   -1    0    0  501  502 -0.00000000000E+00 -0.00000000000E+00 -0.17321316837E+03  0.17321316837E+03  0.00000000000E+00 0.  1.
      99926    2    1    2    0    0  0.00000000000E+00  0.17763568394E-14  0.12913259270E+03  0.47555892944E+03  0.45769101900E+03 0.  0.
      99925    2    3    3    0    0 -0.18250759890E+02  0.96092366525E+01 -0.37220956401E+02  0.26640243525E+03  0.26298180592E+03 0.  0.
         25    1    3    3    0    0  0.18250759890E+02 -0.96092366525E+01  0.16635354910E+03  0.20915649419E+03  0.12509000000E+03 0.  0.
         25    1    4    4    0    0 -0.47898888625E+02 -0.70978351610E+01 -0.20477378666E+02  0.13568903394E+03  0.12509000000E+03 0.  0.
         25    1    4    4    0    0  0.29648128736E+02  0.16707071814E+02 -0.16743577736E+02  0.13071340131E+03  0.12509000000E+03 0.  0.
<mgrwt>
<rscale>  2 0.45769102E+03</rscale>
<asrwt>0</asrwt>
<pdfrwt beam="1">  1       21 0.44462612E-01 0.45769102E+03</pdfrwt>
<pdfrwt beam="2">  1       21 0.25472525E-01 0.45769102E+03</pdfrwt>
<totfact> 0.65612505E+04</totfact>
</mgrwt>
</event>
<event>
 7    0  0.4685107E-002  0.4510098E+03  0.7546771E-02  0.1027421E+00
         21   -1    0    0  502  501  0.00000000000E+00  0.00000000000E+00  0.65182663828E+02  0.65182663828E+02  0.00000000000E+00 0. -1.
         21   -1    0    0  501  502 -0.00000000000E+00 -0.00000000000E+00 -0.78015301909E+03  0.78015301909E+03  0.00000000000E+00 0. -1.
      99926    2    1    2    0    0  0.00000000000E+00  0.00000000000E+00 -0.71497035526E+03  0.84533568292E+03  0.45100976476E+03 0.  0.
      99925    2    3    3    0    0  0.44672633341E+02  0.87209861750E+02 -0.36057132211E+03  0.45694491713E+03  0.26303188932E+03 0.  0.
         25    1    3    3    0    0 -0.44672633341E+02 -0.87209861750E+02 -0.35439903315E+03  0.38839076580E+03  0.12509000000E+03 0.  0.
         25    1    4    4    0    0  0.21611048829E+02  0.84931201617E+02 -0.21311010098E+03  0.26219033101E+03  0.12509000000E+03 0.  0.
         25    1    4    4    0    0  0.23061584511E+02  0.22786601335E+01 -0.14746122114E+03  0.19475458611E+03  0.12509000000E+03 0.  0.
<mgrwt>
<rscale>  2 0.45100976E+03</rscale>
<asrwt>0</asrwt>
<pdfrwt beam="1">  1       21 0.95856860E-02 0.45100976E+03</pdfrwt>
<pdfrwt beam="2">  1       21 0.11472838E+00 0.45100976E+03</pdfrwt>
<totfact> 0.47106092E+04</totfact>
</mgrwt>
</event>
<event>
 7    0  0.4685107E-002  0.4573134E+03  0.7546771E-02  0.1025563E+00
         21   -1    0    0  502  501  0.00000000000E+00  0.00000000000E+00  0.22621218750E+03  0.22621218750E+03  0.00000000000E+00 0.  1.
         21   -1    0    0  501  502 -0.00000000000E+00 -0.00000000000E+00 -0.23112759114E+03  0.23112759114E+03  0.00000000000E+00 0.  1.
      99926    2    1    2    0    0  0.00000000000E+00 -0.17763568394E-14 -0.49154036398E+01  0.45733977864E+03  0.45731336295E+03 0.  0.
      99925    2    3    3    0    0  0.62753031917E+02  0.15527503248E+02  0.91925341547E+02  0.28644599759E+03  0.26348053959E+03 0.  0.
         25    1    4    4    0    0  0.76688393682E+01 -0.24769888497E+02  0.56031548785E+02  0.13949695707E+03  0.12509000000E+03 0.  0.
         25    1    4    4    0    0  0.55084192548E+02  0.40297391744E+02  0.35893792762E+02  0.14694904052E+03  0.12509000000E+03 0.  0.
         25    1    3    3    0    0 -0.62753031917E+02 -0.15527503248E+02 -0.96840745187E+02  0.17089378105E+03  0.12509000000E+03 0.  0.
<mgrwt>
<rscale>  2 0.45731336E+03</rscale>
<asrwt>0</asrwt>
<pdfrwt beam="1">  1       21 0.33266498E-01 0.45731336E+03</pdfrwt>
<pdfrwt beam="2">  1       21 0.33989352E-01 0.45731336E+03</pdfrwt>
<totfact> 0.67127090E+04</totfact>
</mgrwt>
</event>
<event>
 7    0  0.4685107E-002  0.4501350E+03  0.7546771E-02  0.1027682E+00
         21   -1    0    0  502  501  0.00000000000E+00  0.00000000000E+00  0.13491921275E+04  0.13491921275E+04  0.00000000000E+00 0. -1.
         21   -1    0    0  501  502 -0.00000000000E+00 -0.00000000000E+00 -0.37544965959E+02  0.37544965959E+02  0.00000000000E+00 0. -1.
      99926    2    1    2    0    0  0.00000000000E+00 -0.17763568394E-14  0.13116471615E+04  0.13867370934E+04  0.45013496864E+03 0.  0.
      99925    2    3    3    0    0  0.16399651287E+02  0.46500108145E+01  0.11592909790E+04  0.11888722769E+04  0.26300407924E+03 0.  0.
         25    1    4    4    0    0 -0.10199152021E+02  0.37581191368E+02  0.54124996093E+03  0.55688005617E+03  0.12509000000E+03 0.  0.
         25    1    3    3    0    0 -0.16399651287E+02 -0.46500108145E+01  0.15235618255E+03  0.19786481654E+03  0.12509000000E+03 0.  0.
         25    1    4    4    0    0  0.26598803308E+02 -0.32931180554E+02  0.61804101802E+03  0.63199222072E+03  0.12509000000E+03 0.  0.
<mgrwt>
<rscale>  2 0.45013497E+03</rscale>
<asrwt>0</asrwt>
<pdfrwt beam="1">  1       21 0.19841057E+00 0.45013497E+03</pdfrwt>
<pdfrwt beam="2">  1       21 0.55213194E-02 0.45013497E+03</pdfrwt>
<totfact> 0.27720995E+04</totfact>
</mgrwt>
</event>
<event>
 7    0  0.4685107E-002  0.4648915E+03  0.7546771E-02  0.1023372E+00
         21   -1    0    0  502  501  0.00000000000E+00  0.00000000000E+00  0.60728091827E+03  0.60728091827E+03  0.00000000000E+00 0.  1.
         21   -1    0    0  501  502 -0.00000000000E+00 -0.00000000000E+00 -0.88972034248E+02  0.88972034248E+02  0.00000000000E+00 0.  1.
      99926    2    1    2    0    0  0.00000000000E+00  0.00000000000E+00  0.51830888403E+03  0.69625295252E+03  0.46489146543E+03 0.  0.
      99925    2    3    3    0    0 -0.10378097263E+03 -0.64386127003E+02  0.31630893584E+03  0.42910589415E+03  0.26299137223E+03 0.  0.
         25    1    4    4    0    0 -0.54152120863E+02 -0.10461295037E+01  0.19080388577E+03  0.23449344875E+03  0.12509000000E+03 0.  0.
         25    1    3    3    0    0  0.10378097263E+03  0.64386127003E+02  0.20199994818E+03  0.26714705837E+03  0.12509000000E+03 0.  0.
         25    1    4    4    0    0 -0.49628851770E+02 -0.63339997499E+02  0.12550505008E+03  0.19461244540E+03  0.12509000000E+03 0.  0.
<mgrwt>
<rscale>  2 0.46489147E+03</rscale>
<asrwt>0</asrwt>
<pdfrwt beam="1">  1       21 0.89306016E-01 0.46489147E+03</pdfrwt>
<pdfrwt beam="2">  1       21 0.13084123E-01 0.46489147E+03</pdfrwt>
<totfact> 0.49165009E+04</totfact>
</mgrwt>
</event>
<event>
 7    0  0.4685107E-002  0.4536326E+03  0.7546771E-02  0.1026644E+00
         21   -1    0    0  502  501  0.00000000000E+00  0.00000000000E+00  0.12891614260E+03  0.12891614260E+03  0.00000000000E+00 0. -1.
         21   -1    0    0  501  502 -0.00000000000E+00 -0.00000000000E+00 -0.39906278792E+03  0.39906278792E+03  0.00000000000E+00 0. -1.
      99926    2    1    2    0    0  0.00000000000E+00  0.00000000000E+00 -0.27014664532E+03  0.52797893051E+03  0.45363260585E+03 0.  0.
      99925    2    3    3    0    0  0.52853906212E+02  0.52702998676E+02 -0.26719613207E+03  0.38228282521E+03  0.26301187044E+03 0.  0.
         25    1    4    4    0    0  0.35394549288E+02  0.12416061328E+02 -0.80863235467E+02  0.15360111864E+03  0.12509000000E+03 0.  0.
         25    1    3    3    0    0 -0.52853906212E+02 -0.52702998676E+02 -0.29505132505E+01  0.14569610530E+03  0.12509000000E+03 0.  0.
         25    1    4    4    0    0  0.17459356924E+02  0.40286937348E+02 -0.18633289660E+03  0.22868170657E+03  0.12509000000E+03 0.  0.
<mgrwt>
<rscale>  2 0.45363261E+03</rscale>
<asrwt>0</asrwt>
<pdfrwt beam="1">  1       21 0.18958257E-01 0.45363261E+03</pdfrwt>
<pdfrwt beam="2">  1       21 0.58685703E-01 0.45363261E+03</pdfrwt>
<totfact> 0.64034783E+04</totfact>
</mgrwt>
</event>
<event>
 7    0  0.4685107E-002  0.4533106E+03  0.7546771E-02  0.1026739E+00
         21   -1    0    0  502  501  0.00000000000E+00  0.00000000000E+00  0.50884550820E+03  0.50884550820E+03  0.00000000000E+00 0.  1.
         21   -1    0    0  501  502 -0.00000000000E+00 -0.00000000000E+00 -0.10095919031E+03  0.10095919031E+03  0.00000000000E+00 0.  1.
      99926    2    1    2    0    0  0.00000000000E+00  0.00000000000E+00  0.40788631788E+03  0.60980469851E+03  0.45331062419E+03 0.  0.
      99925    2    3    3    0    0 -0.29140178827E+02 -0.45273943093E+02  0.12473495472E+03  0.29560558567E+03  0.26253566121E+03 0.  0.
         25    1    4    4    0    0 -0.53147813809E+02 -0.13969202203E+02  0.57820589413E+02  0.14835955440E+03  0.12509000000E+03 0.  0.
         25    1    4    4    0    0  0.24007634982E+02 -0.31304740890E+02  0.66914365302E+02  0.14724603127E+03  0.12509000000E+03 0.  0.
         25    1    3    3    0    0  0.29140178827E+02  0.45273943093E+02  0.28315136317E+03  0.31419911284E+03  0.12509000000E+03 0.  0.
<mgrwt>
<rscale>  2 0.45331062E+03</rscale>
<asrwt>0</asrwt>
<pdfrwt beam="1">  1       21 0.74830221E-01 0.45331062E+03</pdfrwt>
<pdfrwt beam="2">  1       21 0.14846940E-01 0.45331062E+03</pdfrwt>
<totfact> 0.58860309E+04</totfact>
</mgrwt>
</event>
<event>
 7    0  0.4685107E-002  0.4560846E+03  0.7546771E-02  0.1025923E+00
         21   -1    0    0  502  501  0.00000000000E+00  0.00000000000E+00  0.38383776837E+03  0.38383776837E+03  0.00000000000E+00 0. -1.
         21   -1    0    0  501  502 -0.00000000000E+00 -0.00000000000E+00 -0.13548245885E+03  0.13548245885E+03  0.00000000000E+00 0. -1.
      99926    2    1    2    0    0  0.00000000000E+00  0.00000000000E+00  0.24835530951E+03  0.51932022722E+03  0.45608457399E+03 0.  0.
      99925    2    3    3    0    0 -0.40741472725E+02  0.96547363988E+02  0.20700820641E+03  0.35098023753E+03  0.26335046710E+03 0.  0.
         25    1    3    3    0    0  0.40741472725E+02 -0.96547363988E+02  0.41347103105E+02  0.16833998969E+03  0.12509000000E+03 0.  0.
         25    1    4    4    0    0 -0.52971704104E+02  0.37971632529E+02  0.13269074260E+03  0.19365481555E+03  0.12509000000E+03 0.  0.
         25    1    4    4    0    0  0.12230231378E+02  0.58575731458E+02  0.74317463807E+02  0.15732542198E+03  0.12509000000E+03 0.  0.
<mgrwt>
<rscale>  2 0.45608457E+03</rscale>
<asrwt>0</asrwt>
<pdfrwt beam="1">  1       21 0.56446730E-01 0.45608457E+03</pdfrwt>
<pdfrwt beam="2">  1       21 0.19923891E-01 0.45608457E+03</pdfrwt>
<totfact> 0.63386401E+04</totfact>
</mgrwt>
</event>
<event>
 7    0  0.4685107E-002  0.4321634E+03  0.7546771E-02  0.1033179E+00
         21   -1    0    0  502  501  0.00000000000E+00  0.00000000000E+00  0.24380666970E+03  0.24380666970E+03  0.00000000000E+00 0. -1.
         21   -1    0    0  501  502 -0.00000000000E+00 -0.00000000000E+00 -0.19150949848E+03  0.19150949848E+03  0.00000000000E+00 0. -1.
      99926    2    1    2    0    0 -0.14210854715E-13  0.35527136788E-14  0.52297171224E+02  0.43531616818E+03  0.43216336281E+03 0.  0.
      99925    2    3    3    0    0  0.84577861325E+02 -0.22933340433E+02  0.54364978274E+02  0.28257083549E+03  0.26308054561E+03 0.  0.
         25    1    4    4    0    0  0.42313063379E+02 -0.51912424065E+02  0.22192189078E+02  0.14361509830E+03  0.12509000000E+03 0.  0.
         25    1    4    4    0    0  0.42264797946E+02  0.28979083632E+02  0.32172789196E+02  0.13895573719E+03  0.12509000000E+03 0.  0.
         25    1    3    3    0    0 -0.84577861325E+02  0.22933340433E+02 -0.20678070499E+01  0.15274533268E+03  0.12509000000E+03 0.  0.
<mgrwt>
<rscale>  2 0.43216336E+03</rscale>
<asrwt>0</asrwt>
<pdfrwt beam="1">  1       21 0.35853922E-01 0.43216336E+03</pdfrwt>
<pdfrwt beam="2">  1       21 0.28163162E-01 0.43216336E+03</pdfrwt>
<totfact> 0.84367724E+04</totfact>
</mgrwt>
</event>
<event>
 7    0  0.4685107E-002  0.4610171E+03  0.7546771E-02  0.1024487E+00
         21   -1    0    0  502  501  0.00000000000E+00  0.00000000000E+00  0.77680863870E+02  0.77680863870E+02  0.00000000000E+00 0.  1.
         21   -1    0    0  501  502 -0.00000000000E+00 -0.00000000000E+00 -0.68400621764E+03  0.68400621764E+03  0.00000000000E+00 0.  1.
      99926    2    1    2    0    0  0.00000000000E+00  0.00000000000E+00 -0.60632535377E+03  0.76168708151E+03  0.46101710978E+03 0.  0.
      99925    2    3    3    0    0  0.45656214377E+02  0.10370410152E+03 -0.43855255402E+03  0.52370756344E+03  0.26287304690E+03 0.  0.
         25    1    4    4    0    0  0.27604620636E+02  0.31023150404E+02 -0.27271756509E+03  0.30289739079E+03  0.12509000000E+03 0.  0.
         25    1    3    3    0    0 -0.45656214377E+02 -0.10370410152E+03 -0.16777279975E+03  0.23797951807E+03  0.12509000000E+03 0.  0.
         25    1    4    4    0    0  0.18051593741E+02  0.72680951116E+02 -0.16583498893E+03  0.22081017265E+03  0.12509000000E+03 0.  0.
<mgrwt>
<rscale>  2 0.46101711E+03</rscale>
<asrwt>0</asrwt>
<pdfrwt beam="1">  1       21 0.11423657E-01 0.46101711E+03</pdfrwt>
<pdfrwt beam="2">  1       21 0.10058915E+00 0.46101711E+03</pdfrwt>
<totfact> 0.47394507E+04</totfact>
</mgrwt>
</event>
<event>
 7    0  0.4685107E-002  0.4439595E+03  0.7546771E-02  0.1029539E+00
         21   -1    0    0  502  501  0.00000000000E+00  0.00000000000E+00  0.65760272324E+03  0.65760272324E+03  0.00000000000E+00 0.  1.
         21   -1    0    0  501  502 -0.00000000000E+00 -0.00000000000E+00 -0.74931278163E+02  0.74931278163E+02  0.00000000000E+00 0.  1.
      99926    2    1    2    0    0  0.00000000000E+00  0.00000000000E+00  0.58267144508E+03  0.73253400141E+03  0.44395951426E+03 0.  0.
      99925    2    3    3    0    0  0.53981562618E+02  0.71910925265E+02  0.45149102504E+03  0.53019517424E+03  0.26301632426E+03 0.  0.
         25    1    4    4    0    0  0.10213111125E+02  0.65531625528E+02  0.27595539824E+03  0.31015736570E+03  0.12509000000E+03 0.  0.
         25    1    3    3    0    0 -0.53981562618E+02 -0.71910925265E+02  0.13118042004E+03  0.20233882716E+03  0.12509000000E+03 0.  0.
         25    1    4    4    0    0  0.43768451493E+02  0.63792997374E+01  0.17553562680E+03  0.22003780854E+03  0.12509000000E+03 0.  0.
<mgrwt>
<rscale>  2 0.44395951E+03</rscale>
<asrwt>0</asrwt>
<pdfrwt beam="1">  1       21 0.96706280E-01 0.44395951E+03</pdfrwt>
<pdfrwt beam="2">  1       21 0.11019306E-01 0.44395951E+03</pdfrwt>
<totfact> 0.55866023E+04</totfact>
</mgrwt>
</event>
<event>
 7    0  0.4685107E-002  0.5031639E+03  0.7546771E-02  0.1012956E+00
         21   -1    0    0  502  501  0.00000000000E+00  0.00000000000E+00  0.23050311766E+03  0.23050311766E+03  0.00000000000E+00 0.  1.
         21   -1    0    0  501  502 -0.00000000000E+00 -0.00000000000E+00 -0.27458840186E+03  0.27458840186E+03  0.00000000000E+00 0.  1.
      99926    2    1    2    0    0  0.00000000000E+00  0.00000000000E+00 -0.44085284191E+02  0.50509151952E+03  0.50316392042E+03 0.  0.
      99925    2    3    3    0    0 -0.30529993811E+02 -0.29985374633E+02  0.12198108823E+03  0.29282576307E+03  0.26274767062E+03 0.  0.
         25    1    4    4    0    0 -0.95862317897E+01 -0.18294133259E+02  0.10442662492E+03  0.16425285155E+03  0.12509000000E+03 0.  0.
         25    1    4    4    0    0 -0.20943762022E+02 -0.11691241374E+02  0.17554463309E+02  0.12857291151E+03  0.12509000000E+03 0.  0.
         25    1    3    3    0    0  0.30529993811E+02  0.29985374633E+02 -0.16606637242E+03  0.21226575645E+03  0.12509000000E+03 0.  0.
<mgrwt>
<rscale>  2 0.50316392E+03</rscale>
<asrwt>0</asrwt>
<pdfrwt beam="1">  1       21 0.33897517E-01 0.50316392E+03</pdfrwt>
<pdfrwt beam="2">  1       21 0.40380647E-01 0.50316392E+03</pdfrwt>
<totfact> 0.45053472E+04</totfact>
</mgrwt>
</event>
<event>
 7    0  0.4685107E-002  0.4567169E+03  0.7546771E-02  0.1025738E+00
         21   -1    0    0  502  501  0.00000000000E+00  0.00000000000E+00  0.78771473727E+02  0.78771473727E+02  0.00000000000E+00 0. -1.
         21   -1    0    0  501  502 -0.00000000000E+00 -0.00000000000E+00 -0.66201100584E+03  0.66201100584E+03  0.00000000000E+00 0. -1.
      99926    2    1    2    0    0 -0.17763568394E-14  0.00000000000E+00 -0.58323953211E+03  0.74078247956E+03  0.45671690380E+03 0.  0.
      99925    2    3    3    0    0 -0.12743212725E+02 -0.46514692703E+02 -0.53532607962E+03  0.59841249278E+03  0.26305416530E+03 0.  0.
         25    1    4    4    0    0  0.18350808300E+02 -0.14208521449E+02 -0.19259701638E+03  0.23082407384E+03  0.12509000000E+03 0.  0.
         25    1    4    4    0    0 -0.31094021026E+02 -0.32306171254E+02 -0.34272906324E+03  0.36758841894E+03  0.12509000000E+03 0.  0.
         25    1    3    3    0    0  0.12743212725E+02  0.46514692703E+02 -0.47913452485E+02  0.14236998678E+03  0.12509000000E+03 0.  0.
<mgrwt>
<rscale>  2 0.45671690E+03</rscale>
<asrwt>0</asrwt>
<pdfrwt beam="1">  1       21 0.11584040E-01 0.45671690E+03</pdfrwt>
<pdfrwt beam="2">  1       21 0.97354559E-01 0.45671690E+03</pdfrwt>
<totfact> 0.50064871E+04</totfact>
</mgrwt>
</event>
<event>
 7    0  0.4685107E-002  0.4530727E+03  0.7546771E-02  0.1026810E+00
         21   -1    0    0  502  501  0.00000000000E+00  0.00000000000E+00  0.35241722408E+03  0.35241722408E+03  0.00000000000E+00 0. -1.
         21   -1    0    0  501  502 -0.00000000000E+00 -0.00000000000E+00 -0.14561922711E+03  0.14561922711E+03  0.00000000000E+00 0. -1.
      99926    2    1    2    0    0  0.00000000000E+00  0.14210854715E-13  0.20679799697E+03  0.49803645119E+03  0.45307272613E+03 0.  0.
      99925    2    3    3    0    0 -0.49748389538E+02 -0.67616129124E+02  0.49834649542E+02  0.28047762302E+03  0.26293984396E+03 0.  0.
         25    1    4    4    0    0 -0.27310931320E+02 -0.64612436553E+02  0.54109101858E+02  0.15328390956E+03  0.12509000000E+03 0.  0.
         25    1    4    4    0    0 -0.22437458218E+02 -0.30036925707E+01 -0.42744523167E+01  0.12719371346E+03  0.12509000000E+03 0.  0.
         25    1    3    3    0    0  0.49748389538E+02  0.67616129124E+02  0.15696334742E+03  0.21755882817E+03  0.12509000000E+03 0.  0.
<mgrwt>
<rscale>  2 0.45307273E+03</rscale>
<asrwt>0</asrwt>
<pdfrwt beam="1">  1       21 0.51826062E-01 0.45307273E+03</pdfrwt>
<pdfrwt beam="2">  1       21 0.21414592E-01 0.45307273E+03</pdfrwt>
<totfact> 0.66419171E+04</totfact>
</mgrwt>
</event>
<event>
 7    0  0.4685107E-002  0.4641527E+03  0.7546771E-02  0.1023584E+00
         21   -1    0    0  502  501  0.00000000000E+00  0.00000000000E+00  0.93836980122E+03  0.93836980122E+03  0.00000000000E+00 0. -1.
         21   -1    0    0  501  502 -0.00000000000E+00 -0.00000000000E+00 -0.57396810519E+02  0.57396810519E+02  0.00000000000E+00 0. -1.
      99926    2    1    2    0    0  0.00000000000E+00  0.00000000000E+00  0.88097299070E+03  0.99576661174E+03  0.46415270624E+03 0.  0.
      99925    2    3    3    0    0 -0.75806070125E+02  0.51313715378E+02  0.72152260545E+03  0.77338947463E+03  0.26297671311E+03 0.  0.
         25    1    4    4    0    0 -0.38876434363E+02 -0.34047035026E+01  0.42720521421E+03  0.44684983193E+03  0.12509000000E+03 0.  0.
         25    1    3    3    0    0  0.75806070125E+02 -0.51313715378E+02  0.15945038526E+03  0.22237713712E+03  0.12509000000E+03 0.  0.
         25    1    4    4    0    0 -0.36929635761E+02  0.54718418880E+02  0.29431739124E+03  0.32653964269E+03  0.12509000000E+03 0.  0.
<mgrwt>
<rscale>  2 0.46415271E+03</rscale>
<asrwt>0</asrwt>
<pdfrwt beam="1">  1       21 0.13799555E+00 0.46415271E+03</pdfrwt>
<pdfrwt beam="2">  1       21 0.84407080E-02 0.46415271E+03</pdfrwt>
<totfact> 0.36641564E+04</totfact>
</mgrwt>
</event>
<event>
 7    0  0.4685107E-002  0.4680123E+03  0.7546771E-02  0.1022483E+00
         21   -1    0    0  502  501  0.00000000000E+00  0.00000000000E+00  0.14117304959E+03  0.14117304959E+03  0.00000000000E+00 0.  1.
         21   -1    0    0  501  502 -0.00000000000E+00 -0.00000000000E+00 -0.38788475334E+03  0.38788475334E+03  0.00000000000E+00 0.  1.
      99926    2    1    2    0    0  0.00000000000E+00  0.71054273576E-14 -0.24671170375E+03  0.52905780293E+03  0.46801227983E+03 0.  0.
      99925    2    3    3    0    0  0.40200178675E+02 -0.34146774833E+02 -0.28165519793E+03  0.38887716061E+03  0.26289491993E+03 0.  0.
         25    1    4    4    0    0  0.32059535654E+01 -0.35507673981E+02 -0.18662692725E+03  0.22748228750E+03  0.12509000000E+03 0.  0.
         25    1    3    3    0    0 -0.40200178675E+02  0.34146774833E+02  0.34943494174E+02  0.14018064232E+03  0.12509000000E+03 0.  0.
         25    1    4    4    0    0  0.36994225109E+02  0.13608991482E+01 -0.95028270676E+02  0.16139487311E+03  0.12509000000E+03 0.  0.
<mgrwt>
<rscale>  2 0.46801228E+03</rscale>
<asrwt>0</asrwt>
<pdfrwt beam="1">  1       21 0.20760743E-01 0.46801228E+03</pdfrwt>
<pdfrwt beam="2">  1       21 0.57041875E-01 0.46801228E+03</pdfrwt>
<totfact> 0.57143359E+04</totfact>
</mgrwt>
</event>
<event>
 7    0  0.4685107E-002  0.4538570E+03  0.7546771E-02  0.1026578E+00
         21   -1    0    0  502  501  0.00000000000E+00  0.00000000000E+00  0.46336910609E+03  0.46336910609E+03  0.00000000000E+00 0.  1.
         21   -1    0    0  501  502 -0.00000000000E+00 -0.00000000000E+00 -0.11113502054E+03  0.11113502054E+03  0.00000000000E+00 0.  1.
      99926    2    1    2    0    0  0.14210854715E-13 -0.17763568394E-14  0.35223408555E+03  0.57450412662E+03  0.45385696038E+03 0.  0.
      99925    2    3    3    0    0 -0.99066791329E+02  0.11214942305E+02  0.15683776235E+03  0.32198237450E+03  0.26293451983E+03 0.  0.
         25    1    3    3    0    0  0.99066791329E+02 -0.11214942305E+02  0.19539632320E+03  0.25252175212E+03  0.12509000000E+03 0.  0.
         25    1    4    4    0    0 -0.92149596697E+02  0.11986140467E+02  0.90969017432E+02  0.18043859334E+03  0.12509000000E+03 0.  0.
         25    1    4    4    0    0 -0.69171946323E+01 -0.77119816199E+00  0.65868744919E+02  0.14154378116E+03  0.12509000000E+03 0.  0.
<mgrwt>
<rscale>  2 0.45385696E+03</rscale>
<asrwt>0</asrwt>
<pdfrwt beam="1">  1       21 0.68142515E-01 0.45385696E+03</pdfrwt>
<pdfrwt beam="2">  1       21 0.16343386E-01 0.45385696E+03</pdfrwt>
<totfact> 0.60823560E+04</totfact>
</mgrwt>
</event>
<event>
 6    0  0.4685107E-002  0.4472153E+03  0.7546771E-02  0.1028556E+00
         21   -1    0    0  502  501  0.00000000000E+00  0.00000000000E+00  0.96026024193E+02  0.96026024193E+02  0.00000000000E+00 0. -1.
         21   -1    0    0  501  502 -0.00000000000E+00 -0.00000000000E+00 -0.52069605440E+03  0.52069605440E+03  0.00000000000E+00 0. -1.
      99926    2    1    2    0    0  0.00000000000E+00  0.00000000000E+00 -0.42467003021E+03  0.61672207859E+03  0.44721525876E+03 0.  0.
         25    1    3    3    0    0  0.79559168678E+02  0.12977842075E+02 -0.18753179560E+03  0.23940294101E+03  0.12509000000E+03 0.  0.
         25    1    3    3    0    0 -0.68444546877E+02 -0.81569037396E+00 -0.48972958418E+02  0.15076863104E+03  0.12509000000E+03 0.  0.
         25    1    3    3    0    0 -0.11114621801E+02 -0.12162151701E+02 -0.18816527619E+03  0.22655050654E+03  0.12509000000E+03 0.  0.
<mgrwt>
<rscale>  2 0.44721526E+03</rscale>
<asrwt>0</asrwt>
<pdfrwt beam="1">  1       21 0.14121474E-01 0.44721526E+03</pdfrwt>
<pdfrwt beam="2">  1       21 0.76572950E-01 0.44721526E+03</pdfrwt>
<totfact> 0.61345791E+04</totfact>
</mgrwt>
</event>
<event>
 7    0  0.4685107E-002  0.4530792E+03  0.7546771E-02  0.1026808E+00
         21   -1    0    0  502  501  0.00000000000E+00  0.00000000000E+00  0.23481112239E+03  0.23481112239E+03  0.00000000000E+00 0.  1.
         21   -1    0    0  501  502 -0.00000000000E+00 -0.00000000000E+00 -0.21855941499E+03  0.21855941499E+03  0.00000000000E+00 0.  1.
      99926    2    1    2    0    0  0.00000000000E+00  0.00000000000E+00  0.16251707398E+02  0.45337053738E+03  0.45307916104E+03 0.  0.
      99925    2    3    3    0    0 -0.91538433738E+02 -0.58629110506E+02  0.34578647215E+02  0.28663709060E+03  0.26296098839E+03 0.  0.
         25    1    4    4    0    0 -0.41126010713E+02 -0.15470037272E+02  0.55057571950E+02  0.14356014468E+03  0.12509000000E+03 0.  0.
         25    1    4    4    0    0 -0.50412423025E+02 -0.43159073234E+02 -0.20478924735E+02  0.14307694593E+03  0.12509000000E+03 0.  0.
         25    1    3    3    0    0  0.91538433738E+02  0.58629110506E+02 -0.18326939817E+02  0.16673344677E+03  0.12509000000E+03 0.  0.
<mgrwt>
<rscale>  2 0.45307916E+03</rscale>
<asrwt>0</asrwt>
<pdfrwt beam="1">  1       21 0.34531048E-01 0.45307916E+03</pdfrwt>
<pdfrwt beam="2">  1       21 0.32141090E-01 0.45307916E+03</pdfrwt>
<totfact> 0.69727897E+04</totfact>
</mgrwt>
</event>
<event>
 7    0  0.4685107E-002  0.4593237E+03  0.7546771E-02  0.1024978E+00
         21   -1    0    0  502  501  0.00000000000E+00  0.00000000000E+00  0.95844066476E+02  0.95844066476E+02  0.00000000000E+00 0.  1.
         21   -1    0    0  501  502 -0.00000000000E+00 -0.00000000000E+00 -0.55031640833E+03  0.55031640833E+03  0.00000000000E+00 0.  1.
      99926    2    1    2    0    0  0.71054273576E-14  0.00000000000E+00 -0.45447234185E+03  0.64616047480E+03  0.45932368727E+03 0.  0.
      99925    2    3    3    0    0 -0.40205425327E+02 -0.10710369094E+03 -0.31971431029E+03  0.42960814392E+03  0.26316960364E+03 0.  0.
         25    1    4    4    0    0 -0.52741190853E+02 -0.54241134383E+02 -0.12782197983E+03  0.19418985684E+03  0.12509000000E+03 0.  0.
         25    1    3    3    0    0  0.40205425327E+02  0.10710369094E+03 -0.13475803156E+03  0.21655233088E+03  0.12509000000E+03 0.  0.
         25    1    4    4    0    0  0.12535765526E+02 -0.52862556561E+02 -0.19189233046E+03  0.23541828708E+03  0.12509000000E+03 0.  0.
<mgrwt>
<rscale>  2 0.45932369E+03</rscale>
<asrwt>0</asrwt>
<pdfrwt beam="1">  1       21 0.14094715E-01 0.45932369E+03</pdfrwt>
<pdfrwt beam="2">  1       21 0.80928885E-01 0.45932369E+03</pdfrwt>
<totfact> 0.54055392E+04</totfact>
</mgrwt>
</event>
<event>
 7    0  0.4685107E-002  0.4550665E+03  0.7546771E-02  0.1026222E+00
         21   -1    0    0  502  501  0.00000000000E+00  0.00000000000E+00  0.54098185096E+02  0.54098185096E+02  0.00000000000E+00 0. -1.
         21   -1    0    0  501  502 -0.00000000000E+00 -0.00000000000E+00 -0.95698920138E+03  0.95698920138E+03  0.00000000000E+00 0. -1.
      99926    2    1    2    0    0  0.00000000000E+00  0.00000000000E+00 -0.90289101629E+03  0.10110873865E+04  0.45506649603E+03 0.  0.
      99925    2    3    3    0    0  0.10899854010E+03  0.30943018487E+02 -0.56022909718E+03  0.62911506937E+03  0.26285162551E+03 0.  0.
         25    1    4    4    0    0  0.87995440868E+02  0.40212246675E+02 -0.33530035770E+03  0.37072100071E+03  0.12509000000E+03 0.  0.
         25    1    4    4    0    0  0.21003099235E+02 -0.92692281878E+01 -0.22492873948E+03  0.25839406865E+03  0.12509000000E+03 0.  0.
         25    1    3    3    0    0 -0.10899854010E+03 -0.30943018487E+02 -0.34266191910E+03  0.38197231711E+03  0.12509000000E+03 0.  0.
<mgrwt>
<rscale>  2 0.45506650E+03</rscale>
<asrwt>0</asrwt>
<pdfrwt beam="1">  1       21 0.79556160E-02 0.45506650E+03</pdfrwt>
<pdfrwt beam="2">  1       21 0.14073370E+00 0.45506650E+03</pdfrwt>
<totfact> 0.38718175E+04</totfact>
</mgrwt>
</event>
<event>
 7    0  0.4685107E-002  0.4525000E+03  0.7546771E-02  0.1026979E+00
         21   -1    0    0  502  501  0.00000000000E+00  0.00000000000E+00  0.18108936220E+03  0.18108936220E+03  0.00000000000E+00 0.  1.
         21   -1    0    0  501  502 -0.00000000000E+00 -0.00000000000E+00 -0.28267290470E+03  0.28267290470E+03  0.00000000000E+00 0.  1.
      99926    2    1    2    0    0  0.00000000000E+00 -0.14210854715E-13 -0.10158354251E+03  0.46376226690E+03  0.45249997137E+03 0.  0.
      99925    2    3    3    0    0 -0.78704746186E+02  0.76328569736E+02 -0.47880617205E+02  0.28897096301E+03  0.26304215694E+03 0.  0.
         25    1    4    4    0    0 -0.37016328785E+02  0.74686665973E+02 -0.45614112430E+02  0.15708743433E+03  0.12509000000E+03 0.  0.
         25    1    3    3    0    0  0.78704746186E+02 -0.76328569736E+02 -0.53702925302E+02  0.17479130389E+03  0.12509000000E+03 0.  0.
         25    1    4    4    0    0 -0.41688417401E+02  0.16419037633E+01 -0.22665047754E+01  0.13188352868E+03  0.12509000000E+03 0.  0.
<mgrwt>
<rscale>  2 0.45249997E+03</rscale>
<asrwt>0</asrwt>
<pdfrwt beam="1">  1       21 0.26630789E-01 0.45249997E+03</pdfrwt>
<pdfrwt beam="2">  1       21 0.41569545E-01 0.45249997E+03</pdfrwt>
<totfact> 0.69266290E+04</totfact>
</mgrwt>
</event>
<event>
 7    0  0.4685107E-002  0.4469302E+03  0.7546771E-02  0.1028641E+00
         21   -1    0    0  502  501  0.00000000000E+00  0.00000000000E+00  0.68557587136E+02  0.68557587136E+02  0.00000000000E+00 0.  1.
         21   -1    0    0  501  502 -0.00000000000E+00 -0.00000000000E+00 -0.72838973012E+03  0.72838973012E+03  0.00000000000E+00 0.  1.
      99926    2    1    2    0    0  0.00000000000E+00 -0.17763568394E-14 -0.65983214298E+03  0.79694731725E+03  0.44693016184E+03 0.  0.
      99925    2    3    3    0    0  0.10282591824E+03 -0.13557625431E+02 -0.38551070988E+03  0.47811078323E+03  0.26308636403E+03 0.  0.
         25    1    3    3    0    0 -0.10282591824E+03  0.13557625431E+02 -0.27432143310E+03  0.31883653403E+03  0.12509000000E+03 0.  0.
         25    1    4    4    0    0  0.23924840028E+02 -0.17003383370E+02 -0.23013111098E+03  0.26357038786E+03  0.12509000000E+03 0.  0.
         25    1    4    4    0    0  0.78901078212E+02  0.34457579392E+01 -0.15537959890E+03  0.21454039537E+03  0.12509000000E+03 0.  0.
<mgrwt>
<rscale>  2 0.44693016E+03</rscale>
<asrwt>0</asrwt>
<pdfrwt beam="1">  1       21 0.10081998E-01 0.44693016E+03</pdfrwt>
<pdfrwt beam="2">  1       21 0.10711614E+00 0.44693016E+03</pdfrwt>
<totfact> 0.51071290E+04</totfact>
</mgrwt>
</event>
<event>
 7    0  0.4685107E-002  0.4384221E+03  0.7546771E-02  0.1031232E+00
         21   -1    0    0  502  501  0.00000000000E+00  0.00000000000E+00  0.13658518904E+03  0.13658518904E+03  0.00000000000E+00 0.  1.
         21   -1    0    0  501  502 -0.00000000000E+00 -0.00000000000E+00 -0.35182066990E+03  0.35182066990E+03  0.00000000000E+00 0.  1.
      99926    2    1    2    0    0  0.71054273576E-14  0.00000000000E+00 -0.21523548086E+03  0.48840585894E+03  0.43842213770E+03 0.  0.
      99925    2    3    3    0    0  0.60051926865E+02 -0.71568309358E+02 -0.10946354403E+03  0.29982307196E+03  0.26302728030E+03 0.  0.
         25    1    4    4    0    0  0.82710923977E+01 -0.69517041103E+02 -0.48475762673E+02  0.15132229723E+03  0.12509000000E+03 0.  0.
         25    1    3    3    0    0 -0.60051926865E+02  0.71568309358E+02 -0.10577193684E+03  0.18858278699E+03  0.12509000000E+03 0.  0.
         25    1    4    4    0    0  0.51780834467E+02 -0.20512682551E+01 -0.60987781353E+02  0.14850077472E+03  0.12509000000E+03 0.  0.
<mgrwt>
<rscale>  2 0.43842214E+03</rscale>
<asrwt>0</asrwt>
<pdfrwt beam="1">  1       21 0.20086057E-01 0.43842214E+03</pdfrwt>
<pdfrwt beam="2">  1       21 0.51738334E-01 0.43842214E+03</pdfrwt>
<totfact> 0.75557420E+04</totfact>
</mgrwt>
</event>
<event>
 7    0  0.4685107E-002  0.4474168E+03  0.7546771E-02  0.1028495E+00
         21   -1    0    0  502  501  0.00000000000E+00  0.00000000000E+00  0.39143618178E+03  0.39143618178E+03  0.00000000000E+00 0. -1.
         21   -1    0    0  501  502 -0.00000000000E+00 -0.00000000000E+00 -0.12785086247E+03  0.12785086247E+03  0.00000000000E+00 0. -1.
      99926    2    1    2    0    0  0.00000000000E+00  0.00000000000E+00  0.26358531931E+03  0.51928704426E+03  0.44741682330E+03 0.  0.
      99925    2    3    3    0    0  0.34183247206E+02  0.88022825479E+02  0.22279674179E+03  0.35733727318E+03  0.26293540358E+03 0.  0.
         25    1    4    4    0    0  0.96778328127E+01  0.82620470077E+02  0.10151894597E+03  0.18131025071E+03  0.12509000000E+03 0.  0.
         25    1    3    3    0    0 -0.34183247206E+02 -0.88022825479E+02  0.40788577517E+02  0.16194977107E+03  0.12509000000E+03 0.  0.
         25    1    4    4    0    0  0.24505414394E+02  0.54023554015E+01  0.12127779583E+03  0.17602702247E+03  0.12509000000E+03 0.  0.
<mgrwt>
<rscale>  2 0.44741682E+03</rscale>
<asrwt>0</asrwt>
<pdfrwt beam="1">  1       21 0.57564144E-01 0.44741682E+03</pdfrwt>
<pdfrwt beam="2">  1       21 0.18801598E-01 0.44741682E+03</pdfrwt>
<totfact> 0.67930297E+04</totfact>
</mgrwt>
</event>
<event>
 7    0  0.4685107E-002  0.4552489E+03  0.7546771E-02  0.1026168E+00
         21   -1    0    0  502  501  0.00000000000E+00  0.00000000000E+00  0.19313970410E+03  0.19313970410E+03  0.00000000000E+00 0. -1.
         21   -1    0    0  501  502 -0.00000000000E+00 -0.00000000000E+00 -0.26826644130E+03  0.26826644130E+03  0.00000000000E+00 0. -1.
      99926    2    1    2    0    0 -0.35527136788E-14 -0.14210854715E-13 -0.75126737195E+02  0.46140614540E+03  0.45524894768E+03 0.  0.
      99925    2    3    3    0    0 -0.21677669013E+02 -0.87032503392E+02  0.23163591482E+02  0.27877790335E+03  0.26293723480E+03 0.  0.
         25    1    4    4    0    0 -0.25253874134E+02 -0.54027544276E+02 -0.24751697701E+02  0.14077247010E+03  0.12509000000E+03 0.  0.
         25    1    4    4    0    0  0.35762051209E+01 -0.33004959116E+02  0.47915289183E+02  0.13800543325E+03  0.12509000000E+03 0.  0.
         25    1    3    3    0    0  0.21677669013E+02  0.87032503392E+02 -0.98290328677E+02  0.18262824204E+03  0.12509000000E+03 0.  0.
<mgrwt>
<rscale>  2 0.45524895E+03</rscale>
<asrwt>0</asrwt>
<pdfrwt beam="1">  1       21 0.28402898E-01 0.45524895E+03</pdfrwt>
<pdfrwt beam="2">  1       21 0.39450947E-01 0.45524895E+03</pdfrwt>
<totfact> 0.67943128E+04</totfact>
</mgrwt>
</event>
<event>
 7    0  0.4685107E-002  0.4616671E+03  0.7546771E-02  0.1024299E+00
         21   -1    0    0  502  501  0.00000000000E+00  0.00000000000E+00  0.13252754417E+03  0.13252754417E+03  0.00000000000E+00 0.  1.
         21   -1    0    0  501  502 -0.00000000000E+00 -0.00000000000E+00 -0.40206084502E+03  0.40206084502E+03  0.00000000000E+00 0.  1.
      99926    2    1    2    0    0 -0.35527136788E-14  0.14210854715E-13 -0.26953330085E+03  0.53458838920E+03  0.46166713723E+03 0.  0.
      99925    2    3    3    0    0 -0.19683552982E+02  0.11435690914E+03 -0.13680416265E+03  0.31841837011E+03  0.26307781088E+03 0.  0.
         25    1    4    4    0    0 -0.25563924039E+02  0.93186184049E+02 -0.96395607483E+02  0.18513994802E+03  0.12509000000E+03 0.  0.
         25    1    3    3    0    0  0.19683552982E+02 -0.11435690914E+03 -0.13272913820E+03  0.21617001909E+03  0.12509000000E+03 0.  0.
         25    1    4    4    0    0  0.58803710566E+01  0.21170725089E+02 -0.40408555162E+02  0.13327842209E+03  0.12509000000E+03 0.  0.
<mgrwt>
<rscale>  2 0.46166714E+03</rscale>
<asrwt>0</asrwt>
<pdfrwt beam="1">  1       21 0.19489345E-01 0.46166714E+03</pdfrwt>
<pdfrwt beam="2">  1       21 0.59126595E-01 0.46166714E+03</pdfrwt>
<totfact> 0.59680387E+04</totfact>
</mgrwt>
</event>
<event>
 7    0  0.4685107E-002  0.4234245E+03  0.7546771E-02  0.1035958E+00
         21   -1    0    0  502  501  0.00000000000E+00  0.00000000000E+00  0.33082839741E+02  0.33082839741E+02  0.00000000000E+00 0. -1.
         21   -1    0    0  501  502 -0.00000000000E+00 -0.00000000000E+00 -0.13548434110E+04  0.13548434110E+04  0.00000000000E+00 0. -1.
      99926    2    1    2    0    0  0.00000000000E+00  0.00000000000E+00 -0.13217605712E+04  0.13879262507E+04  0.42342445579E+03 0.  0.
      99925    2    3    3    0    0  0.33426199104E+02  0.66676410326E+02 -0.95554177387E+03  0.99381107704E+03  0.26274953997E+03 0.  0.
         25    1    3    3    0    0 -0.33426199104E+02 -0.66676410326E+02 -0.36621879738E+03  0.39411517369E+03  0.12509000000E+03 0.  0.
         25    1    4    4    0    0  0.29157429961E+02 -0.46728046370E+01 -0.48157096591E+03  0.49842762176E+03  0.12509000000E+03 0.  0.
         25    1    4    4    0    0  0.42687691427E+01  0.71349214963E+02 -0.47397080797E+03  0.49538345528E+03  0.12509000000E+03 0.  0.
<mgrwt>
<rscale>  2 0.42342446E+03</rscale>
<asrwt>0</asrwt>
<pdfrwt beam="1">  1       21 0.48651230E-02 0.42342446E+03</pdfrwt>
<pdfrwt beam="2">  1       21 0.19924170E+00 0.42342446E+03</pdfrwt>
<totfact> 0.34341311E+04</totfact>
</mgrwt>
</event>
<event>
 7    0  0.4685107E-002  0.4476856E+03  0.7546771E-02  0.1028414E+00
         21   -1    0    0  502  501  0.00000000000E+00  0.00000000000E+00  0.95487151029E+02  0.95487151029E+02  0.00000000000E+00 0.  1.
         21   -1    0    0  501  502 -0.00000000000E+00 -0.00000000000E+00 -0.52473664412E+03  0.52473664412E+03  0.00000000000E+00 0.  1.
      99926    2    1    2    0    0  0.00000000000E+00  0.00000000000E+00 -0.42924949309E+03  0.62022379515E+03  0.44768563608E+03 0.  0.
      99925    2    3    3    0    0  0.82420657050E+02 -0.42356651985E+02 -0.34363155015E+03  0.44255784194E+03  0.26303526480E+03 0.  0.
         25    1    4    4    0    0  0.33277687646E+02 -0.19679244295E+02 -0.23194030822E+03  0.26634280886E+03  0.12509000000E+03 0.  0.
         25    1    3    3    0    0 -0.82420657050E+02  0.42356651985E+02 -0.85617942942E+02  0.17766595321E+03  0.12509000000E+03 0.  0.
         25    1    4    4    0    0  0.49142969404E+02 -0.22677407690E+02 -0.11169124192E+03  0.17621503308E+03  0.12509000000E+03 0.  0.
<mgrwt>
<rscale>  2 0.44768564E+03</rscale>
<asrwt>0</asrwt>
<pdfrwt beam="1">  1       21 0.14042228E-01 0.44768564E+03</pdfrwt>
<pdfrwt beam="2">  1       21 0.77167153E-01 0.44768564E+03</pdfrwt>
<totfact> 0.60891723E+04</totfact>
</mgrwt>
</event>
<event>
 7    0  0.4685107E-002  0.4515179E+03  0.7546771E-02  0.1027270E+00
         21   -1    0    0  502  501  0.00000000000E+00  0.00000000000E+00  0.14374750824E+04  0.14374750824E+04  0.00000000000E+00 0. -1.
         21   -1    0    0  501  502 -0.00000000000E+00 -0.00000000000E+00 -0.35455983098E+02  0.35455983098E+02  0.00000000000E+00 0. -1.
      99926    2    1    2    0    0  0.00000000000E+00  0.00000000000E+00  0.14020190993E+04  0.14729310655E+04  0.45151785005E+03 0.  0.
      99925    2    3    3    0    0  0.26267068021E+02  0.54933767961E+02  0.58754109031E+03  0.64665652701E+03  0.26315860882E+03 0.  0.
         25    1    4    4    0    0 -0.13813913770E+02  0.34805003666E+02  0.22002157564E+03  0.25584998406E+03  0.12509000000E+03 0.  0.
         25    1    3    3    0    0 -0.26267068021E+02 -0.54933767961E+02  0.81447800904E+03  0.82627453854E+03  0.12509000000E+03 0.  0.
         25    1    4    4    0    0  0.40080981791E+02  0.20128764295E+02  0.36751951466E+03  0.39080654295E+03  0.12509000000E+03 0.  0.
<mgrwt>
<rscale>  2 0.45151785E+03</rscale>
<asrwt>0</asrwt>
<pdfrwt beam="1">  1       21 0.21139336E+00 0.45151785E+03</pdfrwt>
<pdfrwt beam="2">  1       21 0.52141161E-02 0.45151785E+03</pdfrwt>
<totfact> 0.25123132E+04</totfact>
</mgrwt>
</event>
<event>
 7    0  0.4685107E-002  0.4427757E+03  0.7546771E-02  0.1029899E+00
         21   -1    0    0  502  501  0.00000000000E+00  0.00000000000E+00  0.66480337885E+03  0.66480337885E+03  0.00000000000E+00 0.  1.
         21   -1    0    0  501  502 -0.00000000000E+00 -0.00000000000E+00 -0.73724920860E+02  0.73724920860E+02  0.00000000000E+00 0.  1.
      99926    2    1    2    0    0 -0.14210854715E-13  0.00000000000E+00  0.59107845799E+03  0.73852829971E+03  0.44277568359E+03 0.  0.
      99925    2    3    3    0    0 -0.99930185165E+02  0.16395402560E+02  0.36828322024E+03  0.46368274818E+03  0.26289600514E+03 0.  0.
         25    1    4    4    0    0 -0.49480518185E+02 -0.94696013959E+01  0.12277229257E+03  0.18236923796E+03  0.12509000000E+03 0.  0.
         25    1    3    3    0    0  0.99930185165E+02 -0.16395402560E+02  0.22279523776E+03  0.27484555154E+03  0.12509000000E+03 0.  0.
         25    1    4    4    0    0 -0.50449666981E+02  0.25865003956E+02  0.24551092767E+03  0.28131351022E+03  0.12509000000E+03 0.  0.
<mgrwt>
<rscale>  2 0.44277568E+03</rscale>
<asrwt>0</asrwt>
<pdfrwt beam="1">  1       21 0.97765200E-01 0.44277568E+03</pdfrwt>
<pdfrwt beam="2">  1       21 0.10841900E-01 0.44277568E+03</pdfrwt>
<totfact> 0.56056676E+04</totfact>
</mgrwt>
</event>
<event>
 7    0  0.4685107E-002  0.4629612E+03  0.7546771E-02  0.1023926E+00
         21   -1    0    0  502  501  0.00000000000E+00  0.00000000000E+00  0.48727134861E+02  0.48727134861E+02  0.00000000000E+00 0.  1.
         21   -1    0    0  501  502 -0.00000000000E+00 -0.00000000000E+00 -0.10996597014E+04  0.10996597014E+04  0.00000000000E+00 0.  1.
      99926    2    1    2    0    0  0.00000000000E+00  0.14210854715E-13 -0.10509325666E+04  0.11483868363E+04  0.46296119307E+03 0.  0.
      99925    2    3    3    0    0  0.55967004844E+02 -0.79796933584E+02 -0.48071892545E+03  0.55653300226E+03  0.26294189677E+03 0.  0.
         25    1    4    4    0    0  0.60645314512E+02 -0.40973946073E+02 -0.20281294197E+03  0.24927357654E+03  0.12509000000E+03 0.  0.
         25    1    4    4    0    0 -0.46783096676E+01 -0.38822987511E+02 -0.27790598348E+03  0.30725942572E+03  0.12509000000E+03 0.  0.
         25    1    3    3    0    0 -0.55967004844E+02  0.79796933584E+02 -0.57021364111E+03  0.59185383403E+03  0.12509000000E+03 0.  0.
<mgrwt>
<rscale>  2 0.46296119E+03</rscale>
<asrwt>0</asrwt>
<pdfrwt beam="1">  1       21 0.71657552E-02 0.46296119E+03</pdfrwt>
<pdfrwt beam="2">  1       21 0.16171466E+00 0.46296119E+03</pdfrwt>
<totfact> 0.31815835E+04</totfact>
</mgrwt>
</event>
<event>
 7    0  0.4685107E-002  0.4520781E+03  0.7546771E-02  0.1027104E+00
         21   -1    0    0  502  501  0.00000000000E+00  0.00000000000E+00  0.23931562764E+03  0.23931562764E+03  0.00000000000E+00 0.  1.
         21   -1    0    0  501  502 -0.00000000000E+00 -0.00000000000E+00 -0.21349906693E+03  0.21349906693E+03  0.00000000000E+00 0.  1.
      99926    2    1    2    0    0  0.00000000000E+00  0.00000000000E+00  0.25816560713E+02  0.45281469457E+03  0.45207814901E+03 0.  0.
      99925    2    3    3    0    0 -0.58370603167E+02 -0.82017696144E+02  0.61658004501E+02  0.28829677157E+03  0.26301956046E+03 0.  0.
         25    1    3    3    0    0  0.58370603167E+02  0.82017696144E+02 -0.35841443788E+02  0.16451792300E+03  0.12509000000E+03 0.  0.
         25    1    4    4    0    0 -0.27704723879E+02 -0.83271373680E+02  0.31674618143E+02  0.15605275689E+03  0.12509000000E+03 0.  0.
         25    1    4    4    0    0 -0.30665879289E+02  0.12536775354E+01  0.29983386358E+02  0.13224401468E+03  0.12509000000E+03 0.  0.
<mgrwt>
<rscale>  2 0.45207815E+03</rscale>
<asrwt>0</asrwt>
<pdfrwt beam="1">  1       21 0.35193475E-01 0.45207815E+03</pdfrwt>
<pdfrwt beam="2">  1       21 0.31396922E-01 0.45207815E+03</pdfrwt>
<totfact> 0.70331607E+04</totfact>
</mgrwt>
</event>
<event>
 7    0  0.4685107E-002  0.4594568E+03  0.7546771E-02  0.1024939E+00
         21   -1    0    0  502  501  0.00000000000E+00  0.00000000000E+00  0.16398247620E+04  0.16398247620E+04  0.00000000000E+00 0.  1.
         21   -1    0    0  501  502 -0.00000000000E+00 -0.00000000000E+00 -0.32183400849E+02  0.32183400849E+02  0.00000000000E+00 0.  1.
      99926    2    1    2    0    0  0.00000000000E+00  0.00000000000E+00  0.16076413611E+04  0.16720081628E+04  0.45945679943E+03 0.  0.
      99925    2    3    3    0    0 -0.35646235504E+02  0.80113051323E+02  0.12912198516E+04  0.13206410686E+04  0.26297408974E+03 0.  0.
         25    1    4    4    0    0 -0.70067832987E+01  0.28455455393E+02  0.44448010436E+03  0.46267578197E+03  0.12509000000E+03 0.  0.
         25    1    4    4    0    0 -0.28639452205E+02  0.51657595931E+02  0.84673974721E+03  0.85796528662E+03  0.12509000000E+03 0.  0.
         25    1    3    3    0    0  0.35646235504E+02 -0.80113051323E+02  0.31642150957E+03  0.35136709424E+03  0.12509000000E+03 0.  0.
<mgrwt>
<rscale>  2 0.45945680E+03</rscale>
<asrwt>0</asrwt>
<pdfrwt beam="1">  1       21 0.24115064E+00 0.45945680E+03</pdfrwt>
<pdfrwt beam="2">  1       21 0.47328542E-02 0.45945680E+03</pdfrwt>
<totfact> 0.19178206E+04</totfact>
</mgrwt>
</event>
<event>
 7    0  0.4685107E-002  0.4533226E+03  0.7546771E-02  0.1026736E+00
         21   -1    0    0  502  501  0.00000000000E+00  0.00000000000E+00  0.54940560822E+03  0.54940560822E+03  0.00000000000E+00 0.  1.
         21   -1    0    0  501  502 -0.00000000000E+00 -0.00000000000E+00 -0.93510775705E+02  0.93510775705E+02  0.00000000000E+00 0.  1.
      99926    2    1    2    0    0 -0.71054273576E-14 -0.71054273576E-14  0.45589483251E+03  0.64291638392E+03  0.45332259860E+03 0.  0.
      99925    2    3    3    0    0  0.42890130931E+02  0.38809321899E+02  0.42266628204E+03  0.50115118557E+03  0.26298288543E+03 0.  0.
         25    1    4    4    0    0 -0.44135393346E+01 -0.20201733009E+01  0.15571363726E+03  0.19979440773E+03  0.12509000000E+03 0.  0.
         25    1    3    3    0    0 -0.42890130931E+02 -0.38809321899E+02  0.33228550475E+02  0.14176519835E+03  0.12509000000E+03 0.  0.
         25    1    4    4    0    0  0.47303670265E+02  0.40829495200E+02  0.26695264478E+03  0.30135677784E+03  0.12509000000E+03 0.  0.
<mgrwt>
<rscale>  2 0.45332260E+03</rscale>
<asrwt>0</asrwt>
<pdfrwt beam="1">  1       21 0.80794941E-01 0.45332260E+03</pdfrwt>
<pdfrwt beam="2">  1       21 0.13751585E-01 0.45332260E+03</pdfrwt>
<totfact> 0.56860295E+04</totfact>
</mgrwt>
</event>
<event>
 7    0  0.4685107E-002  0.4377686E+03  0.7546771E-02  0.1031434E+00
         21   -1    0    0  502  501  0.00000000000E+00  0.00000000000E+00  0.16433764767E+03  0.16433764767E+03  0.00000000000E+00 0. -1.
         21   -1    0    0  501  502 -0.00000000000E+00 -0.00000000000E+00 -0.29153596387E+03  0.29153596387E+03  0.00000000000E+00 0. -1.
      99926    2    1    2    0    0  0.00000000000E+00  0.71054273576E-14 -0.12719831620E+03  0.45587361154E+03  0.43776858961E+03 0.  0.
      99925    2    3    3    0    0  0.87377390446E+02  0.36576003626E+02 -0.64999829204E+02  0.28708743827E+03  0.26309999432E+03 0.  0.
         25    1    4    4    0    0  0.84447460331E+02  0.26580411561E+02 -0.46905574332E+02  0.16026706723E+03  0.12509000000E+03 0.  0.
         25    1    3    3    0    0 -0.87377390446E+02 -0.36576003626E+02 -0.62198486997E+02  0.16878617327E+03  0.12509000000E+03 0.  0.
         25    1    4    4    0    0  0.29299301147E+01  0.99955920649E+01 -0.18094254872E+02  0.12682037104E+03  0.12509000000E+03 0.  0.
<mgrwt>
<rscale>  2 0.43776859E+03</rscale>
<asrwt>0</asrwt>
<pdfrwt beam="1">  1       21 0.24167301E-01 0.43776859E+03</pdfrwt>
<pdfrwt beam="2">  1       21 0.42872935E-01 0.43776859E+03</pdfrwt>
<totfact> 0.78724216E+04</totfact>
</mgrwt>
</event>
<event>
 7    0  0.4685107E-002  0.4588984E+03  0.7546771E-02  0.1025101E+00
         21   -1    0    0  502  501  0.00000000000E+00  0.00000000000E+00  0.21630907647E+03  0.21630907647E+03  0.00000000000E+00 0. -1.
         21   -1    0    0  501  502 -0.00000000000E+00 -0.00000000000E+00 -0.24338750690E+03  0.24338750690E+03  0.00000000000E+00 0. -1.
      99926    2    1    2    0    0 -0.71054273576E-14  0.17763568394E-14 -0.27078430430E+02  0.45969658337E+03  0.45889836279E+03 0.  0.
      99925    2    3    3    0    0  0.36996004678E+02 -0.88783089239E+01 -0.12687325045E+03  0.29521545091E+03  0.26383292449E+03 0.  0.
         25    1    4    4    0    0  0.51948219725E+02 -0.23191402490E+02 -0.46393158455E+02  0.14503893248E+03  0.12509000000E+03 0.  0.
         25    1    4    4    0    0 -0.14952215047E+02  0.14313093566E+02 -0.80480091999E+02  0.15017651844E+03  0.12509000000E+03 0.  0.
         25    1    3    3    0    0 -0.36996004678E+02  0.88783089239E+01  0.99794820025E+02  0.16448113246E+03  0.12509000000E+03 0.  0.
<mgrwt>
<rscale>  2 0.45889836E+03</rscale>
<asrwt>0</asrwt>
<pdfrwt beam="1">  1       21 0.31810158E-01 0.45889836E+03</pdfrwt>
<pdfrwt beam="2">  1       21 0.35792280E-01 0.45889836E+03</pdfrwt>
<totfact> 0.66122368E+04</totfact>
</mgrwt>
</event>
<event>
 7    0  0.4685107E-002  0.4567024E+03  0.7546771E-02  0.1025742E+00
         21   -1    0    0  502  501  0.00000000000E+00  0.00000000000E+00  0.40737044420E+02  0.40737044420E+02  0.00000000000E+00 0.  1.
         21   -1    0    0  501  502 -0.00000000000E+00 -0.00000000000E+00 -0.12800208042E+04  0.12800208042E+04  0.00000000000E+00 0.  1.
      99926    2    1    2    0    0  0.71054273576E-14  0.14210854715E-13 -0.12392837598E+04  0.13207578487E+04  0.45670237293E+03 0.  0.
      99925    2    3    3    0    0 -0.43457463662E+02 -0.92807998429E+02 -0.62986941734E+03  0.69025390368E+03  0.26308381349E+03 0.  0.
         25    1    4    4    0    0 -0.13063495216E+02 -0.84398720990E+02 -0.30028531417E+03  0.33632213281E+03  0.12509000000E+03 0.  0.
         25    1    4    4    0    0 -0.30393968447E+02 -0.84092774390E+01 -0.32958410317E+03  0.35393177086E+03  0.12509000000E+03 0.  0.
         25    1    3    3    0    0  0.43457463662E+02  0.92807998429E+02 -0.60941434248E+03  0.63050394498E+03  0.12509000000E+03 0.  0.
<mgrwt>
<rscale>  2 0.45670237E+03</rscale>
<asrwt>0</asrwt>
<pdfrwt beam="1">  1       21 0.59907433E-02 0.45670237E+03</pdfrwt>
<pdfrwt beam="2">  1       21 0.18823831E+00 0.45670237E+03</pdfrwt>
<totfact> 0.28143378E+04</totfact>
</mgrwt>
</event>
<event>
 7    0  0.4685107E-002  0.4528735E+03  0.7546771E-02  0.1026869E+00
         21   -1    0    0  502  501  0.00000000000E+00  0.00000000000E+00  0.67584673862E+03  0.67584673862E+03  0.00000000000E+00 0.  1.
         21   -1    0    0  501  502 -0.00000000000E+00 -0.00000000000E+00 -0.75865736113E+02  0.75865736113E+02  0.00000000000E+00 0.  1.
      99926    2    1    2    0    0 -0.14210854715E-13 -0.35527136788E-14  0.59998100251E+03  0.75171247473E+03  0.45287353787E+03 0.  0.
      99925    2    3    3    0    0 -0.90325978701E+02 -0.20987395561E+02  0.47986793558E+03  0.55505564127E+03  0.26308606217E+03 0.  0.
         25    1    4    4    0    0 -0.25644494912E+02  0.22162746756E+01  0.15945707391E+03  0.20429541971E+03  0.12509000000E+03 0.  0.
         25    1    4    4    0    0 -0.64681483789E+02 -0.23203670236E+02  0.32041086167E+03  0.35076022156E+03  0.12509000000E+03 0.  0.
         25    1    3    3    0    0  0.90325978701E+02  0.20987395561E+02  0.12011306693E+03  0.19665683346E+03  0.12509000000E+03 0.  0.
<mgrwt>
<rscale>  2 0.45287354E+03</rscale>
<asrwt>0</asrwt>
<pdfrwt beam="1">  1       21 0.99389223E-01 0.45287354E+03</pdfrwt>
<pdfrwt beam="2">  1       21 0.11156726E-01 0.45287354E+03</pdfrwt>
<totfact> 0.51031119E+04</totfact>
</mgrwt>
</event>
<event>
 7    0  0.4685107E-002  0.4565520E+03  0.7546771E-02  0.1025786E+00
         21   -1    0    0  502  501  0.00000000000E+00  0.00000000000E+00  0.75560170559E+02  0.75560170559E+02  0.00000000000E+00 0. -1.
         21   -1    0    0  501  502 -0.00000000000E+00 -0.00000000000E+00 -0.68964811740E+03  0.68964811740E+03  0.00000000000E+00 0. -1.
      99926    2    1    2    0    0 -0.71054273576E-14  0.35527136788E-14 -0.61408794684E+03  0.76520828796E+03  0.45655198773E+03 0.  0.
      99925    2    3    3    0    0 -0.48438153529E+02  0.19075915025E+02 -0.55700407916E+03  0.61818372776E+03  0.26303503914E+03 0.  0.
         25    1    3    3    0    0  0.48438153529E+02 -0.19075915025E+02 -0.57083867675E+02  0.14702456019E+03  0.12509000000E+03 0.  0.
         25    1    4    4    0    0 -0.23623204694E+02  0.36703575021E+02 -0.21257945504E+03  0.25048501158E+03  0.12509000000E+03 0.  0.
         25    1    4    4    0    0 -0.24814948835E+02 -0.17627659995E+02 -0.34442462412E+03  0.36769871619E+03  0.12509000000E+03 0.  0.
<mgrwt>
<rscale>  2 0.45655199E+03</rscale>
<asrwt>0</asrwt>
<pdfrwt beam="1">  1       21 0.11111790E-01 0.45655199E+03</pdfrwt>
<pdfrwt beam="2">  1       21 0.10141884E+00 0.45655199E+03</pdfrwt>
<totfact> 0.48895019E+04</totfact>
</mgrwt>
</event>
<event>
 7    0  0.4685107E-002  0.4399195E+03  0.7546771E-02  0.1030772E+00
         21   -1    0    0  502  501  0.00000000000E+00  0.00000000000E+00  0.42607797958E+02  0.42607797958E+02  0.00000000000E+00 0. -1.
         21   -1    0    0  501  502 -0.00000000000E+00 -0.00000000000E+00 -0.11355267080E+04  0.11355267080E+04  0.00000000000E+00 0. -1.
      99926    2    1    2    0    0  0.14210854715E-13  0.71054273576E-14 -0.10929189101E+04  0.11781345060E+04  0.43991950423E+03 0.  0.
      99925    2    3    3    0    0  0.71965332410E+02 -0.46719380065E+02 -0.82541594603E+03  0.87061693996E+03  0.26325019021E+03 0.  0.
         25    1    4    4    0    0  0.22652435847E+02 -0.61994186494E+02 -0.40897622049E+03  0.43274180412E+03  0.12509000000E+03 0.  0.
         25    1    3    3    0    0 -0.71965332410E+02  0.46719380065E+02 -0.26750296404E+03  0.30751756602E+03  0.12509000000E+03 0.  0.
         25    1    4    4    0    0  0.49312896563E+02  0.15274806429E+02 -0.41643972554E+03  0.43787513584E+03  0.12509000000E+03 0.  0.
<mgrwt>
<rscale>  2 0.43991950E+03</rscale>
<asrwt>0</asrwt>
<pdfrwt beam="1">  1       21 0.62658531E-02 0.43991950E+03</pdfrwt>
<pdfrwt beam="2">  1       21 0.16698921E+00 0.43991950E+03</pdfrwt>
<totfact> 0.37018942E+04</totfact>
</mgrwt>
</event>
<event>
 7    0  0.4685107E-002  0.5363936E+03  0.7546771E-02  0.1004693E+00
         21   -1    0    0  502  501  0.00000000000E+00  0.00000000000E+00  0.10979688521E+03  0.10979688521E+03  0.00000000000E+00 0.  1.
         21   -1    0    0  501  502 -0.00000000000E+00 -0.00000000000E+00 -0.65511453243E+03  0.65511453243E+03  0.00000000000E+00 0.  1.
      99926    2    1    2    0    0 -0.28421709430E-13  0.88817841970E-15 -0.54531764722E+03  0.76491141764E+03  0.53639364321E+03 0.  0.
      99925    2    3    3    0    0  0.13809756054E+03 -0.46431607503E+01 -0.16172520507E+03  0.33843379227E+03  0.26322973735E+03 0.  0.
         25    1    4    4    0    0  0.92388362907E+02  0.93271539411E+01 -0.12455744436E+03  0.19946094968E+03  0.12509000000E+03 0.  0.
         25    1    4    4    0    0  0.45709197635E+02 -0.13970314691E+02 -0.37167760704E+02  0.13897284259E+03  0.12509000000E+03 0.  0.
         25    1    3    3    0    0 -0.13809756054E+03  0.46431607503E+01 -0.38359244215E+03  0.42647762537E+03  0.12509000000E+03 0.  0.
<mgrwt>
<rscale>  2 0.53639364E+03</rscale>
<asrwt>0</asrwt>
<pdfrwt beam="1">  1       21 0.16146601E-01 0.53639364E+03</pdfrwt>
<pdfrwt beam="2">  1       21 0.96340372E-01 0.53639364E+03</pdfrwt>
<totfact> 0.27345706E+04</totfact>
</mgrwt>
</event>
<event>
 7    0  0.4685107E-002  0.4199562E+03  0.7546771E-02  0.1037081E+00
         21   -1    0    0  502  501  0.00000000000E+00  0.00000000000E+00  0.29817437850E+02  0.29817437850E+02  0.00000000000E+00 0. -1.
         21   -1    0    0  501  502 -0.00000000000E+00 -0.00000000000E+00 -0.14786920731E+04  0.14786920731E+04  0.00000000000E+00 0. -1.
      99926    2    1    2    0    0  0.00000000000E+00  0.00000000000E+00 -0.14488746353E+04  0.15085095110E+04  0.41995623101E+03 0.  0.
      99925    2    3    3    0    0 -0.56374232482E+02 -0.36226269980E+02 -0.10685684173E+04  0.11025899078E+04  0.26339256932E+03 0.  0.
         25    1    4    4    0    0 -0.34820633342E+02 -0.24551520109E+02 -0.70614935032E+03  0.71840773013E+03  0.12509000000E+03 0.  0.
         25    1    4    4    0    0 -0.21553599140E+02 -0.11674749871E+02 -0.36241906696E+03  0.38418217764E+03  0.12509000000E+03 0.  0.
         25    1    3    3    0    0  0.56374232482E+02  0.36226269980E+02 -0.38030621799E+03  0.40591960321E+03  0.12509000000E+03 0.  0.
<mgrwt>
<rscale>  2 0.41995623E+03</rscale>
<asrwt>0</asrwt>
<pdfrwt beam="1">  1       21 0.43849166E-02 0.41995623E+03</pdfrwt>
<pdfrwt beam="2">  1       21 0.21745475E+00 0.41995623E+03</pdfrwt>
<totfact> 0.31251554E+04</totfact>
</mgrwt>
</event>
<event>
 7    0  0.4685107E-002  0.4444538E+03  0.7546771E-02  0.1029389E+00
         21   -1    0    0  502  501  0.00000000000E+00  0.00000000000E+00  0.85080281860E+02  0.85080281860E+02  0.00000000000E+00 0.  1.
         21   -1    0    0  501  502 -0.00000000000E+00 -0.00000000000E+00 -0.58044940813E+03  0.58044940813E+03  0.00000000000E+00 0.  1.
      99926    2    1    2    0    0  0.00000000000E+00 -0.71054273576E-14 -0.49536912626E+03  0.66552968999E+03  0.44445381874E+03 0.  0.
      99925    2    3    3    0    0  0.58183590891E+02 -0.34662937538E+02 -0.19845849643E+03  0.33630289932E+03  0.26292017000E+03 0.  0.
         25    1    3    3    0    0 -0.58183590891E+02  0.34662937538E+02 -0.29691062983E+03  0.32922679067E+03  0.12509000000E+03 0.  0.
         25    1    4    4    0    0 -0.11698721356E+02 -0.22241450770E+02 -0.88985697186E+02  0.15555547119E+03  0.12509000000E+03 0.  0.
         25    1    4    4    0    0  0.69882312248E+02 -0.12421486769E+02 -0.10947279925E+03  0.18074742812E+03  0.12509000000E+03 0.  0.
<mgrwt>
<rscale>  2 0.44445382E+03</rscale>
<asrwt>0</asrwt>
<pdfrwt beam="1">  1       21 0.12511807E-01 0.44445382E+03</pdfrwt>
<pdfrwt beam="2">  1       21 0.85360203E-01 0.44445382E+03</pdfrwt>
<totfact> 0.59616542E+04</totfact>
</mgrwt>
</event>
<event>
 7    0  0.4685107E-002  0.4535851E+03  0.7546771E-02  0.1026658E+00
         21   -1    0    0  502  501  0.00000000000E+00  0.00000000000E+00  0.19337665325E+04  0.19337665325E+04  0.00000000000E+00 0. -1.
         21   -1    0    0  501  502 -0.00000000000E+00 -0.00000000000E+00 -0.26598282874E+02  0.26598282874E+02  0.00000000000E+00 0. -1.
      99926    2    1    2    0    0  0.00000000000E+00  0.00000000000E+00  0.19071682496E+04  0.19603648154E+04  0.45358513751E+03 0.  0.
      99925    2    3    3    0    0 -0.87476915229E+02 -0.45357689284E+02  0.97346132195E+03  0.10131765207E+04  0.26304027466E+03 0.  0.
         25    1    3    3    0    0  0.87476915229E+02  0.45357689284E+02  0.93370692767E+03  0.94718829467E+03  0.12509000000E+03 0.  0.
         25    1    4    4    0    0 -0.21147548302E+02 -0.56431763360E+02  0.48742442213E+03  0.50681538859E+03  0.12509000000E+03 0.  0.
         25    1    4    4    0    0 -0.66329366926E+02  0.11074074077E+02  0.48603689982E+03  0.50636113212E+03  0.12509000000E+03 0.  0.
<mgrwt>
<rscale>  2 0.45358514E+03</rscale>
<asrwt>0</asrwt>
<pdfrwt beam="1">  1       21 0.28437734E+00 0.45358514E+03</pdfrwt>
<pdfrwt beam="2">  1       21 0.39115135E-02 0.45358514E+03</pdfrwt>
<totfact> 0.14526833E+04</totfact>
</mgrwt>
</event>
<event>
 7    0  0.4685107E-002  0.4461339E+03  0.7546771E-02  0.1028881E+00
         21   -1    0    0  502  501  0.00000000000E+00  0.00000000000E+00  0.20540084866E+04  0.20540084866E+04  0.00000000000E+00 0.  1.
         21   -1    0    0  501  502 -0.00000000000E+00 -0.00000000000E+00 -0.24225250651E+02  0.24225250651E+02  0.00000000000E+00 0.  1.
      99926    2    1    2    0    0  0.00000000000E+00  0.00000000000E+00  0.20297832359E+04  0.20782337372E+04  0.44613392799E+03 0.  0.
      99925    2    3    3    0    0 -0.29185300920E+02 -0.32741832823E+02  0.84604743923E+03  0.88709908745E+03  0.26310589528E+03 0.  0.
         25    1    4    4    0    0 -0.47449543954E+02  0.70234327768E+01  0.44422607235E+03  0.46398825339E+03  0.12509000000E+03 0.  0.
         25    1    4    4    0    0  0.18264243034E+02 -0.39765265600E+02  0.40182136688E+03  0.42311083406E+03  0.12509000000E+03 0.  0.
         25    1    3    3    0    0  0.29185300920E+02  0.32741832823E+02  0.11837357967E+04  0.11911346498E+04  0.12509000000E+03 0.  0.
<mgrwt>
<rscale>  2 0.44613393E+03</rscale>
<asrwt>0</asrwt>
<pdfrwt beam="1">  1       21 0.30205995E+00 0.44613393E+03</pdfrwt>
<pdfrwt beam="2">  1       21 0.35625383E-02 0.44613393E+03</pdfrwt>
<totfact> 0.13371437E+04</totfact>
</mgrwt>
</event>
<event>
 7    0  0.4685107E-002  0.4564611E+03  0.7546771E-02  0.1025813E+00
         21   -1    0    0  502  501  0.00000000000E+00  0.00000000000E+00  0.17990474167E+03  0.17990474167E+03  0.00000000000E+00 0.  1.
         21   -1    0    0  501  502 -0.00000000000E+00 -0.00000000000E+00 -0.28953756901E+03  0.28953756901E+03  0.00000000000E+00 0.  1.
      99926    2    1    2    0    0  0.00000000000E+00  0.00000000000E+00 -0.10963282734E+03  0.46944231068E+03  0.45646108950E+03 0.  0.
      99925    2    3    3    0    0  0.75317211578E+02  0.22268327317E+02  0.16817242893E+02  0.27500545944E+03  0.26301449067E+03 0.  0.
         25    1    4    4    0    0  0.24285597706E+02  0.22876549569E+02  0.44879956039E+02  0.13702133166E+03  0.12509000000E+03 0.  0.
         25    1    3    3    0    0 -0.75317211578E+02 -0.22268327317E+02 -0.12645007023E+03  0.19443685125E+03  0.12509000000E+03 0.  0.
         25    1    4    4    0    0  0.51031613872E+02 -0.60822225264E+00 -0.28062713146E+02  0.13798412777E+03  0.12509000000E+03 0.  0.
<mgrwt>
<rscale>  2 0.45646109E+03</rscale>
<asrwt>0</asrwt>
<pdfrwt beam="1">  1       21 0.26456580E-01 0.45646109E+03</pdfrwt>
<pdfrwt beam="2">  1       21 0.42579053E-01 0.45646109E+03</pdfrwt>
<totfact> 0.66700887E+04</totfact>
</mgrwt>
</event>
<event>
 7    0  0.4685107E-002  0.4543583E+03  0.7546771E-02  0.1026430E+00
         21   -1    0    0  502  501  0.00000000000E+00  0.00000000000E+00  0.10802871505E+03  0.10802871505E+03  0.00000000000E+00 0. -1.
         21   -1    0    0  501  502 -0.00000000000E+00 -0.00000000000E+00 -0.47774680171E+03  0.47774680171E+03  0.00000000000E+00 0. -1.
      99926    2    1    2    0    0  0.00000000000E+00  0.00000000000E+00 -0.36971808666E+03  0.58577551676E+03  0.45435833043E+03 0.  0.
      99925    2    3    3    0    0  0.11140517048E+03  0.12643348413E+02 -0.22048095794E+03  0.36107528321E+03  0.26304475107E+03 0.  0.
         25    1    3    3    0    0 -0.11140517048E+03 -0.12643348413E+02 -0.14923712873E+03  0.22470023355E+03  0.12509000000E+03 0.  0.
         25    1    4    4    0    0  0.85639048155E+02  0.13575093806E+01 -0.15611192102E+03  0.21761049925E+03  0.12509000000E+03 0.  0.
         25    1    4    4    0    0  0.25766122321E+02  0.11285839032E+02 -0.64369036920E+02  0.14346478396E+03  0.12509000000E+03 0.  0.
<mgrwt>
<rscale>  2 0.45435833E+03</rscale>
<asrwt>0</asrwt>
<pdfrwt beam="1">  1       21 0.15886576E-01 0.45435833E+03</pdfrwt>
<pdfrwt beam="2">  1       21 0.70256881E-01 0.45435833E+03</pdfrwt>
<totfact> 0.59865538E+04</totfact>
</mgrwt>
</event>
<event>
 7    0  0.4685107E-002  0.4556040E+03  0.7546771E-02  0.1026064E+00
         21   -1    0    0  502  501  0.00000000000E+00  0.00000000000E+00  0.21168240548E+03  0.21168240548E+03  0.00000000000E+00 0. -1.
         21   -1    0    0  501  502 -0.00000000000E+00 -0.00000000000E+00 -0.24514905385E+03  0.24514905385E+03  0.00000000000E+00 0. -1.
      99926    2    1    2    0    0  0.00000000000E+00  0.00000000000E+00 -0.33466648368E+02  0.45683145932E+03  0.45560395705E+03 0.  0.
      99925    2    3    3    0    0 -0.47761081770E+02  0.10155196743E+03 -0.40616184547E+02  0.28862757415E+03  0.26279703022E+03 0.  0.
         25    1    4    4    0    0 -0.61352218654E+02  0.70066715053E+02 -0.18407072754E+02  0.15703428836E+03  0.12509000000E+03 0.  0.
         25    1    4    4    0    0  0.13591136883E+02  0.31485252376E+02 -0.22209111793E+02  0.13159328579E+03  0.12509000000E+03 0.  0.
         25    1    3    3    0    0  0.47761081770E+02 -0.10155196743E+03  0.71495361788E+01  0.16820388518E+03  0.12509000000E+03 0.  0.
<mgrwt>
<rscale>  2 0.45560396E+03</rscale>
<asrwt>0</asrwt>
<pdfrwt beam="1">  1       21 0.31129765E-01 0.45560396E+03</pdfrwt>
<pdfrwt beam="2">  1       21 0.36051332E-01 0.45560396E+03</pdfrwt>
<totfact> 0.68083193E+04</totfact>
</mgrwt>
</event>
<event>
 7    0  0.4685107E-002  0.4508132E+03  0.7546771E-02  0.1027480E+00
         21   -1    0    0  502  501  0.00000000000E+00  0.00000000000E+00  0.47023357485E+03  0.47023357485E+03  0.00000000000E+00 0. -1.
         21   -1    0    0  501  502 -0.00000000000E+00 -0.00000000000E+00 -0.10804872369E+03  0.10804872369E+03  0.00000000000E+00 0. -1.
      99926    2    1    2    0    0 -0.14210854715E-13  0.00000000000E+00  0.36218485116E+03  0.57828229854E+03  0.45081321009E+03 0.  0.
      99925    2    3    3    0    0 -0.84278782299E+02  0.22863259765E+02  0.31222089361E+03  0.41775333870E+03  0.26345839101E+03 0.  0.
         25    1    4    4    0    0 -0.27147001468E+01 -0.60001684575E+01  0.13325839309E+03  0.18288980028E+03  0.12509000000E+03 0.  0.
         25    1    4    4    0    0 -0.81564082152E+02  0.28863428223E+02  0.17896250051E+03  0.23486353841E+03  0.12509000000E+03 0.  0.
         25    1    3    3    0    0  0.84278782299E+02 -0.22863259765E+02  0.49963957558E+02  0.16052895984E+03  0.12509000000E+03 0.  0.
<mgrwt>
<rscale>  2 0.45081321E+03</rscale>
<asrwt>0</asrwt>
<pdfrwt beam="1">  1       21 0.69151995E-01 0.45081321E+03</pdfrwt>
<pdfrwt beam="2">  1       21 0.15889518E-01 0.45081321E+03</pdfrwt>
<totfact> 0.62064365E+04</totfact>
</mgrwt>
</event>
<event>
 7    0  0.4685107E-002  0.4535876E+03  0.7546771E-02  0.1026658E+00
         21   -1    0    0  502  501  0.00000000000E+00  0.00000000000E+00  0.73950991015E+03  0.73950991015E+03  0.00000000000E+00 0.  1.
         21   -1    0    0  501  502 -0.00000000000E+00 -0.00000000000E+00 -0.69553389361E+02  0.69553389361E+02  0.00000000000E+00 0.  1.
      99926    2    1    2    0    0  0.14210854715E-13 -0.33306690739E-15  0.66995652079E+03  0.80906329951E+03  0.45358756913E+03 0.  0.
      99925    2    3    3    0    0  0.94145749077E+02 -0.95130052991E+00  0.31080249017E+03  0.41726813255E+03  0.26201179268E+03 0.  0.
         25    1    3    3    0    0 -0.94145749077E+02  0.95130052991E+00  0.35915403062E+03  0.39179516696E+03  0.12509000000E+03 0.  0.
         25    1    4    4    0    0  0.82123177371E+02 -0.13218189188E+02  0.19310839925E+03  0.24465751317E+03  0.12509000000E+03 0.  0.
         25    1    4    4    0    0  0.12022571706E+02  0.12266888658E+02  0.11769409092E+03  0.17261061938E+03  0.12509000000E+03 0.  0.
<mgrwt>
<rscale>  2 0.45358757E+03</rscale>
<asrwt>0</asrwt>
<pdfrwt beam="1">  1       21 0.10875145E+00 0.45358757E+03</pdfrwt>
<pdfrwt beam="2">  1       21 0.10228440E-01 0.45358757E+03</pdfrwt>
<totfact> 0.47857794E+04</totfact>
</mgrwt>
</event>
<event>
 7    0  0.4685107E-002  0.4483514E+03  0.7546771E-02  0.1028215E+00
         21   -1    0    0  502  501  0.00000000000E+00  0.00000000000E+00  0.56262886108E+03  0.56262886108E+03  0.00000000000E+00 0. -1.
         21   -1    0    0  501  502 -0.00000000000E+00 -0.00000000000E+00 -0.89321295341E+02  0.89321295341E+02  0.00000000000E+00 0. -1.
      99926    2    1    2    0    0  0.00000000000E+00  0.00000000000E+00  0.47330756574E+03  0.65195015642E+03  0.44835137412E+03 0.  0.
      99925    2    3    3    0    0  0.62884765563E+02 -0.81683071187E+02  0.33993781410E+03  0.44204156534E+03  0.26309011797E+03 0.  0.
         25    1    4    4    0    0  0.39797970838E+02 -0.80401433434E+02  0.16391979591E+03  0.22486768681E+03  0.12509000000E+03 0.  0.
         25    1    4    4    0    0  0.23086794724E+02 -0.12816377531E+01  0.17601801819E+03  0.21717387853E+03  0.12509000000E+03 0.  0.
         25    1    3    3    0    0 -0.62884765563E+02  0.81683071187E+02  0.13336975163E+03  0.20990859108E+03  0.12509000000E+03 0.  0.
<mgrwt>
<rscale>  2 0.44835137E+03</rscale>
<asrwt>0</asrwt>
<pdfrwt beam="1">  1       21 0.82739536E-01 0.44835137E+03</pdfrwt>
<pdfrwt beam="2">  1       21 0.13135485E-01 0.44835137E+03</pdfrwt>
<totfact> 0.58602718E+04</totfact>
</mgrwt>
</event>
<event>
 7    0  0.4685107E-002  0.4391125E+03  0.7546771E-02  0.1031019E+00
         21   -1    0    0  502  501  0.00000000000E+00  0.00000000000E+00  0.35183544156E+02  0.35183544156E+02  0.00000000000E+00 0.  1.
         21   -1    0    0  501  502 -0.00000000000E+00 -0.00000000000E+00 -0.13700993389E+04  0.13700993389E+04  0.00000000000E+00 0.  1.
      99926    2    1    2    0    0 -0.14210854715E-13 -0.35527136788E-14 -0.13349157948E+04  0.14052828831E+04  0.43911251674E+03 0.  0.
      99925    2    3    3    0    0  0.91480048764E+02 -0.84291711676E+01 -0.74663498842E+03  0.79687392073E+03  0.26287751780E+03 0.  0.
         25    1    4    4    0    0  0.66168137720E+02  0.30980860265E+02 -0.38239479270E+03  0.40891480987E+03  0.12509000000E+03 0.  0.
         25    1    3    3    0    0 -0.91480048764E+02  0.84291711676E+01 -0.58828080637E+03  0.60840896236E+03  0.12509000000E+03 0.  0.
         25    1    4    4    0    0  0.25311911044E+02 -0.39410031432E+02 -0.36424019572E+03  0.38795911086E+03  0.12509000000E+03 0.  0.
<mgrwt>
<rscale>  2 0.43911252E+03</rscale>
<asrwt>0</asrwt>
<pdfrwt beam="1">  1       21 0.51740513E-02 0.43911252E+03</pdfrwt>
<pdfrwt beam="2">  1       21 0.20148517E+00 0.43911252E+03</pdfrwt>
<totfact> 0.29691733E+04</totfact>
</mgrwt>
</event>
<event>
 7    0  0.4685107E-002  0.4512726E+03  0.7546771E-02  0.1027343E+00
         21   -1    0    0  502  501  0.00000000000E+00  0.00000000000E+00  0.15416893652E+03  0.15416893652E+03  0.00000000000E+00 0.  1.
         21   -1    0    0  501  502 -0.00000000000E+00 -0.00000000000E+00 -0.33023341208E+03  0.33023341208E+03  0.00000000000E+00 0.  1.
      99926    2    1    2    0    0  0.00000000000E+00  0.00000000000E+00 -0.17606447557E+03  0.48440234860E+03  0.45127257370E+03 0.  0.
      99925    2    3    3    0    0  0.47840698970E+02 -0.65488307128E+02 -0.19032650524E+03  0.33464132417E+03  0.26302696895E+03 0.  0.
         25    1    3    3    0    0 -0.47840698970E+02  0.65488307128E+02  0.14262029669E+02  0.14976102443E+03  0.12509000000E+03 0.  0.
         25    1    4    4    0    0  0.73277823790E+01 -0.42773429644E+02 -0.13819113198E+03  0.19138327967E+03  0.12509000000E+03 0.  0.
         25    1    4    4    0    0  0.40512916591E+02 -0.22714877485E+02 -0.52135373257E+02  0.14325804450E+03  0.12509000000E+03 0.  0.
<mgrwt>
<rscale>  2 0.45127257E+03</rscale>
<asrwt>0</asrwt>
<pdfrwt beam="1">  1       21 0.22671903E-01 0.45127257E+03</pdfrwt>
<pdfrwt beam="2">  1       21 0.48563736E-01 0.45127257E+03</pdfrwt>
<totfact> 0.68382167E+04</totfact>
</mgrwt>
</event>
<event>
 7    0  0.4685107E-002  0.4641221E+03  0.7546771E-02  0.1023592E+00
         21   -1    0    0  502  501  0.00000000000E+00  0.00000000000E+00  0.37165145882E+02  0.37165145882E+02  0.00000000000E+00 0.  1.
         21   -1    0    0  501  502 -0.00000000000E+00 -0.00000000000E+00 -0.14490008509E+04  0.14490008509E+04  0.00000000000E+00 0.  1.
      99926    2    1    2    0    0 -0.35527136788E-14  0.00000000000E+00 -0.14118357050E+04  0.14861659967E+04  0.46412208741E+03 0.  0.
      99925    2    3    3    0    0 -0.22578394053E+02  0.10412612212E+03 -0.69343555173E+03  0.74921394846E+03  0.26290044308E+03 0.  0.
         25    1    3    3    0    0  0.22578394053E+02 -0.10412612212E+03 -0.71840015325E+03  0.73695204828E+03  0.12509000000E+03 0.  0.
         25    1    4    4    0    0  0.15024048390E+02  0.84208820990E+02 -0.36957166614E+03  0.39943406474E+03  0.12509000000E+03 0.  0.
         25    1    4    4    0    0 -0.37602442443E+02  0.19917301128E+02 -0.32386388559E+03  0.34977988371E+03  0.12509000000E+03 0.  0.
<mgrwt>
<rscale>  2 0.46412209E+03</rscale>
<asrwt>0</asrwt>
<pdfrwt beam="1">  1       21 0.54654620E-02 0.46412209E+03</pdfrwt>
<pdfrwt beam="2">  1       21 0.21308839E+00 0.46412209E+03</pdfrwt>
<totfact> 0.22484362E+04</totfact>
</mgrwt>
</event>
<event>
 7    0  0.4685107E-002  0.4516468E+03  0.7546771E-02  0.1027232E+00
         21   -1    0    0  502  501  0.00000000000E+00  0.00000000000E+00  0.82358342083E+02  0.82358342083E+02  0.00000000000E+00 0.  1.
         21   -1    0    0  501  502 -0.00000000000E+00 -0.00000000000E+00 -0.61919909187E+03  0.61919909187E+03  0.00000000000E+00 0.  1.
      99926    2    1    2    0    0  0.00000000000E+00 -0.17763568394E-14 -0.53684074978E+03  0.70155743395E+03  0.45164681168E+03 0.  0.
      99925    2    3    3    0    0  0.10238555377E+03  0.99846490113E+01 -0.40023928457E+03  0.48968491748E+03  0.26271151223E+03 0.  0.
         25    1    4    4    0    0  0.54475028085E+02 -0.20617842841E+02 -0.14730261533E+03  0.20183704494E+03  0.12509000000E+03 0.  0.
         25    1    3    3    0    0 -0.10238555377E+03 -0.99846490113E+01 -0.13660146522E+03  0.21187251647E+03  0.12509000000E+03 0.  0.
         25    1    4    4    0    0  0.47910525684E+02  0.30602491852E+02 -0.25293666924E+03  0.28784787254E+03  0.12509000000E+03 0.  0.
<mgrwt>
<rscale>  2 0.45164681E+03</rscale>
<asrwt>0</asrwt>
<pdfrwt beam="1">  1       21 0.12111521E-01 0.45164681E+03</pdfrwt>
<pdfrwt beam="2">  1       21 0.91058692E-01 0.45164681E+03</pdfrwt>
<totfact> 0.54235512E+04</totfact>
</mgrwt>
</event>
<event>
 7    0  0.4685107E-002  0.4486206E+03  0.7546771E-02  0.1028134E+00
         21   -1    0    0  502  501  0.00000000000E+00  0.00000000000E+00  0.32539375081E+03  0.32539375081E+03  0.00000000000E+00 0.  1.
         21   -1    0    0  501  502 -0.00000000000E+00 -0.00000000000E+00 -0.15462841631E+03  0.15462841631E+03  0.00000000000E+00 0.  1.
      99926    2    1    2    0    0  0.00000000000E+00  0.00000000000E+00  0.17076533450E+03  0.48002216712E+03  0.44862064315E+03 0.  0.
      99925    2    3    3    0    0 -0.97377080717E+02 -0.43107656129E+02  0.12019137870E+03  0.30813325249E+03  0.26298206767E+03 0.  0.
         25    1    4    4    0    0 -0.54484309240E+02 -0.57063496861E+02  0.41438656132E+02  0.15358858340E+03  0.12509000000E+03 0.  0.
         25    1    3    3    0    0  0.97377080717E+02  0.43107656129E+02  0.50573955806E+02  0.17188891463E+03  0.12509000000E+03 0.  0.
         25    1    4    4    0    0 -0.42892771477E+02  0.13955840732E+02  0.78752722564E+02  0.15454466910E+03  0.12509000000E+03 0.  0.
<mgrwt>
<rscale>  2 0.44862064E+03</rscale>
<asrwt>0</asrwt>
<pdfrwt beam="1">  1       21 0.47852022E-01 0.44862064E+03</pdfrwt>
<pdfrwt beam="2">  1       21 0.22739473E-01 0.44862064E+03</pdfrwt>
<totfact> 0.70185953E+04</totfact>
</mgrwt>
</event>
<event>
 7    0  0.4685107E-002  0.4541160E+03  0.7546771E-02  0.1026502E+00
         21   -1    0    0  502  501  0.00000000000E+00  0.00000000000E+00  0.39849524061E+02  0.39849524061E+02  0.00000000000E+00 0. -1.
         21   -1    0    0  501  502 -0.00000000000E+00 -0.00000000000E+00 -0.12937501296E+04  0.12937501296E+04  0.00000000000E+00 0. -1.
      99926    2    1    2    0    0  0.00000000000E+00  0.14210854715E-13 -0.12539006056E+04  0.13335996537E+04  0.45411596281E+03 0.  0.
      99925    2    3    3    0    0 -0.10735604715E+02 -0.10906332758E+03 -0.71638469690E+03  0.77094441040E+03  0.26294141428E+03 0.  0.
         25    1    3    3    0    0  0.10735604715E+02  0.10906332758E+03 -0.53751590869E+03  0.56265524331E+03  0.12509000000E+03 0.  0.
         25    1    4    4    0    0 -0.26730276367E+02 -0.25824133411E+02 -0.39064116298E+03  0.41186092295E+03  0.12509000000E+03 0.  0.
         25    1    4    4    0    0  0.15994671652E+02 -0.83239194165E+02 -0.32574353392E+03  0.35908348745E+03  0.12509000000E+03 0.  0.
<mgrwt>
<rscale>  2 0.45411596E+03</rscale>
<asrwt>0</asrwt>
<pdfrwt beam="1">  1       21 0.58602244E-02 0.45411596E+03</pdfrwt>
<pdfrwt beam="2">  1       21 0.19025736E+00 0.45411596E+03</pdfrwt>
<totfact> 0.28348703E+04</totfact>
</mgrwt>
</event>
<event>
 7    0  0.4685107E-002  0.4535198E+03  0.7546771E-02  0.1026678E+00
         21   -1    0    0  502  501  0.00000000000E+00  0.00000000000E+00  0.39458781896E+03  0.39458781896E+03  0.00000000000E+00 0.  1.
         21   -1    0    0  501  502 -0.00000000000E+00 -0.00000000000E+00 -0.13031331313E+03  0.13031331313E+03  0.00000000000E+00 0.  1.
      99926    2    1    2    0    0  0.00000000000E+00  0.14210854715E-13  0.26427450582E+03  0.52490113209E+03  0.45351977249E+03 0.  0.
      99925    2    3    3    0    0  0.12422857511E+02  0.10074131962E+03  0.22059599348E+03  0.35799259004E+03  0.26304554989E+03 0.  0.
         25    1    4    4    0    0  0.62923809874E+01  0.10398252586E+02  0.78779124820E+02  0.14832860925E+03  0.12509000000E+03 0.  0.
         25    1    3    3    0    0 -0.12422857511E+02 -0.10074131962E+03  0.43678512342E+02  0.16690854205E+03  0.12509000000E+03 0.  0.
         25    1    4    4    0    0  0.61304765233E+01  0.90343067036E+02  0.14181686866E+03  0.20966398079E+03  0.12509000000E+03 0.  0.
<mgrwt>
<rscale>  2 0.45351977E+03</rscale>
<asrwt>0</asrwt>
<pdfrwt beam="1">  1       21 0.58027620E-01 0.45351977E+03</pdfrwt>
<pdfrwt beam="2">  1       21 0.19163723E-01 0.45351977E+03</pdfrwt>
<totfact> 0.64304238E+04</totfact>
</mgrwt>
</event>
<event>
 7    0  0.4685107E-002  0.4562773E+03  0.7546771E-02  0.1025866E+00
         21   -1    0    0  502  501  0.00000000000E+00  0.00000000000E+00  0.76024705614E+02  0.76024705614E+02  0.00000000000E+00 0.  1.
         21   -1    0    0  501  502 -0.00000000000E+00 -0.00000000000E+00 -0.68460954846E+03  0.68460954846E+03  0.00000000000E+00 0.  1.
      99926    2    1    2    0    0 -0.17763568394E-14  0.00000000000E+00 -0.60858484284E+03  0.76063425407E+03  0.45627728141E+03 0.  0.
      99925    2    3    3    0    0  0.13455623549E+02  0.10328767081E+03 -0.29799909533E+03  0.40997714035E+03  0.26158822230E+03 0.  0.
         25    1    3    3    0    0 -0.13455623549E+02 -0.10328767081E+03 -0.31058574751E+03  0.35065711372E+03  0.12509000000E+03 0.  0.
         25    1    4    4    0    0 -0.21282226062E+02  0.66893319948E+02 -0.18475287148E+03  0.23389908298E+03  0.12509000000E+03 0.  0.
         25    1    4    4    0    0  0.34737849611E+02  0.36394350859E+02 -0.11324622385E+03  0.17607805737E+03  0.12509000000E+03 0.  0.
<mgrwt>
<rscale>  2 0.45627728E+03</rscale>
<asrwt>0</asrwt>
<pdfrwt beam="1">  1       21 0.11180104E-01 0.45627728E+03</pdfrwt>
<pdfrwt beam="2">  1       21 0.10067787E+00 0.45627728E+03</pdfrwt>
<totfact> 0.49231839E+04</totfact>
</mgrwt>
</event>
<event>
 7    0  0.4685107E-002  0.4410261E+03  0.7546771E-02  0.1030432E+00
         21   -1    0    0  502  501  0.00000000000E+00  0.00000000000E+00  0.95673442536E+02  0.95673442536E+02  0.00000000000E+00 0. -1.
         21   -1    0    0  501  502 -0.00000000000E+00 -0.00000000000E+00 -0.50824969926E+03  0.50824969926E+03  0.00000000000E+00 0. -1.
      99926    2    1    2    0    0  0.00000000000E+00  0.17763568394E-14 -0.41257625673E+03  0.60392314180E+03  0.44102606905E+03 0.  0.
      99925    2    3    3    0    0  0.53356297115E+02 -0.99917038490E+01 -0.37727832132E+03  0.46306796464E+03  0.26295680169E+03 0.  0.
         25    1    4    4    0    0  0.25015685712E+02 -0.45099025728E+02 -0.19962060482E+03  0.24115472340E+03  0.12509000000E+03 0.  0.
         25    1    4    4    0    0  0.28340611402E+02  0.35107321879E+02 -0.17765771650E+03  0.22191324124E+03  0.12509000000E+03 0.  0.
         25    1    3    3    0    0 -0.53356297115E+02  0.99917038490E+01 -0.35297935410E+02  0.14085517716E+03  0.12509000000E+03 0.  0.
<mgrwt>
<rscale>  2 0.44102607E+03</rscale>
<asrwt>0</asrwt>
<pdfrwt beam="1">  1       21 0.14069624E-01 0.44102607E+03</pdfrwt>
<pdfrwt beam="2">  1       21 0.74742604E-01 0.44102607E+03</pdfrwt>
<totfact> 0.65359167E+04</totfact>
</mgrwt>
</event>
<event>
 7    0  0.4685107E-002  0.4551562E+03  0.7546771E-02  0.1026195E+00
         21   -1    0    0  502  501  0.00000000000E+00  0.00000000000E+00  0.75306743992E+02  0.75306743992E+02  0.00000000000E+00 0.  1.
         21   -1    0    0  501  502 -0.00000000000E+00 -0.00000000000E+00 -0.68774433573E+03  0.68774433573E+03  0.00000000000E+00 0.  1.
      99926    2    1    2    0    0  0.71054273576E-14  0.00000000000E+00 -0.61243759174E+03  0.76305107972E+03  0.45515617813E+03 0.  0.
      99925    2    3    3    0    0  0.63288205378E+02 -0.61306773929E+00 -0.54295600386E+03  0.60658711599E+03  0.26294663787E+03 0.  0.
         25    1    3    3    0    0 -0.63288205378E+02  0.61306773929E+00 -0.69481587880E+02  0.15646396373E+03  0.12509000000E+03 0.  0.
         25    1    4    4    0    0 -0.21602278883E+01 -0.21339987699E+02 -0.23170345829E+03  0.26418565885E+03  0.12509000000E+03 0.  0.
         25    1    4    4    0    0  0.65448433266E+02  0.20726919959E+02 -0.31125254557E+03  0.34240145714E+03  0.12509000000E+03 0.  0.
<mgrwt>
<rscale>  2 0.45515618E+03</rscale>
<asrwt>0</asrwt>
<pdfrwt beam="1">  1       21 0.11074521E-01 0.45515618E+03</pdfrwt>
<pdfrwt beam="2">  1       21 0.10113887E+00 0.45515618E+03</pdfrwt>
<totfact> 0.49542849E+04</totfact>
</mgrwt>
</event>
<event>
 7    0  0.4685107E-002  0.4527951E+03  0.7546771E-02  0.1026892E+00
         21   -1    0    0  502  501  0.00000000000E+00  0.00000000000E+00  0.24766181297E+03  0.24766181297E+03  0.00000000000E+00 0.  1.
         21   -1    0    0  501  502 -0.00000000000E+00 -0.00000000000E+00 -0.20695905432E+03  0.20695905432E+03  0.00000000000E+00 0.  1.
      99926    2    1    2    0    0  0.00000000000E+00  0.00000000000E+00  0.40702758649E+02  0.45462086729E+03  0.45279511748E+03 0.  0.
      99925    2    3    3    0    0 -0.26632656694E+02  0.82453377919E+01 -0.82265571612E+02  0.27700892415E+03  0.26303808809E+03 0.  0.
         25    1    3    3    0    0  0.26632656694E+02 -0.82453377919E+01  0.12296833026E+03  0.17761194314E+03  0.12509000000E+03 0.  0.
         25    1    4    4    0    0 -0.52841054012E+02  0.47920658942E+01 -0.53010653561E+02  0.14585190563E+03  0.12509000000E+03 0.  0.
         25    1    4    4    0    0  0.26208397318E+02  0.34532718977E+01 -0.29254918051E+02  0.13115701852E+03  0.12509000000E+03 0.  0.
<mgrwt>
<rscale>  2 0.45279512E+03</rscale>
<asrwt>0</asrwt>
<pdfrwt beam="1">  1       21 0.36420855E-01 0.45279512E+03</pdfrwt>
<pdfrwt beam="2">  1       21 0.30435155E-01 0.45279512E+03</pdfrwt>
<totfact> 0.69793338E+04</totfact>
</mgrwt>
</event>
<event>
 7    0  0.4685107E-002  0.4542215E+03  0.7546771E-02  0.1026471E+00
         21   -1    0    0  502  501  0.00000000000E+00  0.00000000000E+00  0.54672931500E+02  0.54672931500E+02  0.00000000000E+00 0. -1.
         21   -1    0    0  501  502 -0.00000000000E+00 -0.00000000000E+00 -0.94341545564E+03  0.94341545564E+03  0.00000000000E+00 0. -1.
      99926    2    1    2    0    0  0.00000000000E+00 -0.71054273576E-14 -0.88874252414E+03  0.99808838714E+03  0.45422148158E+03 0.  0.
      99925    2    3    3    0    0 -0.96021789908E+02 -0.43827793084E+02 -0.64483079731E+03  0.70435126288E+03  0.26298837384E+03 0.  0.
         25    1    4    4    0    0 -0.75507761686E+02 -0.30226906400E+02 -0.42235943404E+03  0.44793982584E+03  0.12509000000E+03 0.  0.
         25    1    3    3    0    0  0.96021789908E+02  0.43827793084E+02 -0.24391172684E+03  0.29373712427E+03  0.12509000000E+03 0.  0.
         25    1    4    4    0    0 -0.20514028223E+02 -0.13600886684E+02 -0.22247136326E+03  0.25641143704E+03  0.12509000000E+03 0.  0.
<mgrwt>
<rscale>  2 0.45422148E+03</rscale>
<asrwt>0</asrwt>
<pdfrwt beam="1">  1       21 0.80401376E-02 0.45422148E+03</pdfrwt>
<pdfrwt beam="2">  1       21 0.13873756E+00 0.45422148E+03</pdfrwt>
<totfact> 0.39480738E+04</totfact>
</mgrwt>
</event>
<event>
 7    0  0.4685107E-002  0.4555927E+03  0.7546771E-02  0.1026067E+00
         21   -1    0    0  502  501  0.00000000000E+00  0.00000000000E+00  0.10864861491E+03  0.10864861491E+03  0.00000000000E+00 0.  1.
         21   -1    0    0  501  502 -0.00000000000E+00 -0.00000000000E+00 -0.47760542424E+03  0.47760542424E+03  0.00000000000E+00 0.  1.
      99926    2    1    2    0    0  0.35527136788E-14  0.00000000000E+00 -0.36895680933E+03  0.58625403914E+03  0.45559265936E+03 0.  0.
      99925    2    3    3    0    0 -0.20651555003E+02 -0.11012302332E+03 -0.21017464262E+03  0.35514183359E+03  0.26343647162E+03 0.  0.
         25    1    4    4    0    0  0.27168689646E+02 -0.60509690355E+02 -0.84367640503E+02  0.16481798199E+03  0.12509000000E+03 0.  0.
         25    1    3    3    0    0  0.20651555003E+02  0.11012302332E+03 -0.15878216671E+03  0.23111220555E+03  0.12509000000E+03 0.  0.
         25    1    4    4    0    0 -0.47820244649E+02 -0.49613332968E+02 -0.12580700212E+03  0.19032385160E+03  0.12509000000E+03 0.  0.
<mgrwt>
<rscale>  2 0.45559266E+03</rscale>
<asrwt>0</asrwt>
<pdfrwt beam="1">  1       21 0.15977737E-01 0.45559266E+03</pdfrwt>
<pdfrwt beam="2">  1       21 0.70236093E-01 0.45559266E+03</pdfrwt>
<totfact> 0.59254373E+04</totfact>
</mgrwt>
</event>
<event>
 7    0  0.4685107E-002  0.4577177E+03  0.7546771E-02  0.1025445E+00
         21   -1    0    0  502  501  0.00000000000E+00  0.00000000000E+00  0.78245573046E+02  0.78245573046E+02  0.00000000000E+00 0.  1.
         21   -1    0    0  501  502 -0.00000000000E+00 -0.00000000000E+00 -0.66938450545E+03  0.66938450545E+03  0.00000000000E+00 0.  1.
      99926    2    1    2    0    0  0.00000000000E+00  0.00000000000E+00 -0.59113893240E+03  0.74763007849E+03  0.45771770434E+03 0.  0.
      99925    2    3    3    0    0 -0.23020303511E+02 -0.22155805538E+02 -0.55271601997E+03  0.61292802805E+03  0.26299230930E+03 0.  0.
         25    1    4    4    0    0 -0.20252448980E+02 -0.29384730055E+01 -0.36615898809E+03  0.38747736575E+03  0.12509000000E+03 0.  0.
         25    1    4    4    0    0 -0.27678545310E+01 -0.19217332532E+02 -0.18655703188E+03  0.22545066230E+03  0.12509000000E+03 0.  0.
         25    1    3    3    0    0  0.23020303511E+02  0.22155805538E+02 -0.38422912434E+02  0.13470205044E+03  0.12509000000E+03 0.  0.
<mgrwt>
<rscale>  2 0.45771770E+03</rscale>
<asrwt>0</asrwt>
<pdfrwt beam="1">  1       21 0.11506702E-01 0.45771770E+03</pdfrwt>
<pdfrwt beam="2">  1       21 0.98438900E-01 0.45771770E+03</pdfrwt>
<totfact> 0.49329847E+04</totfact>
</mgrwt>
</event>
<event>
 7    0  0.4685107E-002  0.4532255E+03  0.7546771E-02  0.1026765E+00
         21   -1    0    0  502  501  0.00000000000E+00  0.00000000000E+00  0.82191052488E+02  0.82191052488E+02  0.00000000000E+00 0. -1.
         21   -1    0    0  501  502 -0.00000000000E+00 -0.00000000000E+00 -0.62480460022E+03  0.62480460022E+03  0.00000000000E+00 0. -1.
      99926    2    1    2    0    0  0.00000000000E+00  0.28865798640E-14 -0.54261354774E+03  0.70699565271E+03  0.45322554073E+03 0.  0.
      99925    2    3    3    0    0 -0.70312163885E+02 -0.94628448801E+00 -0.20700059025E+03  0.34199118538E+03  0.26299055243E+03 0.  0.
         25    1    4    4    0    0 -0.40170723753E+02 -0.37427824840E+02 -0.12463314639E+03  0.18492014060E+03  0.12509000000E+03 0.  0.
         25    1    3    3    0    0  0.70312163885E+02  0.94628448801E+00 -0.33561295748E+03  0.36500446734E+03  0.12509000000E+03 0.  0.
         25    1    4    4    0    0 -0.30141440132E+02  0.36481540352E+02 -0.82367443862E+02  0.15707104478E+03  0.12509000000E+03 0.  0.
<mgrwt>
<rscale>  2 0.45322554E+03</rscale>
<asrwt>0</asrwt>
<pdfrwt beam="1">  1       21 0.12086919E-01 0.45322554E+03</pdfrwt>
<pdfrwt beam="2">  1       21 0.91883032E-01 0.45322554E+03</pdfrwt>
<totfact> 0.53264574E+04</totfact>
</mgrwt>
</event>
<event>
 7    0  0.4685107E-002  0.4487291E+03  0.7546771E-02  0.1028102E+00
         21   -1    0    0  502  501  0.00000000000E+00  0.00000000000E+00  0.54210361121E+03  0.54210361121E+03  0.00000000000E+00 0. -1.
         21   -1    0    0  501  502 -0.00000000000E+00 -0.00000000000E+00 -0.92859452030E+02  0.92859452030E+02  0.00000000000E+00 0. -1.
      99926    2    1    2    0    0  0.00000000000E+00  0.00000000000E+00  0.44924415918E+03  0.63496306324E+03  0.44872906873E+03 0.  0.
      99925    2    3    3    0    0 -0.82481554107E+02 -0.41257249367E+02  0.36150241724E+03  0.45649320928E+03  0.26305262792E+03 0.  0.
         25    1    3    3    0    0  0.82481554107E+02  0.41257249367E+02  0.87741741931E+02  0.17846985395E+03  0.12509000000E+03 0.  0.
         25    1    4    4    0    0 -0.63749253235E+02  0.22403549491E+00  0.22941900765E+03  0.26896952736E+03  0.12509000000E+03 0.  0.
         25    1    4    4    0    0 -0.18732300872E+02 -0.41481284862E+02  0.13208340960E+03  0.18752368192E+03  0.12509000000E+03 0.  0.
<mgrwt>
<rscale>  2 0.44872907E+03</rscale>
<asrwt>0</asrwt>
<pdfrwt beam="1">  1       21 0.79721117E-01 0.44872907E+03</pdfrwt>
<pdfrwt beam="2">  1       21 0.13655802E-01 0.44872907E+03</pdfrwt>
<totfact> 0.59465094E+04</totfact>
</mgrwt>
</event>
<event>
 7    0  0.4685107E-002  0.4355350E+03  0.7546771E-02  0.1032126E+00
         21   -1    0    0  502  501  0.00000000000E+00  0.00000000000E+00  0.15741802639E+03  0.15741802639E+03  0.00000000000E+00 0. -1.
         21   -1    0    0  501  502 -0.00000000000E+00 -0.00000000000E+00 -0.30125325189E+03  0.30125325189E+03  0.00000000000E+00 0. -1.
      99926    2    1    2    0    0  0.00000000000E+00  0.44408920985E-15 -0.14383522549E+03  0.45867127828E+03  0.43553503812E+03 0.  0.
      99925    2    3    3    0    0  0.93509457771E+02  0.38965520968E+01 -0.85750733371E+02  0.29199639074E+03  0.26296292918E+03 0.  0.
         25    1    3    3    0    0 -0.93509457771E+02 -0.38965520968E+01 -0.58084492123E+02  0.16667488754E+03  0.12509000000E+03 0.  0.
         25    1    4    4    0    0  0.83562006133E+02  0.93611434656E+01 -0.26175434897E+02  0.15298006853E+03  0.12509000000E+03 0.  0.
         25    1    4    4    0    0  0.99474516381E+01 -0.54645913688E+01 -0.59575298474E+02  0.13901632221E+03  0.12509000000E+03 0.  0.
<mgrwt>
<rscale>  2 0.43553504E+03</rscale>
<asrwt>0</asrwt>
<pdfrwt beam="1">  1       21 0.23149710E-01 0.43553504E+03</pdfrwt>
<pdfrwt beam="2">  1       21 0.44301948E-01 0.43553504E+03</pdfrwt>
<totfact> 0.79937950E+04</totfact>
</mgrwt>
</event>
<event>
 7    0  0.5940889E-002  0.4129131E+03  0.7546771E-02  0.1039398E+00
         21   -1    0    0  502  501  0.00000000000E+00  0.00000000000E+00  0.14440601278E+03  0.14440601278E+03  0.00000000000E+00 0.  1.
         21   -1    0    0  501  502 -0.00000000000E+00 -0.00000000000E+00 -0.29516987590E+03  0.29516987590E+03  0.00000000000E+00 0.  1.
      99926    2    1    2    0    0  0.35527136788E-14  0.71054273576E-14 -0.15076386313E+03  0.43957588868E+03  0.41291308950E+03 0.  0.
      99925    2    3    3    0    0 -0.24945123137E+02  0.58047112044E+02 -0.87079154261E+02  0.28564416151E+03  0.26460929975E+03 0.  0.
         25    1    4    4    0    0  0.10754129947E+02  0.31756352861E+02 -0.81083002494E+02  0.15279423632E+03  0.12509000000E+03 0.  0.
         25    1    3    3    0    0  0.24945123137E+02 -0.58047112044E+02 -0.63684708868E+02  0.15393172717E+03  0.12509000000E+03 0.  0.
         25    1    4    4    0    0 -0.35699253084E+02  0.26290759183E+02 -0.59961517669E+01  0.13284992520E+03  0.12509000000E+03 0.  0.
<mgrwt>
<rscale>  2 0.41291309E+03</rscale>
<asrwt>0</asrwt>
<pdfrwt beam="1">  1       21 0.21236179E-01 0.41291309E+03</pdfrwt>
<pdfrwt beam="2">  1       21 0.43407334E-01 0.41291309E+03</pdfrwt>
<totfact> 0.98887242E+04</totfact>
</mgrwt>
</event>
<event>
 7    0  0.4685107E-002  0.4642519E+03  0.7546771E-02  0.1023555E+00
         21   -1    0    0  502  501  0.00000000000E+00  0.00000000000E+00  0.78225542343E+02  0.78225542343E+02  0.00000000000E+00 0.  1.
         21   -1    0    0  501  502 -0.00000000000E+00 -0.00000000000E+00 -0.68880910805E+03  0.68880910805E+03  0.00000000000E+00 0.  1.
      99926    2    1    2    0    0 -0.71054273576E-14  0.00000000000E+00 -0.61058356571E+03  0.76703465040E+03  0.46425194043E+03 0.  0.
      99925    2    3    3    0    0  0.39860498357E+02 -0.14298497802E+02 -0.56924372301E+03  0.62865185861E+03  0.26338457962E+03 0.  0.
         25    1    3    3    0    0 -0.39860498357E+02  0.14298497802E+02 -0.41339842704E+02  0.13838279179E+03  0.12509000000E+03 0.  0.
         25    1    4    4    0    0 -0.32928895243E+01 -0.32864711283E+02 -0.33280667152E+03  0.35706963057E+03  0.12509000000E+03 0.  0.
         25    1    4    4    0    0  0.43153387881E+02  0.18566213481E+02 -0.23643705149E+03  0.27158222804E+03  0.12509000000E+03 0.  0.
<mgrwt>
<rscale>  2 0.46425194E+03</rscale>
<asrwt>0</asrwt>
<pdfrwt beam="1">  1       21 0.11503756E-01 0.46425194E+03</pdfrwt>
<pdfrwt beam="2">  1       21 0.10129546E+00 0.46425194E+03</pdfrwt>
<totfact> 0.45969624E+04</totfact>
</mgrwt>
</event>
<event>
 7    0  0.4685107E-002  0.4446402E+03  0.7546771E-02  0.1029333E+00
         21   -1    0    0  502  501  0.00000000000E+00  0.00000000000E+00  0.55760062645E+03  0.55760062645E+03  0.00000000000E+00 0. -1.
         21   -1    0    0  501  502 -0.00000000000E+00 -0.00000000000E+00 -0.88640894222E+02  0.88640894222E+02  0.00000000000E+00 0. -1.
      99926    2    1    2    0    0  0.00000000000E+00  0.00000000000E+00  0.46895973222E+03  0.64624152067E+03  0.44464016079E+03 0.  0.
      99925    2    3    3    0    0  0.90321446054E+02 -0.10877096323E+02  0.22743659475E+03  0.35943634485E+03  0.26304145400E+03 0.  0.
         25    1    4    4    0    0  0.76764029847E+02 -0.34562711527E+01  0.86643050994E+02  0.17046755842E+03  0.12509000000E+03 0.  0.
         25    1    4    4    0    0  0.13557416207E+02 -0.74208251706E+01  0.14079354376E+03  0.18896878643E+03  0.12509000000E+03 0.  0.
         25    1    3    3    0    0 -0.90321446054E+02  0.10877096323E+02  0.24152313748E+03  0.28680517582E+03  0.12509000000E+03 0.  0.
<mgrwt>
<rscale>  2 0.44464016E+03</rscale>
<asrwt>0</asrwt>
<pdfrwt beam="1">  1       21 0.82000090E-01 0.44464016E+03</pdfrwt>
<pdfrwt beam="2">  1       21 0.13035426E-01 0.44464016E+03</pdfrwt>
<totfact> 0.60732113E+04</totfact>
</mgrwt>
</event>
<event>
 7    0  0.4685107E-002  0.4570229E+03  0.7546771E-02  0.1025648E+00
         21   -1    0    0  502  501  0.00000000000E+00  0.00000000000E+00  0.43424368187E+02  0.43424368187E+02  0.00000000000E+00 0. -1.
         21   -1    0    0  501  502 -0.00000000000E+00 -0.00000000000E+00 -0.12024927069E+04  0.12024927069E+04  0.00000000000E+00 0. -1.
      99926    2    1    2    0    0  0.14210854715E-13  0.00000000000E+00 -0.11590683387E+04  0.12459170751E+04  0.45702291429E+03 0.  0.
      99925    2    3    3    0    0  0.68213132258E+02 -0.87948465903E+02 -0.80781634700E+03  0.85679828364E+03  0.26296023333E+03 0.  0.
         25    1    4    4    0    0  0.20316525235E+01 -0.16478750110E+02 -0.39043938589E+03  0.41032438262E+03  0.12509000000E+03 0.  0.
         25    1    4    4    0    0  0.66181479735E+02 -0.71469715793E+02 -0.41737696110E+03  0.44647390102E+03  0.12509000000E+03 0.  0.
         25    1    3    3    0    0 -0.68213132258E+02  0.87948465903E+02 -0.35125199170E+03  0.38911879143E+03  0.12509000000E+03 0.  0.
<mgrwt>
<rscale>  2 0.45702291E+03</rscale>
<asrwt>0</asrwt>
<pdfrwt beam="1">  1       21 0.63859372E-02 0.45702291E+03</pdfrwt>
<pdfrwt beam="2">  1       21 0.17683714E+00 0.45702291E+03</pdfrwt>
<totfact> 0.30247563E+04</totfact>
</mgrwt>
</event>
<event>
 7    0  0.4685107E-002  0.4776937E+03  0.7546771E-02  0.1019771E+00
         21   -1    0    0  502  501  0.00000000000E+00  0.00000000000E+00  0.39150977669E+03  0.39150977669E+03  0.00000000000E+00 0. -1.
         21   -1    0    0  501  502 -0.00000000000E+00 -0.00000000000E+00 -0.14571238504E+03  0.14571238504E+03  0.00000000000E+00 0. -1.
      99926    2    1    2    0    0  0.00000000000E+00  0.00000000000E+00  0.24579739165E+03  0.53722216172E+03  0.47769372333E+03 0.  0.
      99925    2    3    3    0    0  0.96518641446E+02 -0.65982529863E+02  0.79659987906E+02  0.29864578524E+03  0.26300959864E+03 0.  0.
         25    1    3    3    0    0 -0.96518641446E+02  0.65982529863E+02  0.16613740374E+03  0.23857637648E+03  0.12509000000E+03 0.  0.
         25    1    4    4    0    0  0.10725261245E+02 -0.94600056300E+01  0.32148933934E+02  0.12994454582E+03  0.12509000000E+03 0.  0.
         25    1    4    4    0    0  0.85793380201E+02 -0.56522524233E+02  0.47511053973E+02  0.16870123942E+03  0.12509000000E+03 0.  0.
<mgrwt>
<rscale>  2 0.47769372E+03</rscale>
<asrwt>0</asrwt>
<pdfrwt beam="1">  1       21 0.57574967E-01 0.47769372E+03</pdfrwt>
<pdfrwt beam="2">  1       21 0.21428292E-01 0.47769372E+03</pdfrwt>
<totfact> 0.52600885E+04</totfact>
</mgrwt>
</event>
<event>
 7    0  0.4685107E-002  0.4476618E+03  0.7546771E-02  0.1028422E+00
         21   -1    0    0  502  501  0.00000000000E+00  0.00000000000E+00  0.18656203974E+03  0.18656203974E+03  0.00000000000E+00 0.  1.
         21   -1    0    0  501  502 -0.00000000000E+00 -0.00000000000E+00 -0.26854481756E+03  0.26854481756E+03  0.00000000000E+00 0.  1.
      99926    2    1    2    0    0 -0.71054273576E-14  0.00000000000E+00 -0.81982777821E+02  0.45510685730E+03  0.44766178718E+03 0.  0.
      99925    2    3    3    0    0  0.22839632130E+02 -0.61009182464E+02  0.32650104636E+02  0.27335984912E+03  0.26346880012E+03 0.  0.
         25    1    4    4    0    0 -0.21017889514E+02 -0.37675374114E+02  0.40945596827E+02  0.13851077754E+03  0.12509000000E+03 0.  0.
         25    1    3    3    0    0 -0.22839632130E+02  0.61009182464E+02 -0.11463288246E+03  0.18174700818E+03  0.12509000000E+03 0.  0.
         25    1    4    4    0    0  0.43857521644E+02 -0.23333808350E+02 -0.82954921912E+01  0.13484907159E+03  0.12509000000E+03 0.  0.
<mgrwt>
<rscale>  2 0.44766179E+03</rscale>
<asrwt>0</asrwt>
<pdfrwt beam="1">  1       21 0.27435594E-01 0.44766179E+03</pdfrwt>
<pdfrwt beam="2">  1       21 0.39491885E-01 0.44766179E+03</pdfrwt>
<totfact> 0.72700134E+04</totfact>
</mgrwt>
</event>
<event>
 7    0  0.4685107E-002  0.4714869E+03  0.7546771E-02  0.1021501E+00
         21   -1    0    0  502  501  0.00000000000E+00  0.00000000000E+00  0.12173780911E+04  0.12173780911E+04  0.00000000000E+00 0.  1.
         21   -1    0    0  501  502 -0.00000000000E+00 -0.00000000000E+00 -0.45651372236E+02  0.45651372236E+02  0.00000000000E+00 0.  1.
      99926    2    1    2    0    0  0.00000000000E+00  0.71054273576E-14  0.11717267189E+04  0.12630294634E+04  0.47148692618E+03 0.  0.
      99925    2    3    3    0    0 -0.10188659946E+03 -0.62754161850E+02  0.60366087963E+03  0.66917319303E+03  0.26280666029E+03 0.  0.
         25    1    3    3    0    0  0.10188659946E+03  0.62754161850E+02  0.56806583925E+03  0.59385627032E+03  0.12509000000E+03 0.  0.
         25    1    4    4    0    0 -0.22039817396E+02 -0.23191189761E+00  0.24298617516E+03  0.27418168566E+03  0.12509000000E+03 0.  0.
         25    1    4    4    0    0 -0.79846782068E+02 -0.62522249953E+02  0.36067470447E+03  0.39499150737E+03  0.12509000000E+03 0.  0.
<mgrwt>
<rscale>  2 0.47148693E+03</rscale>
<asrwt>0</asrwt>
<pdfrwt beam="1">  1       21 0.17902617E+00 0.47148693E+03</pdfrwt>
<pdfrwt beam="2">  1       21 0.67134379E-02 0.47148693E+03</pdfrwt>
<totfact> 0.26623435E+04</totfact>
</mgrwt>
</event>
<event>
 7    0  0.4685107E-002  0.4542016E+03  0.7546771E-02  0.1026476E+00
         21   -1    0    0  502  501  0.00000000000E+00  0.00000000000E+00  0.83348776829E+02  0.83348776829E+02  0.00000000000E+00 0. -1.
         21   -1    0    0  501  502 -0.00000000000E+00 -0.00000000000E+00 -0.61878253655E+03  0.61878253655E+03  0.00000000000E+00 0. -1.
      99926    2    1    2    0    0  0.00000000000E+00  0.00000000000E+00 -0.53543375972E+03  0.70213131338E+03  0.45420157439E+03 0.  0.
      99925    2    3    3    0    0  0.60878296340E+02  0.83160928305E+02 -0.40653239242E+03  0.49504442931E+03  0.26301804870E+03 0.  0.
         25    1    4    4    0    0  0.17588799687E+02  0.18073304422E+01 -0.20078492292E+03  0.23722294512E+03  0.12509000000E+03 0.  0.
         25    1    3    3    0    0 -0.60878296340E+02 -0.83160928305E+02 -0.12890136731E+03  0.20708688407E+03  0.12509000000E+03 0.  0.
         25    1    4    4    0    0  0.43289496654E+02  0.81353597863E+02 -0.20574746949E+03  0.25782148419E+03  0.12509000000E+03 0.  0.
<mgrwt>
<rscale>  2 0.45420157E+03</rscale>
<asrwt>0</asrwt>
<pdfrwt beam="1">  1       21 0.12257173E-01 0.45420157E+03</pdfrwt>
<pdfrwt beam="2">  1       21 0.90997433E-01 0.45420157E+03</pdfrwt>
<totfact> 0.53120361E+04</totfact>
</mgrwt>
</event>
<event>
 7    0  0.4685107E-002  0.4458778E+03  0.7546771E-02  0.1028959E+00
         21   -1    0    0  502  501  0.00000000000E+00  0.00000000000E+00  0.24320858536E+04  0.24320858536E+04  0.00000000000E+00 0.  1.
         21   -1    0    0  501  502 -0.00000000000E+00 -0.00000000000E+00 -0.20435852184E+02  0.20435852184E+02  0.00000000000E+00 0.  1.
      99926    2    1    2    0    0  0.14210854715E-13  0.00000000000E+00  0.24116500014E+04  0.24525217057E+04  0.44587777250E+03 0.  0.
      99925    2    3    3    0    0 -0.76125730132E+02 -0.26823565946E+02  0.11676436997E+04  0.11996395017E+04  0.26311308240E+03 0.  0.
         25    1    4    4    0    0 -0.70034548861E+01  0.14241323874E+02  0.50285097098E+03  0.51841920373E+03  0.12509000000E+03 0.  0.
         25    1    4    4    0    0 -0.69122275246E+02 -0.41064889820E+02  0.66479272868E+03  0.68122029793E+03  0.12509000000E+03 0.  0.
         25    1    3    3    0    0  0.76125730132E+02  0.26823565946E+02  0.12440063017E+04  0.12528822041E+04  0.12509000000E+03 0.  0.
<mgrwt>
<rscale>  2 0.44587777E+03</rscale>
<asrwt>0</asrwt>
<pdfrwt beam="1">  1       21 0.35765949E+00 0.44587777E+03</pdfrwt>
<pdfrwt beam="2">  1       21 0.30052740E-02 0.44587777E+03</pdfrwt>
<totfact> 0.81959073E+03</totfact>
</mgrwt>
</event>
<event>
 7    0  0.4685107E-002  0.4604351E+03  0.7546771E-02  0.1024655E+00
         21   -1    0    0  502  501  0.00000000000E+00  0.00000000000E+00  0.10855719126E+03  0.10855719126E+03  0.00000000000E+00 0.  1.
         21   -1    0    0  501  502 -0.00000000000E+00 -0.00000000000E+00 -0.48822301658E+03  0.48822301658E+03  0.00000000000E+00 0.  1.
      99926    2    1    2    0    0  0.71054273576E-14  0.00000000000E+00 -0.37966582532E+03  0.59678020783E+03  0.46043509591E+03 0.  0.
      99925    2    3    3    0    0 -0.43061236110E+02 -0.84653332833E+02 -0.14650244915E+03  0.31565190100E+03  0.26296900612E+03 0.  0.
         25    1    3    3    0    0  0.43061236110E+02  0.84653332833E+02 -0.23316337618E+03  0.28112830684E+03  0.12509000000E+03 0.  0.
         25    1    4    4    0    0 -0.42333660681E+02 -0.98302463129E+01 -0.53972871119E+02  0.14300122897E+03  0.12509000000E+03 0.  0.
         25    1    4    4    0    0 -0.72757542894E+00 -0.74823086520E+02 -0.92529578027E+02  0.17265067203E+03  0.12509000000E+03 0.  0.
<mgrwt>
<rscale>  2 0.46043510E+03</rscale>
<asrwt>0</asrwt>
<pdfrwt beam="1">  1       21 0.15964293E-01 0.46043510E+03</pdfrwt>
<pdfrwt beam="2">  1       21 0.71797503E-01 0.46043510E+03</pdfrwt>
<totfact> 0.56414606E+04</totfact>
</mgrwt>
</event>
<event>
 7    0  0.4685107E-002  0.4518678E+03  0.7546771E-02  0.1027167E+00
         21   -1    0    0  502  501  0.00000000000E+00  0.00000000000E+00  0.23302508657E+03  0.23302508657E+03  0.00000000000E+00 0. -1.
         21   -1    0    0  501  502 -0.00000000000E+00 -0.00000000000E+00 -0.21905853078E+03  0.21905853078E+03  0.00000000000E+00 0. -1.
      99926    2    1    2    0    0  0.00000000000E+00  0.00000000000E+00  0.13966555796E+02  0.45208361735E+03  0.45186782624E+03 0.  0.
      99925    2    3    3    0    0 -0.99499748436E+02  0.36810204790E+02 -0.20836877331E+02  0.28441138299E+03  0.26305981868E+03 0.  0.
         25    1    3    3    0    0  0.99499748436E+02 -0.36810204790E+02  0.34803433128E+02  0.16767223435E+03  0.12509000000E+03 0.  0.
         25    1    4    4    0    0 -0.25955569083E+02  0.48950650244E+02 -0.23270285439E+02  0.13877633808E+03  0.12509000000E+03 0.  0.
         25    1    4    4    0    0 -0.73544179353E+02 -0.12140445454E+02  0.24334081076E+01  0.14563504492E+03  0.12509000000E+03 0.  0.
<mgrwt>
<rscale>  2 0.45186783E+03</rscale>
<asrwt>0</asrwt>
<pdfrwt beam="1">  1       21 0.34268395E-01 0.45186783E+03</pdfrwt>
<pdfrwt beam="2">  1       21 0.32214490E-01 0.45186783E+03</pdfrwt>
<totfact> 0.70505611E+04</totfact>
</mgrwt>
</event>
<event>
 7    0  0.4685107E-002  0.4478871E+03  0.7546771E-02  0.1028354E+00
         21   -1    0    0  502  501  0.00000000000E+00  0.00000000000E+00  0.12392911765E+04  0.12392911765E+04  0.00000000000E+00 0. -1.
         21   -1    0    0  501  502 -0.00000000000E+00 -0.00000000000E+00 -0.40467264466E+02  0.40467264466E+02  0.00000000000E+00 0. -1.
      99926    2    1    2    0    0  0.00000000000E+00  0.00000000000E+00  0.11988239121E+04  0.12797584410E+04  0.44788714557E+03 0.  0.
      99925    2    3    3    0    0  0.47766151376E+02 -0.68733772385E+02  0.94684366279E+03  0.98624951301E+03  0.26300046286E+03 0.  0.
         25    1    4    4    0    0  0.39894338133E+02 -0.62230525436E+02  0.60170385669E+03  0.61899857493E+03  0.12509000000E+03 0.  0.
         25    1    3    3    0    0 -0.47766151376E+02  0.68733772385E+02  0.25198024928E+03  0.29350892799E+03  0.12509000000E+03 0.  0.
         25    1    4    4    0    0  0.78718132423E+01 -0.65032469491E+01  0.34513980610E+03  0.36725093808E+03  0.12509000000E+03 0.  0.
<mgrwt>
<rscale>  2 0.44788715E+03</rscale>
<asrwt>0</asrwt>
<pdfrwt beam="1">  1       21 0.18224868E+00 0.44788715E+03</pdfrwt>
<pdfrwt beam="2">  1       21 0.59510691E-02 0.44788715E+03</pdfrwt>
<totfact> 0.31410589E+04</totfact>
</mgrwt>
</event>
<event>
 7    0  0.4685107E-002  0.4562641E+03  0.7546771E-02  0.1025870E+00
         21   -1    0    0  502  501  0.00000000000E+00  0.00000000000E+00  0.10047273801E+03  0.10047273801E+03  0.00000000000E+00 0. -1.
         21   -1    0    0  501  502 -0.00000000000E+00 -0.00000000000E+00 -0.51799348034E+03  0.51799348034E+03  0.00000000000E+00 0. -1.
      99926    2    1    2    0    0  0.00000000000E+00  0.00000000000E+00 -0.41752074232E+03  0.61846621835E+03  0.45626406057E+03 0.  0.
      99925    2    3    3    0    0  0.71109274748E+02 -0.35573011200E+02 -0.37380147613E+03  0.46393191660E+03  0.26302720696E+03 0.  0.
         25    1    3    3    0    0 -0.71109274748E+02  0.35573011200E+02 -0.43719266198E+02  0.15453430175E+03  0.12509000000E+03 0.  0.
         25    1    4    4    0    0  0.62068272276E+02  0.71062027561E+01 -0.16076738799E+03  0.21306484854E+03  0.12509000000E+03 0.  0.
         25    1    4    4    0    0  0.90410024721E+01 -0.42679213956E+02 -0.21303408814E+03  0.25086706806E+03  0.12509000000E+03 0.  0.
<mgrwt>
<rscale>  2 0.45626406E+03</rscale>
<asrwt>0</asrwt>
<pdfrwt beam="1">  1       21 0.14775403E-01 0.45626406E+03</pdfrwt>
<pdfrwt beam="2">  1       21 0.76175511E-01 0.45626406E+03</pdfrwt>
<totfact> 0.56984813E+04</totfact>
</mgrwt>
</event>
<event>
 7    0  0.4685107E-002  0.3913693E+03  0.7546771E-02  0.1046810E+00
         21   -1    0    0  502  501  0.00000000000E+00  0.00000000000E+00  0.28326639191E+03  0.28326639191E+03  0.00000000000E+00 0.  1.
         21   -1    0    0  501  502 -0.00000000000E+00 -0.00000000000E+00 -0.13518187720E+03  0.13518187720E+03  0.00000000000E+00 0.  1.
      99926    2    1    2    0    0  0.00000000000E+00  0.00000000000E+00  0.14808451471E+03  0.41844826911E+03  0.39136930184E+03 0.  0.
      99925    2    3    3    0    0 -0.12508040883E+02  0.17451067412E+02  0.92065669631E+02  0.27971611731E+03  0.26325658190E+03 0.  0.
         25    1    3    3    0    0  0.12508040883E+02 -0.17451067412E+02  0.56018845079E+02  0.13873215181E+03  0.12509000000E+03 0.  0.
         25    1    4    4    0    0 -0.27539933885E+01 -0.10372003735E+02  0.83770681684E+02  0.15093110399E+03  0.12509000000E+03 0.  0.
         25    1    4    4    0    0 -0.97540474948E+01  0.27823071147E+02  0.82949879475E+01  0.12878501332E+03  0.12509000000E+03 0.  0.
<mgrwt>
<rscale>  2 0.39136930E+03</rscale>
<asrwt>0</asrwt>
<pdfrwt beam="1">  1       21 0.41656822E-01 0.39136930E+03</pdfrwt>
<pdfrwt beam="2">  1       21 0.19879688E-01 0.39136930E+03</pdfrwt>
<totfact> 0.12264870E+05</totfact>
</mgrwt>
</event>
<event>
 7    0  0.4685107E-002  0.4493444E+03  0.7546771E-02  0.1027918E+00
         21   -1    0    0  502  501  0.00000000000E+00  0.00000000000E+00  0.14522814834E+03  0.14522814834E+03  0.00000000000E+00 0.  1.
         21   -1    0    0  501  502 -0.00000000000E+00 -0.00000000000E+00 -0.34757444647E+03  0.34757444647E+03  0.00000000000E+00 0.  1.
      99926    2    1    2    0    0  0.00000000000E+00  0.00000000000E+00 -0.20234629813E+03  0.49280259481E+03  0.44934438139E+03 0.  0.
      99925    2    3    3    0    0 -0.13825259754E+02  0.41414752609E+02 -0.23612232083E+03  0.35607422413E+03  0.26292353100E+03 0.  0.
         25    1    4    4    0    0 -0.28781983825E+01  0.45085880976E+02 -0.16425215485E+03  0.21134639614E+03  0.12509000000E+03 0.  0.
         25    1    3    3    0    0  0.13825259754E+02 -0.41414752609E+02  0.33776022701E+02  0.13672837069E+03  0.12509000000E+03 0.  0.
         25    1    4    4    0    0 -0.10947061371E+02 -0.36711283661E+01 -0.71870165984E+02  0.14472782799E+03  0.12509000000E+03 0.  0.
<mgrwt>
<rscale>  2 0.44934438E+03</rscale>
<asrwt>0</asrwt>
<pdfrwt beam="1">  1       21 0.21357081E-01 0.44934438E+03</pdfrwt>
<pdfrwt beam="2">  1       21 0.51113889E-01 0.44934438E+03</pdfrwt>
<totfact> 0.68817491E+04</totfact>
</mgrwt>
</event>
<event>
 7    0  0.4685107E-002  0.4574012E+03  0.7546771E-02  0.1025538E+00
         21   -1    0    0  502  501  0.00000000000E+00  0.00000000000E+00  0.91440187145E+02  0.91440187145E+02  0.00000000000E+00 0.  1.
         21   -1    0    0  501  502 -0.00000000000E+00 -0.00000000000E+00 -0.57200201326E+03  0.57200201326E+03  0.00000000000E+00 0.  1.
      99926    2    1    2    0    0  0.14210854715E-13  0.00000000000E+00 -0.48056182611E+03  0.66344220040E+03  0.45740122929E+03 0.  0.
      99925    2    3    3    0    0  0.70798398363E+02  0.76443754556E+02 -0.22941869184E+03  0.36414896156E+03  0.26289821076E+03 0.  0.
         25    1    3    3    0    0 -0.70798398363E+02 -0.76443754556E+02 -0.25114313428E+03  0.29929323884E+03  0.12509000000E+03 0.  0.
         25    1    4    4    0    0  0.11030988418E+02  0.58396795854E+02 -0.14652930192E+03  0.20161897950E+03  0.12509000000E+03 0.  0.
         25    1    4    4    0    0  0.59767409944E+02  0.18046958702E+02 -0.82889389912E+02  0.16252998206E+03  0.12509000000E+03 0.  0.
<mgrwt>
<rscale>  2 0.45740123E+03</rscale>
<asrwt>0</asrwt>
<pdfrwt beam="1">  1       21 0.13447087E-01 0.45740123E+03</pdfrwt>
<pdfrwt beam="2">  1       21 0.84117941E-01 0.45740123E+03</pdfrwt>
<totfact> 0.53904990E+04</totfact>
</mgrwt>
</event>
<event>
 7    0  0.4685107E-002  0.4551773E+03  0.7546771E-02  0.1026189E+00
         21   -1    0    0  502  501  0.00000000000E+00  0.00000000000E+00  0.87925270250E+02  0.87925270250E+02  0.00000000000E+00 0. -1.
         21   -1    0    0  501  502 -0.00000000000E+00 -0.00000000000E+00 -0.58909782786E+03  0.58909782786E+03  0.00000000000E+00 0. -1.
      99926    2    1    2    0    0  0.00000000000E+00  0.00000000000E+00 -0.50117255761E+03  0.67702309811E+03  0.45517726533E+03 0.  0.
      99925    2    3    3    0    0  0.85240371434E+02  0.74180755284E+02 -0.30699351916E+03  0.41988167312E+03  0.26322403620E+03 0.  0.
         25    1    4    4    0    0  0.58126019193E+02  0.13055639193E+02 -0.19472450705E+03  0.23898582713E+03  0.12509000000E+03 0.  0.
         25    1    3    3    0    0 -0.85240371434E+02 -0.74180755284E+02 -0.19417903845E+03  0.25714142500E+03  0.12509000000E+03 0.  0.
         25    1    4    4    0    0  0.27114352241E+02  0.61125116090E+02 -0.11226901211E+03  0.18089584599E+03  0.12509000000E+03 0.  0.
<mgrwt>
<rscale>  2 0.45517727E+03</rscale>
<asrwt>0</asrwt>
<pdfrwt beam="1">  1       21 0.12930187E-01 0.45517727E+03</pdfrwt>
<pdfrwt beam="2">  1       21 0.86632035E-01 0.45517727E+03</pdfrwt>
<totfact> 0.54093242E+04</totfact>
</mgrwt>
</event>
<event>
 7    0  0.4685107E-002  0.4488399E+03  0.7546771E-02  0.1028069E+00
         21   -1    0    0  502  501  0.00000000000E+00  0.00000000000E+00  0.28548589383E+03  0.28548589383E+03  0.00000000000E+00 0. -1.
         21   -1    0    0  501  502 -0.00000000000E+00 -0.00000000000E+00 -0.17641608727E+03  0.17641608727E+03  0.00000000000E+00 0. -1.
      99926    2    1    2    0    0 -0.35527136788E-14 -0.14210854715E-13  0.10906980655E+03  0.46190198110E+03  0.44883985723E+03 0.  0.
      99925    2    3    3    0    0  0.30314707064E+02  0.78964646317E+02  0.16962887269E+01  0.27661577745E+03  0.26336099580E+03 0.  0.
         25    1    4    4    0    0 -0.61721290101E+00  0.49322292340E+02 -0.35857641942E+02  0.13916302691E+03  0.12509000000E+03 0.  0.
         25    1    3    3    0    0 -0.30314707064E+02 -0.78964646317E+02  0.10737351782E+03  0.18528620365E+03  0.12509000000E+03 0.  0.
         25    1    4    4    0    0  0.30931919965E+02  0.29642353977E+02  0.37553930669E+02  0.13745275054E+03  0.12509000000E+03 0.  0.
<mgrwt>
<rscale>  2 0.44883986E+03</rscale>
<asrwt>0</asrwt>
<pdfrwt beam="1">  1       21 0.41983220E-01 0.44883986E+03</pdfrwt>
<pdfrwt beam="2">  1       21 0.25943542E-01 0.44883986E+03</pdfrwt>
<totfact> 0.71471970E+04</totfact>
</mgrwt>
</event>
<event>
 7    0  0.4685107E-002  0.4601282E+03  0.7546771E-02  0.1024744E+00
         21   -1    0    0  502  501  0.00000000000E+00  0.00000000000E+00  0.57213235628E+02  0.57213235628E+02  0.00000000000E+00 0.  1.
         21   -1    0    0  501  502 -0.00000000000E+00 -0.00000000000E+00 -0.92512650204E+03  0.92512650204E+03  0.00000000000E+00 0.  1.
      99926    2    1    2    0    0 -0.13322676296E-14 -0.14210854715E-13 -0.86791326641E+03  0.98233973767E+03  0.46012815844E+03 0.  0.
      99925    2    3    3    0    0  0.35339033995E+01 -0.97801090682E+02 -0.40347684161E+03  0.49149735706E+03  0.26305616981E+03 0.  0.
         25    1    4    4    0    0  0.18997438350E+02 -0.87757793243E+02 -0.23181629228E+03  0.27829594752E+03  0.12509000000E+03 0.  0.
         25    1    3    3    0    0 -0.35339033995E+01  0.97801090682E+02 -0.46443642481E+03  0.49084238061E+03  0.12509000000E+03 0.  0.
         25    1    4    4    0    0 -0.15463534951E+02 -0.10043297439E+02 -0.17166054933E+03  0.21320140955E+03  0.12509000000E+03 0.  0.
<mgrwt>
<rscale>  2 0.46012816E+03</rscale>
<asrwt>0</asrwt>
<pdfrwt beam="1">  1       21 0.84137112E-02 0.46012816E+03</pdfrwt>
<pdfrwt beam="2">  1       21 0.13604801E+00 0.46012816E+03</pdfrwt>
<totfact> 0.38299614E+04</totfact>
</mgrwt>
</event>
<event>
 7    0  0.4685107E-002  0.4471244E+03  0.7546771E-02  0.1028583E+00
         21   -1    0    0  502  501  0.00000000000E+00  0.00000000000E+00  0.12165306781E+03  0.12165306781E+03  0.00000000000E+00 0.  1.
         21   -1    0    0  501  502 -0.00000000000E+00 -0.00000000000E+00 -0.41084092043E+03  0.41084092043E+03  0.00000000000E+00 0.  1.
      99926    2    1    2    0    0 -0.35527136788E-14  0.00000000000E+00 -0.28918785262E+03  0.53249398824E+03  0.44712440485E+03 0.  0.
      99925    2    3    3    0    0  0.30149400620E+01  0.77623872995E+02 -0.98100113042E+02  0.29125429864E+03  0.26300357179E+03 0.  0.
         25    1    4    4    0    0 -0.31511874934E+02  0.37552480542E+02 -0.23797850754E+02  0.13644424816E+03  0.12509000000E+03 0.  0.
         25    1    3    3    0    0 -0.30149400620E+01 -0.77623872995E+02 -0.19108773958E+03  0.24123968960E+03  0.12509000000E+03 0.  0.
         25    1    4    4    0    0  0.34526814996E+02  0.40071392454E+02 -0.74302262288E+02  0.15481005048E+03  0.12509000000E+03 0.  0.
<mgrwt>
<rscale>  2 0.44712440E+03</rscale>
<asrwt>0</asrwt>
<pdfrwt beam="1">  1       21 0.17890157E-01 0.44712440E+03</pdfrwt>
<pdfrwt beam="2">  1       21 0.60417784E-01 0.44712440E+03</pdfrwt>
<totfact> 0.67126005E+04</totfact>
</mgrwt>
</event>
<event>
 7    0  0.4685107E-002  0.4581748E+03  0.7546771E-02  0.1025312E+00
         21   -1    0    0  502  501  0.00000000000E+00  0.00000000000E+00  0.71479617332E+02  0.71479617332E+02  0.00000000000E+00 0.  1.
         21   -1    0    0  501  502 -0.00000000000E+00 -0.00000000000E+00 -0.73420978502E+03  0.73420978502E+03  0.00000000000E+00 0.  1.
      99926    2    1    2    0    0 -0.71054273576E-14  0.00000000000E+00 -0.66273016769E+03  0.80568940236E+03  0.45817478968E+03 0.  0.
      99925    2    3    3    0    0  0.36375800304E+02  0.41214520946E+02 -0.23610442945E+03  0.35771745656E+03  0.26304874366E+03 0.  0.
         25    1    4    4    0    0  0.33343453229E+01  0.49756657934E+02 -0.87965741140E+02  0.16084875685E+03  0.12509000000E+03 0.  0.
         25    1    3    3    0    0 -0.36375800304E+02 -0.41214520946E+02 -0.42662573824E+03  0.44797194579E+03  0.12509000000E+03 0.  0.
         25    1    4    4    0    0  0.33041454981E+02 -0.85421369879E+01 -0.14813868831E+03  0.19686869971E+03  0.12509000000E+03 0.  0.
<mgrwt>
<rscale>  2 0.45817479E+03</rscale>
<asrwt>0</asrwt>
<pdfrwt beam="1">  1       21 0.10511708E-01 0.45817479E+03</pdfrwt>
<pdfrwt beam="2">  1       21 0.10797203E+00 0.45817479E+03</pdfrwt>
<totfact> 0.46325853E+04</totfact>
</mgrwt>
</event>
<event>
 7    0  0.4685107E-002  0.4553239E+03  0.7546771E-02  0.1026146E+00
         21   -1    0    0  502  501  0.00000000000E+00  0.00000000000E+00  0.18122248751E+03  0.18122248751E+03  0.00000000000E+00 0. -1.
         21   -1    0    0  501  502 -0.00000000000E+00 -0.00000000000E+00 -0.28600188183E+03  0.28600188183E+03  0.00000000000E+00 0. -1.
      99926    2    1    2    0    0 -0.35527136788E-14 -0.17763568394E-14 -0.10477939432E+03  0.46722436934E+03  0.45532393945E+03 0.  0.
      99925    2    3    3    0    0 -0.10728093659E+02  0.11845180708E+02 -0.18082131570E+03  0.31996513463E+03  0.26348802415E+03 0.  0.
         25    1    4    4    0    0 -0.29562740335E+02  0.38375895947E+02 -0.10265825163E+03  0.16891681306E+03  0.12509000000E+03 0.  0.
         25    1    4    4    0    0  0.18834646677E+02 -0.26530715239E+02 -0.78163064064E+02  0.15104832157E+03  0.12509000000E+03 0.  0.
         25    1    3    3    0    0  0.10728093659E+02 -0.11845180708E+02  0.76041921379E+02  0.14725923471E+03  0.12509000000E+03 0.  0.
<mgrwt>
<rscale>  2 0.45532394E+03</rscale>
<asrwt>0</asrwt>
<pdfrwt beam="1">  1       21 0.26650366E-01 0.45532394E+03</pdfrwt>
<pdfrwt beam="2">  1       21 0.42059100E-01 0.45532394E+03</pdfrwt>
<totfact> 0.67469442E+04</totfact>
</mgrwt>
</event>
<event>
 7    0  0.4685107E-002  0.4564806E+03  0.7546771E-02  0.1025807E+00
         21   -1    0    0  502  501  0.00000000000E+00  0.00000000000E+00  0.69900723252E+02  0.69900723252E+02  0.00000000000E+00 0. -1.
         21   -1    0    0  501  502 -0.00000000000E+00 -0.00000000000E+00 -0.74525164201E+03  0.74525164201E+03  0.00000000000E+00 0. -1.
      99926    2    1    2    0    0  0.00000000000E+00 -0.17763568394E-14 -0.67535091876E+03  0.81515236526E+03  0.45648057475E+03 0.  0.
      99925    2    3    3    0    0  0.82611278805E+02  0.88210818618E+01 -0.28361522901E+03  0.39562072928E+03  0.26301279139E+03 0.  0.
         25    1    3    3    0    0 -0.82611278805E+02 -0.88210818618E+01 -0.39173568974E+03  0.41953163598E+03  0.12509000000E+03 0.  0.
         25    1    4    4    0    0  0.46553710379E+02 -0.34983810402E+02 -0.15387451724E+03  0.20667847032E+03  0.12509000000E+03 0.  0.
         25    1    4    4    0    0  0.36057568426E+02  0.43804892263E+02 -0.12974071178E+03  0.18894225896E+03  0.12509000000E+03 0.  0.
<mgrwt>
<rscale>  2 0.45648057E+03</rscale>
<asrwt>0</asrwt>
<pdfrwt beam="1">  1       21 0.10279518E-01 0.45648057E+03</pdfrwt>
<pdfrwt beam="2">  1       21 0.10959583E+00 0.45648057E+03</pdfrwt>
<totfact> 0.46498056E+04</totfact>
</mgrwt>
</event>
<event>
 7    0  0.4685107E-002  0.4444974E+03  0.7546771E-02  0.1029376E+00
         21   -1    0    0  502  501  0.00000000000E+00  0.00000000000E+00  0.40978702868E+03  0.40978702868E+03  0.00000000000E+00 0. -1.
         21   -1    0    0  501  502 -0.00000000000E+00 -0.00000000000E+00 -0.12053698210E+03  0.12053698210E+03  0.00000000000E+00 0. -1.
      99926    2    1    2    0    0  0.35527136788E-14 -0.14210854715E-13  0.28925004658E+03  0.53032401079E+03  0.44449743191E+03 0.  0.
      99925    2    3    3    0    0  0.19519765718E+02  0.98912790831E+02  0.20666970499E+03  0.34968131827E+03  0.26343859995E+03 0.  0.
         25    1    4    4    0    0 -0.28488338040E+02  0.51745680718E+02  0.82870859557E+02  0.16125845200E+03  0.12509000000E+03 0.  0.
         25    1    4    4    0    0  0.48008103758E+02  0.47167110113E+02  0.12379884543E+03  0.18842286627E+03  0.12509000000E+03 0.  0.
         25    1    3    3    0    0 -0.19519765718E+02 -0.98912790831E+02  0.82580341593E+02  0.18064269252E+03  0.12509000000E+03 0.  0.
<mgrwt>
<rscale>  2 0.44449743E+03</rscale>
<asrwt>0</asrwt>
<pdfrwt beam="1">  1       21 0.60262798E-01 0.44449743E+03</pdfrwt>
<pdfrwt beam="2">  1       21 0.17726027E-01 0.44449743E+03</pdfrwt>
<totfact> 0.68723373E+04</totfact>
</mgrwt>
</event>
<event>
 7    0  0.4685107E-002  0.4482163E+03  0.7546771E-02  0.1028255E+00
         21   -1    0    0  502  501  0.00000000000E+00  0.00000000000E+00  0.15973206962E+03  0.15973206962E+03  0.00000000000E+00 0. -1.
         21   -1    0    0  501  502 -0.00000000000E+00 -0.00000000000E+00 -0.31442936362E+03  0.31442936362E+03  0.00000000000E+00 0. -1.
      99926    2    1    2    0    0  0.00000000000E+00  0.00000000000E+00 -0.15469729401E+03  0.47416143324E+03  0.44821625584E+03 0.  0.
      99925    2    3    3    0    0 -0.65789404099E+02 -0.81108796270E+02 -0.12074671739E+03  0.30770713839E+03  0.26305328496E+03 0.  0.
         25    1    4    4    0    0 -0.59540694741E+02 -0.17449777343E+02 -0.82154133999E+02  0.16200740382E+03  0.12509000000E+03 0.  0.
         25    1    4    4    0    0 -0.62487093576E+01 -0.63659018927E+02 -0.38592583393E+02  0.14569973457E+03  0.12509000000E+03 0.  0.
         25    1    3    3    0    0  0.65789404099E+02  0.81108796270E+02 -0.33950576614E+02  0.16645429486E+03  0.12509000000E+03 0.  0.
<mgrwt>
<rscale>  2 0.44821626E+03</rscale>
<asrwt>0</asrwt>
<pdfrwt beam="1">  1       21 0.23490011E-01 0.44821626E+03</pdfrwt>
<pdfrwt beam="2">  1       21 0.46239611E-01 0.44821626E+03</pdfrwt>
<totfact> 0.70867051E+04</totfact>
</mgrwt>
</event>
<event>
 7    0  0.4685107E-002  0.4524714E+03  0.7546771E-02  0.1026988E+00
         21   -1    0    0  502  501  0.00000000000E+00  0.00000000000E+00  0.60241144884E+02  0.60241144884E+02  0.00000000000E+00 0.  1.
         21   -1    0    0  501  502 -0.00000000000E+00 -0.00000000000E+00 -0.84962853601E+03  0.84962853601E+03  0.00000000000E+00 0.  1.
      99926    2    1    2    0    0  0.00000000000E+00 -0.88817841970E-15 -0.78938739112E+03  0.90986968089E+03  0.45247141671E+03 0.  0.
      99925    2    3    3    0    0 -0.40471511160E+02 -0.72500305620E+01 -0.70473587322E+03  0.75333248486E+03  0.26299558091E+03 0.  0.
         25    1    3    3    0    0  0.40471511160E+02  0.72500305620E+01 -0.84651517903E+02  0.15653719603E+03  0.12509000000E+03 0.  0.
         25    1    4    4    0    0 -0.13110825660E+02  0.20366119244E+02 -0.43819182679E+03  0.45634006807E+03  0.12509000000E+03 0.  0.
         25    1    4    4    0    0 -0.27360685500E+02 -0.27616149806E+02 -0.26654404643E+03  0.29699241679E+03  0.12509000000E+03 0.  0.
<mgrwt>
<rscale>  2 0.45247142E+03</rscale>
<asrwt>0</asrwt>
<pdfrwt beam="1">  1       21 0.88589920E-02 0.45247142E+03</pdfrwt>
<pdfrwt beam="2">  1       21 0.12494537E+00 0.45247142E+03</pdfrwt>
<totfact> 0.43667530E+04</totfact>
</mgrwt>
</event>
<event>
 7    0  0.4685107E-002  0.4587791E+03  0.7546771E-02  0.1025136E+00
         21   -1    0    0  502  501  0.00000000000E+00  0.00000000000E+00  0.55561919239E+02  0.55561919239E+02  0.00000000000E+00 0. -1.
         21   -1    0    0  501  502 -0.00000000000E+00 -0.00000000000E+00 -0.94704370312E+03  0.94704370312E+03  0.00000000000E+00 0. -1.
      99926    2    1    2    0    0  0.00000000000E+00 -0.71054273576E-14 -0.89148178388E+03  0.10026056224E+04  0.45877910043E+03 0.  0.
      99925    2    3    3    0    0 -0.28064091967E+02 -0.50598964648E+02 -0.33792548586E+03  0.43214972427E+03  0.26308154955E+03 0.  0.
         25    1    4    4    0    0 -0.46307133979E+02 -0.47562981112E+01 -0.19057055578E+03  0.23266202497E+03  0.12509000000E+03 0.  0.
         25    1    4    4    0    0  0.18243042013E+02 -0.45842666537E+02 -0.14735493007E+03  0.19948769930E+03  0.12509000000E+03 0.  0.
         25    1    3    3    0    0  0.28064091967E+02  0.50598964648E+02 -0.55355629803E+03  0.57045589809E+03  0.12509000000E+03 0.  0.
<mgrwt>
<rscale>  2 0.45877910E+03</rscale>
<asrwt>0</asrwt>
<pdfrwt beam="1">  1       21 0.81708704E-02 0.45877910E+03</pdfrwt>
<pdfrwt beam="2">  1       21 0.13927113E+00 0.45877910E+03</pdfrwt>
<totfact> 0.37933636E+04</totfact>
</mgrwt>
</event>
<event>
 7    0  0.4685107E-002  0.4661145E+03  0.7546771E-02  0.1023023E+00
         21   -1    0    0  502  501  0.00000000000E+00  0.00000000000E+00  0.19490319080E+04  0.19490319080E+04  0.00000000000E+00 0. -1.
         21   -1    0    0  501  502 -0.00000000000E+00 -0.00000000000E+00 -0.27868025504E+02  0.27868025504E+02  0.00000000000E+00 0. -1.
      99926    2    1    2    0    0  0.00000000000E+00  0.00000000000E+00  0.19211638825E+04  0.19768999335E+04  0.46611445342E+03 0.  0.
      99925    2    3    3    0    0  0.38535714466E+02 -0.11296388250E+03  0.10670808369E+04  0.11054923383E+04  0.26307025223E+03 0.  0.
         25    1    4    4    0    0  0.21874080634E+02 -0.57995202743E+02  0.69225772291E+03  0.70619415317E+03  0.12509000000E+03 0.  0.
         25    1    3    3    0    0 -0.38535714466E+02  0.11296388250E+03  0.85408304566E+03  0.87140759523E+03  0.12509000000E+03 0.  0.
         25    1    4    4    0    0  0.16661633832E+02 -0.54968679755E+02  0.37482311396E+03  0.39929818514E+03  0.12509000000E+03 0.  0.
<mgrwt>
<rscale>  2 0.46611445E+03</rscale>
<asrwt>0</asrwt>
<pdfrwt beam="1">  1       21 0.28662225E+00 0.46611445E+03</pdfrwt>
<pdfrwt beam="2">  1       21 0.40982404E-02 0.46611445E+03</pdfrwt>
<totfact> 0.12938081E+04</totfact>
</mgrwt>
</event>
<event>
 7    0  0.4685107E-002  0.4472770E+03  0.7546771E-02  0.1028537E+00
         21   -1    0    0  502  501  0.00000000000E+00  0.00000000000E+00  0.32953772922E+02  0.32953772922E+02  0.00000000000E+00 0.  1.
         21   -1    0    0  501  502 -0.00000000000E+00 -0.00000000000E+00 -0.15177070433E+04  0.15177070433E+04  0.00000000000E+00 0.  1.
      99926    2    1    2    0    0  0.71054273576E-14  0.00000000000E+00 -0.14847532704E+04  0.15506608162E+04  0.44727697578E+03 0.  0.
      99925    2    3    3    0    0 -0.31191716429E+02  0.99948679371E+02 -0.98590829192E+03  0.10258213338E+04  0.26330891954E+03 0.  0.
         25    1    4    4    0    0  0.18154075427E+02  0.36734182010E+02 -0.53983233138E+03  0.55564865219E+03  0.12509000000E+03 0.  0.
         25    1    3    3    0    0  0.31191716429E+02 -0.99948679371E+02 -0.49884497843E+03  0.52483948240E+03  0.12509000000E+03 0.  0.
         25    1    4    4    0    0 -0.49345791856E+02  0.63214497361E+02 -0.44607596055E+03  0.47017268160E+03  0.12509000000E+03 0.  0.
<mgrwt>
<rscale>  2 0.44727698E+03</rscale>
<asrwt>0</asrwt>
<pdfrwt beam="1">  1       21 0.48461449E-02 0.44727698E+03</pdfrwt>
<pdfrwt beam="2">  1       21 0.22319213E+00 0.44727698E+03</pdfrwt>
<totfact> 0.23970251E+04</totfact>
</mgrwt>
</event>
<event>
 7    0  0.4685107E-002  0.4166782E+03  0.7546771E-02  0.1038153E+00
         21   -1    0    0  502  501  0.00000000000E+00  0.00000000000E+00  0.38489229799E+02  0.38489229799E+02  0.00000000000E+00 0.  1.
         21   -1    0    0  501  502 -0.00000000000E+00 -0.00000000000E+00 -0.11277226932E+04  0.11277226932E+04  0.00000000000E+00 0.  1.
      99926    2    1    2    0    0  0.00000000000E+00  0.17763568394E-14 -0.10892334634E+04  0.11662119230E+04  0.41667818704E+03 0.  0.
      99925    2    3    3    0    0 -0.66274667637E+02 -0.98632211472E+01 -0.64208677855E+03  0.69708797288E+03  0.26299542970E+03 0.  0.
         25    1    3    3    0    0  0.66274667637E+02  0.98632211472E+01 -0.44714668486E+03  0.46912395013E+03  0.12509000000E+03 0.  0.
         25    1    4    4    0    0 -0.17626829894E+02  0.32855415345E+02 -0.30490357287E+03  0.33166832875E+03  0.12509000000E+03 0.  0.
         25    1    4    4    0    0 -0.48647837743E+02 -0.42718636492E+02 -0.33718320569E+03  0.36541964413E+03  0.12509000000E+03 0.  0.
<mgrwt>
<rscale>  2 0.41667819E+03</rscale>
<asrwt>0</asrwt>
<pdfrwt beam="1">  1       21 0.56601805E-02 0.41667819E+03</pdfrwt>
<pdfrwt beam="2">  1       21 0.16584158E+00 0.41667819E+03</pdfrwt>
<totfact> 0.45345342E+04</totfact>
</mgrwt>
</event>
<event>
 7    0  0.4685107E-002  0.4598765E+03  0.7546771E-02  0.1024817E+00
         21   -1    0    0  502  501  0.00000000000E+00  0.00000000000E+00  0.20875352186E+03  0.20875352186E+03  0.00000000000E+00 0.  1.
         21   -1    0    0  501  502 -0.00000000000E+00 -0.00000000000E+00 -0.25327283656E+03  0.25327283656E+03  0.00000000000E+00 0.  1.
      99926    2    1    2    0    0  0.00000000000E+00  0.00000000000E+00 -0.44519314698E+02  0.46202635842E+03  0.45987649047E+03 0.  0.
      99925    2    3    3    0    0  0.11037528193E+03 -0.34310257974E+02 -0.49399454158E+02  0.29164085280E+03  0.26316189749E+03 0.  0.
         25    1    4    4    0    0  0.20311496009E+02  0.17073875027E+01 -0.40683140769E+02  0.13310934635E+03  0.12509000000E+03 0.  0.
         25    1    4    4    0    0  0.90063785918E+02 -0.36017645477E+02 -0.87163133888E+01  0.15853150645E+03  0.12509000000E+03 0.  0.
         25    1    3    3    0    0 -0.11037528193E+03  0.34310257974E+02  0.48801394600E+01  0.17038550562E+03  0.12509000000E+03 0.  0.
<mgrwt>
<rscale>  2 0.45987649E+03</rscale>
<asrwt>0</asrwt>
<pdfrwt beam="1">  1       21 0.30699048E-01 0.45987649E+03</pdfrwt>
<pdfrwt beam="2">  1       21 0.37246005E-01 0.45987649E+03</pdfrwt>
<totfact> 0.65450265E+04</totfact>
</mgrwt>
</event>
<event>
 7    0  0.4685107E-002  0.4474768E+03  0.7546771E-02  0.1028477E+00
         21   -1    0    0  502  501  0.00000000000E+00  0.00000000000E+00  0.36224432118E+03  0.36224432118E+03  0.00000000000E+00 0.  1.
         21   -1    0    0  501  502 -0.00000000000E+00 -0.00000000000E+00 -0.13819087964E+03  0.13819087964E+03  0.00000000000E+00 0.  1.
      99926    2    1    2    0    0  0.71054273576E-14  0.00000000000E+00  0.22405344154E+03  0.50043520082E+03  0.44747675420E+03 0.  0.
      99925    2    3    3    0    0 -0.60715416453E+02 -0.78107017219E+02  0.18435796100E+03  0.33608707272E+03  0.26302014130E+03 0.  0.
         25    1    4    4    0    0 -0.53068424508E+01 -0.34823209028E+02  0.12652557871E+03  0.18137543558E+03  0.12509000000E+03 0.  0.
         25    1    3    3    0    0  0.60715416453E+02  0.78107017219E+02  0.39695480540E+02  0.16434812810E+03  0.12509000000E+03 0.  0.
         25    1    4    4    0    0 -0.55408574002E+02 -0.43283808190E+02  0.57832382292E+02  0.15471163714E+03  0.12509000000E+03 0.  0.
<mgrwt>
<rscale>  2 0.44747675E+03</rscale>
<asrwt>0</asrwt>
<pdfrwt beam="1">  1       21 0.53271224E-01 0.44747675E+03</pdfrwt>
<pdfrwt beam="2">  1       21 0.20322188E-01 0.44747675E+03</pdfrwt>
<totfact> 0.69285943E+04</totfact>
</mgrwt>
</event>
<event>
 7    0  0.4685107E-002  0.4547833E+03  0.7546771E-02  0.1026305E+00
         21   -1    0    0  502  501  0.00000000000E+00  0.00000000000E+00  0.18327561537E+03  0.18327561537E+03  0.00000000000E+00 0. -1.
         21   -1    0    0  501  502 -0.00000000000E+00 -0.00000000000E+00 -0.28212683290E+03  0.28212683290E+03  0.00000000000E+00 0. -1.
      99926    2    1    2    0    0  0.00000000000E+00  0.00000000000E+00 -0.98851217531E+02  0.46540244826E+03  0.45478332824E+03 0.  0.
      99925    2    3    3    0    0  0.65372891654E+02  0.81907665375E+02 -0.10686904988E+03  0.30201862304E+03  0.26231998442E+03 0.  0.
         25    1    3    3    0    0 -0.65372891654E+02 -0.81907665375E+02  0.80178323498E+01  0.16338382523E+03  0.12509000000E+03 0.  0.
         25    1    4    4    0    0  0.28533477722E+02  0.58254429858E+02 -0.92850162103E+02  0.16874951452E+03  0.12509000000E+03 0.  0.
         25    1    4    4    0    0  0.36839413931E+02  0.23653235517E+02 -0.14018887778E+02  0.13326910851E+03  0.12509000000E+03 0.  0.
<mgrwt>
<rscale>  2 0.45478333E+03</rscale>
<asrwt>0</asrwt>
<pdfrwt beam="1">  1       21 0.26952297E-01 0.45478333E+03</pdfrwt>
<pdfrwt beam="2">  1       21 0.41489240E-01 0.45478333E+03</pdfrwt>
<totfact> 0.67896340E+04</totfact>
</mgrwt>
</event>
<event>
 7    0  0.4685107E-002  0.4541021E+03  0.7546771E-02  0.1026506E+00
         21   -1    0    0  502  501  0.00000000000E+00  0.00000000000E+00  0.18524443210E+03  0.18524443210E+03  0.00000000000E+00 0.  1.
         21   -1    0    0  501  502 -0.00000000000E+00 -0.00000000000E+00 -0.27829272841E+03  0.27829272841E+03  0.00000000000E+00 0.  1.
      99926    2    1    2    0    0  0.00000000000E+00 -0.71054273576E-14 -0.93048296318E+02  0.46353716051E+03  0.45410209615E+03 0.  0.
      99925    2    3    3    0    0 -0.10420029517E+03  0.38207873298E+02 -0.76541313353E+02  0.29549689247E+03  0.26294923030E+03 0.  0.
         25    1    3    3    0    0  0.10420029517E+03 -0.38207873298E+02 -0.16506982965E+02  0.16804026804E+03  0.12509000000E+03 0.  0.
         25    1    4    4    0    0 -0.35466967266E+02 -0.19110336233E+02 -0.40574792473E+02  0.13753884034E+03  0.12509000000E+03 0.  0.
         25    1    4    4    0    0 -0.68733327906E+02  0.57318209531E+02 -0.35966520880E+02  0.15795805213E+03  0.12509000000E+03 0.  0.
<mgrwt>
<rscale>  2 0.45410210E+03</rscale>
<asrwt>0</asrwt>
<pdfrwt beam="1">  1       21 0.27241828E-01 0.45410210E+03</pdfrwt>
<pdfrwt beam="2">  1       21 0.40925401E-01 0.45410210E+03</pdfrwt>
<totfact> 0.68405948E+04</totfact>
</mgrwt>
</event>
<event>
 7    0  0.4685107E-002  0.4560623E+03  0.7546771E-02  0.1025929E+00
         21   -1    0    0  502  501  0.00000000000E+00  0.00000000000E+00  0.26962263939E+03  0.26962263939E+03  0.00000000000E+00 0.  1.
         21   -1    0    0  501  502 -0.00000000000E+00 -0.00000000000E+00 -0.19285546617E+03  0.19285546617E+03  0.00000000000E+00 0.  1.
      99926    2    1    2    0    0 -0.35527136788E-14 -0.35527136788E-14  0.76767173226E+02  0.46247810556E+03  0.45606227561E+03 0.  0.
      99925    2    3    3    0    0  0.29649555034E+02 -0.29506562187E+02  0.15599904171E+03  0.30861150617E+03  0.26297457558E+03 0.  0.
         25    1    4    4    0    0  0.19558979527E+01 -0.42232417218E+02  0.11011328342E+03  0.17192977022E+03  0.12509000000E+03 0.  0.
         25    1    3    3    0    0 -0.29649555034E+02  0.29506562187E+02 -0.79231868481E+02  0.15386659939E+03  0.12509000000E+03 0.  0.
         25    1    4    4    0    0  0.27693657081E+02  0.12725855030E+02  0.45885758285E+02  0.13668173595E+03  0.12509000000E+03 0.  0.
<mgrwt>
<rscale>  2 0.45606228E+03</rscale>
<asrwt>0</asrwt>
<pdfrwt beam="1">  1       21 0.39650388E-01 0.45606228E+03</pdfrwt>
<pdfrwt beam="2">  1       21 0.28361098E-01 0.45606228E+03</pdfrwt>
<totfact> 0.67426519E+04</totfact>
</mgrwt>
</event>
<event>
 7    0  0.4685107E-002  0.4534117E+03  0.7546771E-02  0.1026709E+00
         21   -1    0    0  502  501  0.00000000000E+00  0.00000000000E+00  0.81870825991E+03  0.81870825991E+03  0.00000000000E+00 0.  1.
         21   -1    0    0  501  502 -0.00000000000E+00 -0.00000000000E+00 -0.62776384996E+02  0.62776384996E+02  0.00000000000E+00 0.  1.
      99926    2    1    2    0    0  0.00000000000E+00  0.00000000000E+00  0.75593187492E+03  0.88148464491E+03  0.45341171103E+03 0.  0.
      99925    2    3    3    0    0 -0.50934889714E+02  0.48465083010E+02  0.30768326709E+03  0.41082813558E+03  0.26299721837E+03 0.  0.
         25    1    3    3    0    0  0.50934889714E+02 -0.48465083010E+02  0.44824860782E+03  0.47065650933E+03  0.12509000000E+03 0.  0.
         25    1    4    4    0    0 -0.50486900438E+02  0.26880269692E+02  0.11104613634E+03  0.17677734162E+03  0.12509000000E+03 0.  0.
         25    1    4    4    0    0 -0.44798927626E+00  0.21584813318E+02  0.19663713075E+03  0.23405079396E+03  0.12509000000E+03 0.  0.
<mgrwt>
<rscale>  2 0.45341171E+03</rscale>
<asrwt>0</asrwt>
<pdfrwt beam="1">  1       21 0.12039827E+00 0.45341171E+03</pdfrwt>
<pdfrwt beam="2">  1       21 0.92318218E-02 0.45341171E+03</pdfrwt>
<totfact> 0.44596086E+04</totfact>
</mgrwt>
</event>
<event>
 7    0  0.4685107E-002  0.4550717E+03  0.7546771E-02  0.1026220E+00
         21   -1    0    0  502  501  0.00000000000E+00  0.00000000000E+00  0.50579307585E+03  0.50579307585E+03  0.00000000000E+00 0. -1.
         21   -1    0    0  501  502 -0.00000000000E+00 -0.00000000000E+00 -0.10235917148E+03  0.10235917148E+03  0.00000000000E+00 0. -1.
      99926    2    1    2    0    0  0.35527136788E-14  0.14210854715E-13  0.40343390438E+03  0.60815224733E+03  0.45507168746E+03 0.  0.
      99925    2    3    3    0    0  0.27694312265E+02  0.10691652076E+03  0.28592708497E+03  0.40406041004E+03  0.26327248184E+03 0.  0.
         25    1    3    3    0    0 -0.27694312265E+02 -0.10691652076E+03  0.11750681941E+03  0.20409183730E+03  0.12509000000E+03 0.  0.
         25    1    4    4    0    0 -0.21495019884E+02  0.72745832296E+02  0.13459655025E+03  0.19879067240E+03  0.12509000000E+03 0.  0.
         25    1    4    4    0    0  0.49189332149E+02  0.34170688464E+02  0.15133053472E+03  0.20526973763E+03  0.12509000000E+03 0.  0.
<mgrwt>
<rscale>  2 0.45507169E+03</rscale>
<asrwt>0</asrwt>
<pdfrwt beam="1">  1       21 0.74381333E-01 0.45507169E+03</pdfrwt>
<pdfrwt beam="2">  1       21 0.15052820E-01 0.45507169E+03</pdfrwt>
<totfact> 0.58146329E+04</totfact>
</mgrwt>
</event>
<event>
 7    0  0.4685107E-002  0.4556513E+03  0.7546771E-02  0.1026050E+00
         21   -1    0    0  502  501  0.00000000000E+00  0.00000000000E+00  0.31636355897E+03  0.31636355897E+03  0.00000000000E+00 0.  1.
         21   -1    0    0  501  502 -0.00000000000E+00 -0.00000000000E+00 -0.16406607951E+03  0.16406607951E+03  0.00000000000E+00 0.  1.
      99926    2    1    2    0    0  0.00000000000E+00  0.00000000000E+00  0.15229747946E+03  0.48042963848E+03  0.45565130888E+03 0.  0.
      99925    2    3    3    0    0 -0.11154447929E+03 -0.16743253090E+02  0.80214900714E+02  0.29721961244E+03  0.26302577884E+03 0.  0.
         25    1    4    4    0    0 -0.78737068928E+02 -0.46693860379E+01  0.68303103435E+01  0.14803881393E+03  0.12509000000E+03 0.  0.
         25    1    3    3    0    0  0.11154447929E+03  0.16743253090E+02  0.72082578743E+02  0.18321002604E+03  0.12509000000E+03 0.  0.
         25    1    4    4    0    0 -0.32807410367E+02 -0.12073867052E+02  0.73384590371E+02  0.14918079851E+03  0.12509000000E+03 0.  0.
<mgrwt>
<rscale>  2 0.45565131E+03</rscale>
<asrwt>0</asrwt>
<pdfrwt beam="1">  1       21 0.46524053E-01 0.45565131E+03</pdfrwt>
<pdfrwt beam="2">  1       21 0.24127365E-01 0.45565131E+03</pdfrwt>
<totfact> 0.66325288E+04</totfact>
</mgrwt>
</event>
<event>
 7    0  0.4685107E-002  0.4605266E+03  0.7546771E-02  0.1024629E+00
         21   -1    0    0  502  501  0.00000000000E+00  0.00000000000E+00  0.39707444457E+03  0.39707444457E+03  0.00000000000E+00 0.  1.
         21   -1    0    0  501  502 -0.00000000000E+00 -0.00000000000E+00 -0.13352959668E+03  0.13352959668E+03  0.00000000000E+00 0.  1.
      99926    2    1    2    0    0  0.35527136788E-14  0.14210854715E-13  0.26354484789E+03  0.53060404125E+03  0.46052661350E+03 0.  0.
      99925    2    3    3    0    0  0.16848458108E+02  0.11010510173E+03  0.11926592341E+03  0.30953635904E+03  0.26302356000E+03 0.  0.
         25    1    4    4    0    0  0.34817699072E+02  0.41522624474E+02  0.27809979712E+02  0.13913052714E+03  0.12509000000E+03 0.  0.
         25    1    3    3    0    0 -0.16848458108E+02 -0.11010510173E+03  0.14427892448E+03  0.22106768221E+03  0.12509000000E+03 0.  0.
         25    1    4    4    0    0 -0.17969240964E+02  0.68582477251E+02  0.91455943702E+02  0.17040583190E+03  0.12509000000E+03 0.  0.
<mgrwt>
<rscale>  2 0.46052661E+03</rscale>
<asrwt>0</asrwt>
<pdfrwt beam="1">  1       21 0.58393300E-01 0.46052661E+03</pdfrwt>
<pdfrwt beam="2">  1       21 0.19636705E-01 0.46052661E+03</pdfrwt>
<totfact> 0.60472760E+04</totfact>
</mgrwt>
</event>
<event>
 7    0  0.4685107E-002  0.4636811E+03  0.7546771E-02  0.1023719E+00
         21   -1    0    0  502  501  0.00000000000E+00  0.00000000000E+00  0.86573889317E+02  0.86573889317E+02  0.00000000000E+00 0.  1.
         21   -1    0    0  501  502 -0.00000000000E+00 -0.00000000000E+00 -0.62085748244E+03  0.62085748244E+03  0.00000000000E+00 0.  1.
      99926    2    1    2    0    0 -0.17763568394E-14  0.00000000000E+00 -0.53428359313E+03  0.70743137176E+03  0.46368112736E+03 0.  0.
      99925    2    3    3    0    0 -0.51635315761E+01  0.72866190740E+02 -0.18649714425E+03  0.33068335792E+03  0.26312383887E+03 0.  0.
         25    1    4    4    0    0 -0.19769663453E+02  0.64002069931E+02 -0.12971199922E+03  0.19224935732E+03  0.12509000000E+03 0.  0.
         25    1    4    4    0    0  0.14606131877E+02  0.88641208085E+01 -0.56785145030E+02  0.13843400060E+03  0.12509000000E+03 0.  0.
         25    1    3    3    0    0  0.51635315761E+01 -0.72866190740E+02 -0.34778644887E+03  0.37674801384E+03  0.12509000000E+03 0.  0.
<mgrwt>
<rscale>  2 0.46368113E+03</rscale>
<asrwt>0</asrwt>
<pdfrwt beam="1">  1       21 0.12731455E-01 0.46368113E+03</pdfrwt>
<pdfrwt beam="2">  1       21 0.91302569E-01 0.46368113E+03</pdfrwt>
<totfact> 0.49063113E+04</totfact>
</mgrwt>
</event>
<event>
 7    0  0.4685107E-002  0.4598172E+03  0.7546771E-02  0.1024834E+00
         21   -1    0    0  502  501  0.00000000000E+00  0.00000000000E+00  0.56097651571E+02  0.56097651571E+02  0.00000000000E+00 0.  1.
         21   -1    0    0  501  502 -0.00000000000E+00 -0.00000000000E+00 -0.94224925975E+03  0.94224925975E+03  0.00000000000E+00 0.  1.
      99926    2    1    2    0    0  0.00000000000E+00  0.17763568394E-14 -0.88615160818E+03  0.99834691132E+03  0.45981722746E+03 0.  0.
      99925    2    3    3    0    0  0.11735101568E+03  0.81492279924E+01 -0.56065818644E+03  0.63033720154E+03  0.26296333361E+03 0.  0.
         25    1    3    3    0    0 -0.11735101568E+03 -0.81492279924E+01 -0.32549342174E+03  0.36800970979E+03  0.12509000000E+03 0.  0.
         25    1    4    4    0    0  0.38114761559E+02  0.90184848824E+01 -0.18661322095E+03  0.22804839497E+03  0.12509000000E+03 0.  0.
         25    1    4    4    0    0  0.79236254125E+02 -0.86925688999E+00 -0.37404496550E+03  0.40228880657E+03  0.12509000000E+03 0.  0.
<mgrwt>
<rscale>  2 0.45981723E+03</rscale>
<asrwt>0</asrwt>
<pdfrwt beam="1">  1       21 0.82496547E-02 0.45981723E+03</pdfrwt>
<pdfrwt beam="2">  1       21 0.13856607E+00 0.45981723E+03</pdfrwt>
<totfact> 0.37789276E+04</totfact>
</mgrwt>
</event>
<event>
 6    0  0.4685107E-002  0.4549398E+03  0.7546771E-02  0.1026259E+00
         21   -1    0    0  502  501  0.00000000000E+00  0.00000000000E+00  0.62469104160E+03  0.62469104160E+03  0.00000000000E+00 0. -1.
         21   -1    0    0  501  502 -0.00000000000E+00 -0.00000000000E+00 -0.82829038512E+02  0.82829038512E+02  0.00000000000E+00 0. -1.
      99926    2    1    2    0    0 -0.88817841970E-14 -0.35527136788E-14  0.54186200309E+03  0.70752008011E+03  0.45493981291E+03 0.  0.
         25    1    3    3    0    0  0.11037663373E+02 -0.17899626270E+02  0.14464497674E+03  0.19238478118E+03  0.12509000000E+03 0.  0.
         25    1    3    3    0    0  0.62043554681E+02  0.89999325839E+02  0.20581960211E+03  0.26449668815E+03  0.12509000000E+03 0.  0.
         25    1    3    3    0    0 -0.73081218054E+02 -0.72099699570E+02  0.19139742424E+03  0.25063861078E+03  0.12509000000E+03 0.  0.
<mgrwt>
<rscale>  2 0.45493981E+03</rscale>
<asrwt>0</asrwt>
<pdfrwt beam="1">  1       21 0.91866327E-01 0.45493981E+03</pdfrwt>
<pdfrwt beam="2">  1       21 0.12180741E-01 0.45493981E+03</pdfrwt>
<totfact> 0.52521438E+04</totfact>
</mgrwt>
</event>
<event>
 7    0  0.4685107E-002  0.4634020E+03  0.7546771E-02  0.1023799E+00
         21   -1    0    0  502  501  0.00000000000E+00  0.00000000000E+00  0.27297771112E+04  0.27297771112E+04  0.00000000000E+00 0.  1.
         21   -1    0    0  501  502 -0.00000000000E+00 -0.00000000000E+00 -0.19666566678E+02  0.19666566678E+02  0.00000000000E+00 0.  1.
      99926    2    1    2    0    0  0.00000000000E+00  0.00000000000E+00  0.27101105446E+04  0.27494436779E+04  0.46340195759E+03 0.  0.
      99925    2    3    3    0    0 -0.77967387664E+02  0.91200073400E+02  0.16089569609E+04  0.16347315672E+04  0.26307494704E+03 0.  0.
         25    1    3    3    0    0  0.77967387664E+02 -0.91200073400E+02  0.11011535836E+04  0.11147121107E+04  0.12509000000E+03 0.  0.
         25    1    4    4    0    0 -0.74055281372E+02  0.60495636051E+02  0.99675315974E+03  0.10091126182E+04  0.12509000000E+03 0.  0.
         25    1    4    4    0    0 -0.39121062920E+01  0.30704437349E+02  0.61220380116E+03  0.62561894897E+03  0.12509000000E+03 0.  0.
<mgrwt>
<rscale>  2 0.46340196E+03</rscale>
<asrwt>0</asrwt>
<pdfrwt beam="1">  1       21 0.40143755E+00 0.46340196E+03</pdfrwt>
<pdfrwt beam="2">  1       21 0.28921440E-02 0.46340196E+03</pdfrwt>
<totfact> 0.45941173E+03</totfact>
</mgrwt>
</event>
<event>
 7    0  0.4685107E-002  0.4571150E+03  0.7546771E-02  0.1025621E+00
         21   -1    0    0  502  501  0.00000000000E+00  0.00000000000E+00  0.13719807183E+03  0.13719807183E+03  0.00000000000E+00 0. -1.
         21   -1    0    0  501  502 -0.00000000000E+00 -0.00000000000E+00 -0.38075269192E+03  0.38075269192E+03  0.00000000000E+00 0. -1.
      99926    2    1    2    0    0  0.00000000000E+00 -0.17763568394E-14 -0.24355462010E+03  0.51795076375E+03  0.45711501911E+03 0.  0.
      99925    2    3    3    0    0  0.75468860788E+02  0.71991757522E+01 -0.54929993026E+02  0.27925821021E+03  0.26309782734E+03 0.  0.
         25    1    3    3    0    0 -0.75468860788E+02 -0.71991757522E+01 -0.18862462707E+03  0.23869255355E+03  0.12509000000E+03 0.  0.
         25    1    4    4    0    0  0.68254178506E+02  0.32051120502E+02 -0.28529160072E+02  0.14881978458E+03  0.12509000000E+03 0.  0.
         25    1    4    4    0    0  0.72146822817E+01 -0.24851944749E+02 -0.26400832954E+02  0.13043842562E+03  0.12509000000E+03 0.  0.
<mgrwt>
<rscale>  2 0.45711502E+03</rscale>
<asrwt>0</asrwt>
<pdfrwt beam="1">  1       21 0.20176187E-01 0.45711502E+03</pdfrwt>
<pdfrwt beam="2">  1       21 0.55993042E-01 0.45711502E+03</pdfrwt>
<totfact> 0.62963798E+04</totfact>
</mgrwt>
</event>
<event>
 7    0  0.4685107E-002  0.4545123E+03  0.7546771E-02  0.1026385E+00
         21   -1    0    0  502  501  0.00000000000E+00  0.00000000000E+00  0.28668948957E+03  0.28668948957E+03  0.00000000000E+00 0.  1.
         21   -1    0    0  501  502 -0.00000000000E+00 -0.00000000000E+00 -0.18014391903E+03  0.18014391903E+03  0.00000000000E+00 0.  1.
      99926    2    1    2    0    0  0.00000000000E+00  0.14210854715E-13  0.10654557054E+03  0.46683340861E+03  0.45451234614E+03 0.  0.
      99925    2    3    3    0    0  0.29814303526E+02 -0.77761480282E+02  0.14497185367E+03  0.31172110140E+03  0.26309212491E+03 0.  0.
         25    1    4    4    0    0 -0.10078294394E+02 -0.17207095232E+02  0.96444981333E+02  0.15920677959E+03  0.12509000000E+03 0.  0.
         25    1    4    4    0    0  0.39892597920E+02 -0.60554385050E+02  0.48526872342E+02  0.15251432181E+03  0.12509000000E+03 0.  0.
         25    1    3    3    0    0 -0.29814303526E+02  0.77761480282E+02 -0.38426283138E+02  0.15511230720E+03  0.12509000000E+03 0.  0.
<mgrwt>
<rscale>  2 0.45451235E+03</rscale>
<asrwt>0</asrwt>
<pdfrwt beam="1">  1       21 0.42160219E-01 0.45451235E+03</pdfrwt>
<pdfrwt beam="2">  1       21 0.26491753E-01 0.45451235E+03</pdfrwt>
<totfact> 0.67934573E+04</totfact>
</mgrwt>
</event>
<event>
 7    0  0.4685107E-002  0.4541823E+03  0.7546771E-02  0.1026482E+00
         21   -1    0    0  502  501  0.00000000000E+00  0.00000000000E+00  0.57270272706E+03  0.57270272706E+03  0.00000000000E+00 0. -1.
         21   -1    0    0  501  502 -0.00000000000E+00 -0.00000000000E+00 -0.90047412303E+02  0.90047412303E+02  0.00000000000E+00 0. -1.
      99926    2    1    2    0    0  0.35527136788E-14  0.00000000000E+00  0.48265531476E+03  0.66275013936E+03  0.45418233603E+03 0.  0.
      99925    2    3    3    0    0  0.21745943836E+02 -0.96875618892E+02  0.38186846336E+03  0.47390292831E+03  0.26249321999E+03 0.  0.
         25    1    4    4    0    0  0.36291403602E+02 -0.29452728769E+02  0.14358828218E+03  0.19608577737E+03  0.12509000000E+03 0.  0.
         25    1    4    4    0    0 -0.14545459766E+02 -0.67422890123E+02  0.23828018117E+03  0.27781715093E+03  0.12509000000E+03 0.  0.
         25    1    3    3    0    0 -0.21745943836E+02  0.96875618892E+02  0.10078685140E+03  0.18884721106E+03  0.12509000000E+03 0.  0.
<mgrwt>
<rscale>  2 0.45418234E+03</rscale>
<asrwt>0</asrwt>
<pdfrwt beam="1">  1       21 0.84220988E-01 0.45418234E+03</pdfrwt>
<pdfrwt beam="2">  1       21 0.13242267E-01 0.45418234E+03</pdfrwt>
<totfact> 0.55327992E+04</totfact>
</mgrwt>
</event>
<event>
 7    0  0.4685107E-002  0.4687047E+03  0.7546771E-02  0.1022286E+00
         21   -1    0    0  502  501  0.00000000000E+00  0.00000000000E+00  0.13776405323E+03  0.13776405323E+03  0.00000000000E+00 0.  1.
         21   -1    0    0  501  502 -0.00000000000E+00 -0.00000000000E+00 -0.39866012037E+03  0.39866012037E+03  0.00000000000E+00 0.  1.
      99926    2    1    2    0    0  0.14210854715E-13  0.71054273576E-14 -0.26089606715E+03  0.53642417360E+03  0.46870474306E+03 0.  0.
      99925    2    3    3    0    0  0.11136654007E+03  0.51323707932E+02 -0.13125130146E+03  0.31849780390E+03  0.26301581266E+03 0.  0.
         25    1    4    4    0    0  0.78046210935E+02  0.60467587145E+02 -0.85843962363E+02  0.18100893379E+03  0.12509000000E+03 0.  0.
         25    1    3    3    0    0 -0.11136654007E+03 -0.51323707932E+02 -0.12964476569E+03  0.21792636970E+03  0.12509000000E+03 0.  0.
         25    1    4    4    0    0  0.33320329131E+02 -0.91438792135E+01 -0.45407339097E+02  0.13748887011E+03  0.12509000000E+03 0.  0.
<mgrwt>
<rscale>  2 0.46870474E+03</rscale>
<asrwt>0</asrwt>
<pdfrwt beam="1">  1       21 0.20259420E-01 0.46870474E+03</pdfrwt>
<pdfrwt beam="2">  1       21 0.58626488E-01 0.46870474E+03</pdfrwt>
<totfact> 0.56394113E+04</totfact>
</mgrwt>
</event>
<event>
 7    0  0.4685107E-002  0.4566088E+03  0.7546771E-02  0.1025769E+00
         21   -1    0    0  502  501  0.00000000000E+00  0.00000000000E+00  0.18030829910E+03  0.18030829910E+03  0.00000000000E+00 0.  1.
         21   -1    0    0  501  502 -0.00000000000E+00 -0.00000000000E+00 -0.28907655486E+03  0.28907655486E+03  0.00000000000E+00 0.  1.
      99926    2    1    2    0    0  0.00000000000E+00  0.00000000000E+00 -0.10876825576E+03  0.46938485396E+03  0.45660881252E+03 0.  0.
      99925    2    3    3    0    0  0.11276120801E+03 -0.18247581490E+02 -0.58147131528E+02  0.29258533309E+03  0.26301525426E+03 0.  0.
         25    1    4    4    0    0  0.23265651170E+02 -0.33756721352E+02 -0.35562176938E+02  0.13635609003E+03  0.12509000000E+03 0.  0.
         25    1    3    3    0    0 -0.11276120801E+03  0.18247581490E+02 -0.50621124232E+02  0.17679952087E+03  0.12509000000E+03 0.  0.
         25    1    4    4    0    0  0.89495556838E+02  0.15509139862E+02 -0.22584954589E+02  0.15622924306E+03  0.12509000000E+03 0.  0.
<mgrwt>
<rscale>  2 0.45660881E+03</rscale>
<asrwt>0</asrwt>
<pdfrwt beam="1">  1       21 0.26515926E-01 0.45660881E+03</pdfrwt>
<pdfrwt beam="2">  1       21 0.42511258E-01 0.45660881E+03</pdfrwt>
<totfact> 0.66627258E+04</totfact>
</mgrwt>
</event>
<event>
 6    0  0.4685107E-002  0.4593887E+03  0.7546771E-02  0.1024959E+00
         21   -1    0    0  502  501  0.00000000000E+00  0.00000000000E+00  0.73550001875E+03  0.73550001875E+03  0.00000000000E+00 0. -1.
         21   -1    0    0  501  502 -0.00000000000E+00 -0.00000000000E+00 -0.71732820807E+02  0.71732820807E+02  0.00000000000E+00 0. -1.
      99926    2    1    2    0    0  0.00000000000E+00  0.00000000000E+00  0.66376719794E+03  0.80723283955E+03  0.45938868531E+03 0.  0.
         25    1    3    3    0    0 -0.62108429436E+02 -0.53693788394E+02  0.27995180723E+03  0.31742873592E+03  0.12509000000E+03 0.  0.
         25    1    3    3    0    0  0.79922603929E+02  0.86458453037E+02  0.19015038610E+03  0.25625644217E+03  0.12509000000E+03 0.  0.
         25    1    3    3    0    0 -0.17814174493E+02 -0.32764664643E+02  0.19366500462E+03  0.23354766146E+03  0.12509000000E+03 0.  0.
<mgrwt>
<rscale>  2 0.45938869E+03</rscale>
<asrwt>0</asrwt>
<pdfrwt beam="1">  1       21 0.10816176E+00 0.45938869E+03</pdfrwt>
<pdfrwt beam="2">  1       21 0.10548945E-01 0.45938869E+03</pdfrwt>
<totfact> 0.45818483E+04</totfact>
</mgrwt>
</event>
<event>
 7    0  0.4685107E-002  0.4628109E+03  0.7546771E-02  0.1023969E+00
         21   -1    0    0  502  501  0.00000000000E+00  0.00000000000E+00  0.70900214768E+03  0.70900214768E+03  0.00000000000E+00 0. -1.
         21   -1    0    0  501  502 -0.00000000000E+00 -0.00000000000E+00 -0.75526530608E+02  0.75526530608E+02  0.00000000000E+00 0. -1.
      99926    2    1    2    0    0  0.00000000000E+00  0.14210854715E-13  0.63347561707E+03  0.78452867829E+03  0.46281085730E+03 0.  0.
      99925    2    3    3    0    0  0.44917306925E+02 -0.99321933644E+02  0.47830125712E+03  0.55735253286E+03  0.26455120933E+03 0.  0.
         25    1    4    4    0    0  0.37358705568E+02 -0.33895355854E+02  0.30649864238E+03  0.33486339590E+03  0.12509000000E+03 0.  0.
         25    1    3    3    0    0 -0.44917306925E+02  0.99321933644E+02  0.15517435995E+03  0.22717614542E+03  0.12509000000E+03 0.  0.
         25    1    4    4    0    0  0.75586013573E+01 -0.65426577790E+02  0.17180261474E+03  0.22248913696E+03  0.12509000000E+03 0.  0.
<mgrwt>
<rscale>  2 0.46281086E+03</rscale>
<asrwt>0</asrwt>
<pdfrwt beam="1">  1       21 0.10426502E+00 0.46281086E+03</pdfrwt>
<pdfrwt beam="2">  1       21 0.11106843E-01 0.46281086E+03</pdfrwt>
<totfact> 0.45658167E+04</totfact>
</mgrwt>
</event>
<event>
 7    0  0.4685107E-002  0.4635259E+03  0.7546771E-02  0.1023764E+00
         21   -1    0    0  502  501  0.00000000000E+00  0.00000000000E+00  0.45156295644E+02  0.45156295644E+02  0.00000000000E+00 0.  1.
         21   -1    0    0  501  502 -0.00000000000E+00 -0.00000000000E+00 -0.11895145668E+04  0.11895145668E+04  0.00000000000E+00 0.  1.
      99926    2    1    2    0    0 -0.71054273576E-14  0.00000000000E+00 -0.11443582712E+04  0.12346708625E+04  0.46352592787E+03 0.  0.
      99925    2    3    3    0    0 -0.38494671288E+02 -0.70373209977E+02 -0.95582561277E+03  0.99461607749E+03  0.26310513333E+03 0.  0.
         25    1    4    4    0    0 -0.38106394771E+02 -0.69059839833E+02 -0.57806487216E+03  0.59668070467E+03  0.12509000000E+03 0.  0.
         25    1    4    4    0    0 -0.38827651787E+00 -0.13133701442E+01 -0.37776074061E+03  0.39793537283E+03  0.12509000000E+03 0.  0.
         25    1    3    3    0    0  0.38494671288E+02  0.70373209977E+02 -0.18853265840E+03  0.24005478496E+03  0.12509000000E+03 0.  0.
<mgrwt>
<rscale>  2 0.46352593E+03</rscale>
<asrwt>0</asrwt>
<pdfrwt beam="1">  1       21 0.66406308E-02 0.46352593E+03</pdfrwt>
<pdfrwt beam="2">  1       21 0.17492864E+00 0.46352593E+03</pdfrwt>
<totfact> 0.29092905E+04</totfact>
</mgrwt>
</event>
<event>
 7    0  0.4685107E-002  0.4490473E+03  0.7546771E-02  0.1028007E+00
         21   -1    0    0  502  501  0.00000000000E+00  0.00000000000E+00  0.85214903126E+03  0.85214903126E+03  0.00000000000E+00 0.  1.
         21   -1    0    0  501  502 -0.00000000000E+00 -0.00000000000E+00 -0.59157329237E+02  0.59157329237E+02  0.00000000000E+00 0.  1.
      99926    2    1    2    0    0 -0.35527136788E-14  0.00000000000E+00  0.79299170202E+03  0.91130636049E+03  0.44904726166E+03 0.  0.
      99925    2    3    3    0    0  0.11114370452E+02  0.10056140877E+03  0.57557941687E+03  0.64084058447E+03  0.26296171474E+03 0.  0.
         25    1    3    3    0    0 -0.11114370452E+02 -0.10056140877E+03  0.21741228515E+03  0.27046577602E+03  0.12509000000E+03 0.  0.
         25    1    4    4    0    0  0.37229022984E+02  0.28020909326E+02  0.24309785306E+03  0.27733597995E+03  0.12509000000E+03 0.  0.
         25    1    4    4    0    0 -0.26114652532E+02  0.72540499444E+02  0.33248156381E+03  0.36350460452E+03  0.12509000000E+03 0.  0.
<mgrwt>
<rscale>  2 0.44904726E+03</rscale>
<asrwt>0</asrwt>
<pdfrwt beam="1">  1       21 0.12531603E+00 0.44904726E+03</pdfrwt>
<pdfrwt beam="2">  1       21 0.86996077E-02 0.44904726E+03</pdfrwt>
<totfact> 0.44798884E+04</totfact>
</mgrwt>
</event>
<event>
 7    0  0.4685107E-002  0.4527686E+03  0.7546771E-02  0.1026900E+00
         21   -1    0    0  502  501  0.00000000000E+00  0.00000000000E+00  0.91973292705E+03  0.91973292705E+03  0.00000000000E+00 0. -1.
         21   -1    0    0  501  502 -0.00000000000E+00 -0.00000000000E+00 -0.55722529016E+02  0.55722529016E+02  0.00000000000E+00 0. -1.
      99926    2    1    2    0    0  0.17763568394E-14  0.00000000000E+00  0.86401039803E+03  0.97545545606E+03  0.45276857097E+03 0.  0.
      99925    2    3    3    0    0 -0.95764678072E+01  0.10132430017E+02  0.30725688636E+03  0.40465220123E+03  0.26294911080E+03 0.  0.
         25    1    4    4    0    0 -0.40149587173E+02 -0.23740051072E+01  0.18284916676E+03  0.22516427589E+03  0.12509000000E+03 0.  0.
         25    1    4    4    0    0  0.30573119366E+02  0.12506435124E+02  0.12440771960E+03  0.17948792534E+03  0.12509000000E+03 0.  0.
         25    1    3    3    0    0  0.95764678072E+01 -0.10132430017E+02  0.55675351167E+03  0.57080325483E+03  0.12509000000E+03 0.  0.
<mgrwt>
<rscale>  2 0.45276857E+03</rscale>
<asrwt>0</asrwt>
<pdfrwt beam="1">  1       21 0.13525483E+00 0.45276857E+03</pdfrwt>
<pdfrwt beam="2">  1       21 0.81944902E-02 0.45276857E+03</pdfrwt>
<totfact> 0.40834502E+04</totfact>
</mgrwt>
</event>
<event>
 7    0  0.4685107E-002  0.4481955E+03  0.7546771E-02  0.1028262E+00
         21   -1    0    0  502  501  0.00000000000E+00  0.00000000000E+00  0.94369151832E+02  0.94369151832E+02  0.00000000000E+00 0. -1.
         21   -1    0    0  501  502 -0.00000000000E+00 -0.00000000000E+00 -0.53216325613E+03  0.53216325613E+03  0.00000000000E+00 0. -1.
      99926    2    1    2    0    0  0.71054273576E-14  0.00000000000E+00 -0.43779410429E+03  0.62653240796E+03  0.44819547127E+03 0.  0.
      99925    2    3    3    0    0  0.60223503864E+02  0.87875858497E+02 -0.26925028988E+03  0.39115279456E+03  0.26297481471E+03 0.  0.
         25    1    3    3    0    0 -0.60223503864E+02 -0.87875858497E+02 -0.16854381442E+03  0.23537961340E+03  0.12509000000E+03 0.  0.
         25    1    4    4    0    0  0.16743647578E+02  0.33789663328E+02 -0.77450696271E+02  0.15188222258E+03  0.12509000000E+03 0.  0.
         25    1    4    4    0    0  0.43479856286E+02  0.54086195169E+02 -0.19179959361E+03  0.23927057198E+03  0.12509000000E+03 0.  0.
<mgrwt>
<rscale>  2 0.44819547E+03</rscale>
<asrwt>0</asrwt>
<pdfrwt beam="1">  1       21 0.13877817E-01 0.44819547E+03</pdfrwt>
<pdfrwt beam="2">  1       21 0.78259300E-01 0.44819547E+03</pdfrwt>
<totfact> 0.60245827E+04</totfact>
</mgrwt>
</event>
<event>
 7    0  0.4685107E-002  0.4607402E+03  0.7546771E-02  0.1024567E+00
         21   -1    0    0  502  501  0.00000000000E+00  0.00000000000E+00  0.42461357644E+03  0.42461357644E+03  0.00000000000E+00 0.  1.
         21   -1    0    0  501  502 -0.00000000000E+00 -0.00000000000E+00 -0.12498514597E+03  0.12498514597E+03  0.00000000000E+00 0.  1.
      99926    2    1    2    0    0  0.00000000000E+00  0.00000000000E+00  0.29962843048E+03  0.54959872241E+03  0.46074022976E+03 0.  0.
      99925    2    3    3    0    0  0.67838391721E+02  0.93072479579E+01  0.30286729630E+03  0.40695696622E+03  0.26305265809E+03 0.  0.
         25    1    3    3    0    0 -0.67838391721E+02 -0.93072479579E+01 -0.32388658268E+01  0.14264175619E+03  0.12509000000E+03 0.  0.
         25    1    4    4    0    0 -0.25564997366E+01 -0.96916223762E+01  0.11917887777E+03  0.17306523696E+03  0.12509000000E+03 0.  0.
         25    1    4    4    0    0  0.70394891457E+02  0.18998870334E+02  0.18368841853E+03  0.23389172927E+03  0.12509000000E+03 0.  0.
<mgrwt>
<rscale>  2 0.46074023E+03</rscale>
<asrwt>0</asrwt>
<pdfrwt beam="1">  1       21 0.62443172E-01 0.46074023E+03</pdfrwt>
<pdfrwt beam="2">  1       21 0.18380169E-01 0.46074023E+03</pdfrwt>
<totfact> 0.59160016E+04</totfact>
</mgrwt>
</event>
<event>
 7    0  0.4685107E-002  0.4521648E+03  0.7546771E-02  0.1027078E+00
         21   -1    0    0  502  501  0.00000000000E+00  0.00000000000E+00  0.25093439710E+02  0.25093439710E+02  0.00000000000E+00 0. -1.
         21   -1    0    0  501  502 -0.00000000000E+00 -0.00000000000E+00 -0.20369171254E+04  0.20369171254E+04  0.00000000000E+00 0. -1.
      99926    2    1    2    0    0 -0.71054273576E-14  0.00000000000E+00 -0.20118236857E+04  0.20620105651E+04  0.45216482428E+03 0.  0.
      99925    2    3    3    0    0 -0.52563585521E+02  0.67488885842E+02 -0.15881583009E+04  0.16120577380E+04  0.26299369148E+03 0.  0.
         25    1    3    3    0    0  0.52563585521E+02 -0.67488885842E+02 -0.42366538477E+03  0.44995282707E+03  0.12509000000E+03 0.  0.
         25    1    4    4    0    0 -0.53133470697E+02  0.61142866142E+02 -0.75894978203E+03  0.77344288447E+03  0.12509000000E+03 0.  0.
         25    1    4    4    0    0  0.56988517634E+00  0.63460197002E+01 -0.82920851887E+03  0.83861485355E+03  0.12509000000E+03 0.  0.
<mgrwt>
<rscale>  2 0.45216482E+03</rscale>
<asrwt>0</asrwt>
<pdfrwt beam="1">  1       21 0.36902127E-02 0.45216482E+03</pdfrwt>
<pdfrwt beam="2">  1       21 0.29954656E+00 0.45216482E+03</pdfrwt>
<totfact> 0.13007653E+04</totfact>
</mgrwt>
</event>
<event>
 7    0  0.4685107E-002  0.4532139E+03  0.7546771E-02  0.1026768E+00
         21   -1    0    0  502  501  0.00000000000E+00  0.00000000000E+00  0.11592132806E+03  0.11592132806E+03  0.00000000000E+00 0. -1.
         21   -1    0    0  501  502 -0.00000000000E+00 -0.00000000000E+00 -0.44297894946E+03  0.44297894946E+03  0.00000000000E+00 0. -1.
      99926    2    1    2    0    0  0.00000000000E+00  0.14210854715E-13 -0.32705762140E+03  0.55890027752E+03  0.45321389265E+03 0.  0.
      99925    2    3    3    0    0  0.90708480720E+01 -0.10736936110E+03 -0.17388330351E+03  0.33368851106E+03  0.26363262163E+03 0.  0.
         25    1    4    4    0    0 -0.11246562438E+02 -0.44113513897E+02 -0.12833734623E+03  0.18490665162E+03  0.12509000000E+03 0.  0.
         25    1    3    3    0    0 -0.90708480720E+01  0.10736936110E+03 -0.15317431789E+03  0.22521176645E+03  0.12509000000E+03 0.  0.
         25    1    4    4    0    0  0.20317410510E+02 -0.63255847201E+02 -0.45545957277E+02  0.14878185944E+03  0.12509000000E+03 0.  0.
<mgrwt>
<rscale>  2 0.45321389E+03</rscale>
<asrwt>0</asrwt>
<pdfrwt beam="1">  1       21 0.17047254E-01 0.45321389E+03</pdfrwt>
<pdfrwt beam="2">  1       21 0.65143962E-01 0.45321389E+03</pdfrwt>
<totfact> 0.62155685E+04</totfact>
</mgrwt>
</event>
<event>
 7    0  0.4685107E-002  0.4677502E+03  0.7546771E-02  0.1022557E+00
         21   -1    0    0  502  501  0.00000000000E+00  0.00000000000E+00  0.10152088327E+03  0.10152088327E+03  0.00000000000E+00 0.  1.
         21   -1    0    0  501  502 -0.00000000000E+00 -0.00000000000E+00 -0.53878146338E+03  0.53878146338E+03  0.00000000000E+00 0.  1.
      99926    2    1    2    0    0  0.00000000000E+00  0.00000000000E+00 -0.43726058011E+03  0.64030234665E+03  0.46775023272E+03 0.  0.
      99925    2    3    3    0    0  0.60657640511E+02  0.74461186956E+02 -0.16302904262E+03  0.32395718394E+03  0.26295621417E+03 0.  0.
         25    1    4    4    0    0  0.70439933913E+02  0.38737545726E+02 -0.74646129415E+02  0.16637888831E+03  0.12509000000E+03 0.  0.
         25    1    3    3    0    0 -0.60657640511E+02 -0.74461186956E+02 -0.27423153749E+03  0.31634516271E+03  0.12509000000E+03 0.  0.
         25    1    4    4    0    0 -0.97822934011E+01  0.35723641230E+02 -0.88382913207E+02  0.15757829563E+03  0.12509000000E+03 0.  0.
<mgrwt>
<rscale>  2 0.46775023E+03</rscale>
<asrwt>0</asrwt>
<pdfrwt beam="1">  1       21 0.14929542E-01 0.46775023E+03</pdfrwt>
<pdfrwt beam="2">  1       21 0.79232568E-01 0.46775023E+03</pdfrwt>
<totfact> 0.50940768E+04</totfact>
</mgrwt>
</event>
<event>
 7    0  0.4685107E-002  0.4545148E+03  0.7546771E-02  0.1026384E+00
         21   -1    0    0  502  501  0.00000000000E+00  0.00000000000E+00  0.58360814915E+03  0.58360814915E+03  0.00000000000E+00 0. -1.
         21   -1    0    0  501  502 -0.00000000000E+00 -0.00000000000E+00 -0.88494181099E+02  0.88494181099E+02  0.00000000000E+00 0. -1.
      99926    2    1    2    0    0  0.00000000000E+00  0.00000000000E+00  0.49511396805E+03  0.67210233025E+03  0.45451479730E+03 0.  0.
      99925    2    3    3    0    0  0.14092007991E+02 -0.10842125958E+03  0.27129396819E+03  0.39336113370E+03  0.26301864974E+03 0.  0.
         25    1    4    4    0    0 -0.57724068214E+01 -0.12424136106E+02  0.11545301422E+03  0.17077642235E+03  0.12509000000E+03 0.  0.
         25    1    4    4    0    0  0.19864414812E+02 -0.95997123471E+02  0.15584095397E+03  0.22258471135E+03  0.12509000000E+03 0.  0.
         25    1    3    3    0    0 -0.14092007991E+02  0.10842125958E+03  0.22381999986E+03  0.27874119655E+03  0.12509000000E+03 0.  0.
<mgrwt>
<rscale>  2 0.45451480E+03</rscale>
<asrwt>0</asrwt>
<pdfrwt beam="1">  1       21 0.85824726E-01 0.45451480E+03</pdfrwt>
<pdfrwt beam="2">  1       21 0.13013850E-01 0.45451480E+03</pdfrwt>
<totfact> 0.54652880E+04</totfact>
</mgrwt>
</event>
<event>
 7    0  0.4685107E-002  0.4593171E+03  0.7546771E-02  0.1024979E+00
         21   -1    0    0  502  501  0.00000000000E+00  0.00000000000E+00  0.99495911550E+03  0.99495911550E+03  0.00000000000E+00 0. -1.
         21   -1    0    0  501  502 -0.00000000000E+00 -0.00000000000E+00 -0.53010269569E+02  0.53010269569E+02  0.00000000000E+00 0. -1.
      99926    2    1    2    0    0  0.53290705182E-14 -0.17763568394E-14  0.94194884593E+03  0.10479693851E+04  0.45931710581E+03 0.  0.
      99925    2    3    3    0    0  0.40556367382E+01 -0.14652199437E+02  0.85533904908E+03  0.89506451219E+03  0.26325739680E+03 0.  0.
         25    1    3    3    0    0 -0.40556367382E+01  0.14652199437E+02  0.86609796845E+02  0.15290487287E+03  0.12509000000E+03 0.  0.
         25    1    4    4    0    0  0.39555559014E+02 -0.64338961616E+01  0.37363185703E+03  0.39604836820E+03  0.12509000000E+03 0.  0.
         25    1    4    4    0    0 -0.35499922275E+02 -0.82183032751E+01  0.48170719205E+03  0.49901614399E+03  0.12509000000E+03 0.  0.
<mgrwt>
<rscale>  2 0.45931711E+03</rscale>
<asrwt>0</asrwt>
<pdfrwt beam="1">  1       21 0.14631751E+00 0.45931711E+03</pdfrwt>
<pdfrwt beam="2">  1       21 0.77956285E-02 0.45931711E+03</pdfrwt>
<totfact> 0.36119435E+04</totfact>
</mgrwt>
</event>
<event>
 7    0  0.4685107E-002  0.4570410E+03  0.7546771E-02  0.1025643E+00
         21   -1    0    0  502  501  0.00000000000E+00  0.00000000000E+00  0.31693668371E+03  0.31693668371E+03  0.00000000000E+00 0.  1.
         21   -1    0    0  501  502 -0.00000000000E+00 -0.00000000000E+00 -0.16476986295E+03  0.16476986295E+03  0.00000000000E+00 0.  1.
      99926    2    1    2    0    0  0.00000000000E+00  0.00000000000E+00  0.15216682076E+03  0.48170654667E+03  0.45704097821E+03 0.  0.
      99925    2    3    3    0    0 -0.93158272239E+02  0.11104736748E+02  0.25203811932E+02  0.28028933644E+03  0.26291652881E+03 0.  0.
         25    1    3    3    0    0  0.93158272239E+02 -0.11104736748E+02  0.12696300883E+03  0.20141721023E+03  0.12509000000E+03 0.  0.
         25    1    4    4    0    0 -0.72380970795E+02  0.34339201817E+01  0.45693347424E+02  0.15161196140E+03  0.12509000000E+03 0.  0.
         25    1    4    4    0    0 -0.20777301444E+02  0.76708165659E+01 -0.20489535493E+02  0.12867737504E+03  0.12509000000E+03 0.  0.
<mgrwt>
<rscale>  2 0.45704098E+03</rscale>
<asrwt>0</asrwt>
<pdfrwt beam="1">  1       21 0.46608336E-01 0.45704098E+03</pdfrwt>
<pdfrwt beam="2">  1       21 0.24230862E-01 0.45704098E+03</pdfrwt>
<totfact> 0.65508371E+04</totfact>
</mgrwt>
</event>
<event>
 7    0  0.4685107E-002  0.4550281E+03  0.7546771E-02  0.1026233E+00
         21   -1    0    0  502  501  0.00000000000E+00  0.00000000000E+00  0.89936985180E+03  0.89936985180E+03  0.00000000000E+00 0.  1.
         21   -1    0    0  501  502 -0.00000000000E+00 -0.00000000000E+00 -0.57554341360E+02  0.57554341360E+02  0.00000000000E+00 0.  1.
      99926    2    1    2    0    0  0.00000000000E+00  0.00000000000E+00  0.84181551044E+03  0.95692419316E+03  0.45502808467E+03 0.  0.
      99925    2    3    3    0    0  0.59273100563E+02 -0.96343457894E+02  0.53848620400E+03  0.60986290379E+03  0.26300191482E+03 0.  0.
         25    1    4    4    0    0  0.67406054337E+01 -0.66685890426E+02  0.21254474968E+03  0.25556843009E+03  0.12509000000E+03 0.  0.
         25    1    3    3    0    0 -0.59273100563E+02  0.96343457894E+02  0.30332930644E+03  0.34706128936E+03  0.12509000000E+03 0.  0.
         25    1    4    4    0    0  0.52532495130E+02 -0.29657567468E+02  0.32594145432E+03  0.35429447370E+03  0.12509000000E+03 0.  0.
<mgrwt>
<rscale>  2 0.45502808E+03</rscale>
<asrwt>0</asrwt>
<pdfrwt beam="1">  1       21 0.13226026E+00 0.45502808E+03</pdfrwt>
<pdfrwt beam="2">  1       21 0.84638743E-02 0.45502808E+03</pdfrwt>
<totfact> 0.40852740E+04</totfact>
</mgrwt>
</event>
<event>
 7    0  0.4685107E-002  0.4447280E+03  0.7546771E-02  0.1029306E+00
         21   -1    0    0  502  501  0.00000000000E+00  0.00000000000E+00  0.15299567691E+03  0.15299567691E+03  0.00000000000E+00 0.  1.
         21   -1    0    0  501  502 -0.00000000000E+00 -0.00000000000E+00 -0.32318392722E+03  0.32318392722E+03  0.00000000000E+00 0.  1.
      99926    2    1    2    0    0  0.00000000000E+00  0.00000000000E+00 -0.17018825030E+03  0.47617960413E+03  0.44472797849E+03 0.  0.
      99925    2    3    3    0    0 -0.70199181268E+02 -0.31616195049E+02 -0.34537044120E+02  0.27623894624E+03  0.26303543328E+03 0.  0.
         25    1    4    4    0    0 -0.26851391677E+02 -0.10540562945E+02 -0.56747961768E+02  0.14035647462E+03  0.12509000000E+03 0.  0.
         25    1    4    4    0    0 -0.43347789591E+02 -0.21075632103E+02  0.22210917648E+02  0.13588247162E+03  0.12509000000E+03 0.  0.
         25    1    3    3    0    0  0.70199181268E+02  0.31616195049E+02 -0.13565120618E+03  0.19994065789E+03  0.12509000000E+03 0.  0.
<mgrwt>
<rscale>  2 0.44472798E+03</rscale>
<asrwt>0</asrwt>
<pdfrwt beam="1">  1       21 0.22499364E-01 0.44472798E+03</pdfrwt>
<pdfrwt beam="2">  1       21 0.47527048E-01 0.44472798E+03</pdfrwt>
<totfact> 0.72731112E+04</totfact>
</mgrwt>
</event>
<event>
 7    0  0.4685107E-002  0.4349923E+03  0.7546771E-02  0.1032294E+00
         21   -1    0    0  502  501  0.00000000000E+00  0.00000000000E+00  0.11996082459E+04  0.11996082459E+04  0.00000000000E+00 0.  1.
         21   -1    0    0  501  502 -0.00000000000E+00 -0.00000000000E+00 -0.39433351356E+02  0.39433351356E+02  0.00000000000E+00 0.  1.
      99926    2    1    2    0    0  0.44408920985E-14  0.00000000000E+00  0.11601748945E+04  0.12390415972E+04  0.43499229165E+03 0.  0.
      99925    2    3    3    0    0 -0.67266302682E+01 -0.94127509649E+02  0.74306015518E+03  0.79346618330E+03  0.26181091306E+03 0.  0.
         25    1    4    4    0    0 -0.40301113989E+02 -0.35514468585E+02  0.36392875389E+03  0.38855772193E+03  0.12509000000E+03 0.  0.
         25    1    4    4    0    0  0.33574483720E+02 -0.58613041065E+02  0.37913140129E+03  0.40490846136E+03  0.12509000000E+03 0.  0.
         25    1    3    3    0    0  0.67266302682E+01  0.94127509649E+02  0.41711473935E+03  0.44557541394E+03  0.12509000000E+03 0.  0.
<mgrwt>
<rscale>  2 0.43499229E+03</rscale>
<asrwt>0</asrwt>
<pdfrwt beam="1">  1       21 0.17641295E+00 0.43499229E+03</pdfrwt>
<pdfrwt beam="2">  1       21 0.57990230E-02 0.43499229E+03</pdfrwt>
<totfact> 0.36264018E+04</totfact>
</mgrwt>
</event>
<event>
 7    0  0.4685107E-002  0.4481433E+03  0.7546771E-02  0.1028277E+00
         21   -1    0    0  502  501  0.00000000000E+00  0.00000000000E+00  0.47703972493E+03  0.47703972493E+03  0.00000000000E+00 0. -1.
         21   -1    0    0  501  502 -0.00000000000E+00 -0.00000000000E+00 -0.10524933814E+03  0.10524933814E+03  0.00000000000E+00 0. -1.
      99926    2    1    2    0    0  0.00000000000E+00 -0.35527136788E-14  0.37179038680E+03  0.58228906307E+03  0.44814334900E+03 0.  0.
      99925    2    3    3    0    0 -0.98801055380E+02 -0.28245812827E+02  0.19875654752E+03  0.34533402066E+03  0.26304362026E+03 0.  0.
         25    1    4    4    0    0 -0.12915969446E+02  0.75046599371E+01  0.78321828843E+02  0.14834068613E+03  0.12509000000E+03 0.  0.
         25    1    4    4    0    0 -0.85885085934E+02 -0.35750472764E+02  0.12043471868E+03  0.19699333454E+03  0.12509000000E+03 0.  0.
         25    1    3    3    0    0  0.98801055380E+02  0.28245812827E+02  0.17303383928E+03  0.23695504241E+03  0.12509000000E+03 0.  0.
<mgrwt>
<rscale>  2 0.44814335E+03</rscale>
<asrwt>0</asrwt>
<pdfrwt beam="1">  1       21 0.70152900E-01 0.44814335E+03</pdfrwt>
<pdfrwt beam="2">  1       21 0.15477844E-01 0.44814335E+03</pdfrwt>
<totfact> 0.63134966E+04</totfact>
</mgrwt>
</event>
<event>
 7    0  0.4685107E-002  0.4419677E+03  0.7546771E-02  0.1030145E+00
         21   -1    0    0  502  501  0.00000000000E+00  0.00000000000E+00  0.58011007521E+02  0.58011007521E+02  0.00000000000E+00 0.  1.
         21   -1    0    0  501  502 -0.00000000000E+00 -0.00000000000E+00 -0.84180321869E+03  0.84180321869E+03  0.00000000000E+00 0.  1.
      99926    2    1    2    0    0  0.00000000000E+00 -0.35527136788E-14 -0.78379221117E+03  0.89981422622E+03  0.44196765878E+03 0.  0.
      99925    2    3    3    0    0  0.85903872778E+02  0.30283019597E+02 -0.58512886975E+03  0.64799848413E+03  0.26311538266E+03 0.  0.
         25    1    3    3    0    0 -0.85903872778E+02 -0.30283019597E+02 -0.19866334143E+03  0.25181574208E+03  0.12509000000E+03 0.  0.
         25    1    4    4    0    0  0.11266057242E+02 -0.98051607320E+01 -0.29836134218E+03  0.32386735530E+03  0.12509000000E+03 0.  0.
         25    1    4    4    0    0  0.74637815536E+02  0.40088180329E+02 -0.28676752757E+03  0.32413112883E+03  0.12509000000E+03 0.  0.
<mgrwt>
<rscale>  2 0.44196766E+03</rscale>
<asrwt>0</asrwt>
<pdfrwt beam="1">  1       21 0.85310301E-02 0.44196766E+03</pdfrwt>
<pdfrwt beam="2">  1       21 0.12379460E+00 0.44196766E+03</pdfrwt>
<totfact> 0.47948229E+04</totfact>
</mgrwt>
</event>
<event>
 7    0  0.4685107E-002  0.4099589E+03  0.7546771E-02  0.1040385E+00
         21   -1    0    0  502  501  0.00000000000E+00  0.00000000000E+00  0.91812356907E+02  0.91812356907E+02  0.00000000000E+00 0. -1.
         21   -1    0    0  501  502 -0.00000000000E+00 -0.00000000000E+00 -0.45763536877E+03  0.45763536877E+03  0.00000000000E+00 0. -1.
      99926    2    1    2    0    0  0.00000000000E+00 -0.22204460493E-15 -0.36582301186E+03  0.54944772568E+03  0.40995893360E+03 0.  0.
      99925    2    3    3    0    0 -0.33489652776E+02 -0.17232688187E+01 -0.17116222438E+03  0.31564255725E+03  0.26307639650E+03 0.  0.
         25    1    3    3    0    0  0.33489652776E+02  0.17232688187E+01 -0.19466078748E+03  0.23380516843E+03  0.12509000000E+03 0.  0.
         25    1    4    4    0    0 -0.52468779023E+02 -0.51470657685E+01 -0.11173672140E+03  0.17581828138E+03  0.12509000000E+03 0.  0.
         25    1    4    4    0    0  0.18979126246E+02  0.34237969497E+01 -0.59425502980E+02  0.13982427587E+03  0.12509000000E+03 0.  0.
<mgrwt>
<rscale>  2 0.40995893E+03</rscale>
<asrwt>0</asrwt>
<pdfrwt beam="1">  1       21 0.13501817E-01 0.40995893E+03</pdfrwt>
<pdfrwt beam="2">  1       21 0.67299319E-01 0.40995893E+03</pdfrwt>
<totfact> 0.89909117E+04</totfact>
</mgrwt>
</event>
<event>
 7    0  0.4685107E-002  0.4594773E+03  0.7546771E-02  0.1024933E+00
         21   -1    0    0  502  501  0.00000000000E+00  0.00000000000E+00  0.37412659448E+03  0.37412659448E+03  0.00000000000E+00 0. -1.
         21   -1    0    0  501  502 -0.00000000000E+00 -0.00000000000E+00 -0.14107482059E+03  0.14107482059E+03  0.00000000000E+00 0. -1.
      99926    2    1    2    0    0  0.00000000000E+00  0.00000000000E+00  0.23305177389E+03  0.51520141506E+03  0.45947727775E+03 0.  0.
      99925    2    3    3    0    0  0.20240754216E+02  0.99423920789E+02  0.21176571375E+03  0.35273477660E+03  0.26321531291E+03 0.  0.
         25    1    4    4    0    0 -0.23447739489E+02  0.73864935377E+02  0.10999250229E+03  0.18371631345E+03  0.12509000000E+03 0.  0.
         25    1    4    4    0    0  0.43688493705E+02  0.25558985412E+02  0.10177321146E+03  0.16901846316E+03  0.12509000000E+03 0.  0.
         25    1    3    3    0    0 -0.20240754216E+02 -0.99423920789E+02  0.21286060139E+02  0.16246663846E+03  0.12509000000E+03 0.  0.
<mgrwt>
<rscale>  2 0.45947728E+03</rscale>
<asrwt>0</asrwt>
<pdfrwt beam="1">  1       21 0.55018617E-01 0.45947728E+03</pdfrwt>
<pdfrwt beam="2">  1       21 0.20746297E-01 0.45947728E+03</pdfrwt>
<totfact> 0.61983635E+04</totfact>
</mgrwt>
</event>
<event>
 7    0  0.4685107E-002  0.4398302E+03  0.7546771E-02  0.1030799E+00
         21   -1    0    0  502  501  0.00000000000E+00  0.00000000000E+00  0.65713584426E+03  0.65713584426E+03  0.00000000000E+00 0. -1.
         21   -1    0    0  501  502 -0.00000000000E+00 -0.00000000000E+00 -0.73596128288E+02  0.73596128288E+02  0.00000000000E+00 0. -1.
      99926    2    1    2    0    0  0.00000000000E+00  0.00000000000E+00  0.58353971597E+03  0.73073197255E+03  0.43983021223E+03 0.  0.
      99925    2    3    3    0    0 -0.50563946989E+02 -0.92723547294E+01  0.51160661826E+03  0.57755048560E+03  0.26302194257E+03 0.  0.
         25    1    4    4    0    0 -0.48403337703E+02  0.37215926917E+00  0.33545347385E+03  0.36127491308E+03  0.12509000000E+03 0.  0.
         25    1    3    3    0    0  0.50563946989E+02  0.92723547294E+01  0.71933097711E+02  0.15318148695E+03  0.12509000000E+03 0.  0.
         25    1    4    4    0    0 -0.21606092860E+01 -0.96445139985E+01  0.17615314441E+03  0.21627557252E+03  0.12509000000E+03 0.  0.
<mgrwt>
<rscale>  2 0.43983021E+03</rscale>
<asrwt>0</asrwt>
<pdfrwt beam="1">  1       21 0.96637621E-01 0.43983021E+03</pdfrwt>
<pdfrwt beam="2">  1       21 0.10822960E-01 0.43983021E+03</pdfrwt>
<totfact> 0.57865687E+04</totfact>
</mgrwt>
</event>
<event>
 6    0  0.4685107E-002  0.4407257E+03  0.7546771E-02  0.1030524E+00
         21   -1    0    0  502  501  0.00000000000E+00  0.00000000000E+00  0.16002998720E+03  0.16002998720E+03  0.00000000000E+00 0. -1.
         21   -1    0    0  501  502 -0.00000000000E+00 -0.00000000000E+00 -0.30344172104E+03  0.30344172104E+03  0.00000000000E+00 0. -1.
      99926    2    1    2    0    0  0.00000000000E+00  0.00000000000E+00 -0.14341173384E+03  0.46347170824E+03  0.44072565041E+03 0.  0.
         25    1    3    3    0    0  0.15726805093E+02  0.33205547140E+02  0.23427757375E+01  0.13039531225E+03  0.12509000000E+03 0.  0.
         25    1    3    3    0    0 -0.20866571083E+02  0.62369735494E+02 -0.79975812403E+02  0.16238545613E+03  0.12509000000E+03 0.  0.
         25    1    3    3    0    0  0.51397659902E+01 -0.95575282633E+02 -0.65778697175E+02  0.17069093985E+03  0.12509000000E+03 0.  0.
<mgrwt>
<rscale>  2 0.44072565E+03</rscale>
<asrwt>0</asrwt>
<pdfrwt beam="1">  1       21 0.23533822E-01 0.44072565E+03</pdfrwt>
<pdfrwt beam="2">  1       21 0.44623781E-01 0.44072565E+03</pdfrwt>
<totfact> 0.76195318E+04</totfact>
</mgrwt>
</event>
<event>
 7    0  0.4685107E-002  0.4569863E+03  0.7546771E-02  0.1025659E+00
         21   -1    0    0  502  501  0.00000000000E+00  0.00000000000E+00  0.23840593218E+03  0.23840593218E+03  0.00000000000E+00 0.  1.
         21   -1    0    0  501  502 -0.00000000000E+00 -0.00000000000E+00 -0.21899250295E+03  0.21899250295E+03  0.00000000000E+00 0.  1.
      99926    2    1    2    0    0  0.00000000000E+00  0.71054273576E-14  0.19413429228E+02  0.45739843513E+03  0.45698626591E+03 0.  0.
      99925    2    3    3    0    0 -0.37436052878E+02 -0.44046735324E+02  0.11088834266E+03  0.29199970226E+03  0.26386744520E+03 0.  0.
         25    1    3    3    0    0  0.37436052878E+02  0.44046735324E+02 -0.91474913434E+02  0.16539873287E+03  0.12509000000E+03 0.  0.
         25    1    4    4    0    0 -0.26528343267E+01 -0.52059873010E+02  0.83148082499E+02  0.15899175963E+03  0.12509000000E+03 0.  0.
         25    1    4    4    0    0 -0.34783218551E+02  0.80131376858E+01  0.27740260164E+02  0.13300794263E+03  0.12509000000E+03 0.  0.
<mgrwt>
<rscale>  2 0.45698627E+03</rscale>
<asrwt>0</asrwt>
<pdfrwt beam="1">  1       21 0.35059696E-01 0.45698627E+03</pdfrwt>
<pdfrwt beam="2">  1       21 0.32204780E-01 0.45698627E+03</pdfrwt>
<totfact> 0.67297577E+04</totfact>
</mgrwt>
</event>
<event>
 7    0  0.4685107E-002  0.4491661E+03  0.7546771E-02  0.1027971E+00
         21   -1    0    0  502  501  0.00000000000E+00  0.00000000000E+00  0.65206382566E+02  0.65206382566E+02  0.00000000000E+00 0.  1.
         21   -1    0    0  501  502 -0.00000000000E+00 -0.00000000000E+00 -0.77350628146E+03  0.77350628146E+03  0.00000000000E+00 0.  1.
      99926    2    1    2    0    0  0.00000000000E+00  0.35527136788E-14 -0.70829989890E+03  0.83871266403E+03  0.44916610071E+03 0.  0.
      99925    2    3    3    0    0  0.10558675681E+03 -0.15140913708E+02 -0.47521255082E+03  0.55348463172E+03  0.26294573320E+03 0.  0.
         25    1    3    3    0    0 -0.10558675681E+03  0.15140913708E+02 -0.23308734808E+03  0.28522803231E+03  0.12509000000E+03 0.  0.
         25    1    4    4    0    0  0.74592358037E+02 -0.42625646964E+02 -0.26555945432E+03  0.30585993124E+03  0.12509000000E+03 0.  0.
         25    1    4    4    0    0  0.30994398776E+02  0.27484733257E+02 -0.20965309650E+03  0.24762470048E+03  0.12509000000E+03 0.  0.
<mgrwt>
<rscale>  2 0.44916610E+03</rscale>
<asrwt>0</asrwt>
<pdfrwt beam="1">  1       21 0.95891743E-02 0.44916610E+03</pdfrwt>
<pdfrwt beam="2">  1       21 0.11375092E+00 0.44916610E+03</pdfrwt>
<totfact> 0.48113190E+04</totfact>
</mgrwt>
</event>
<event>
 7    0  0.4685107E-002  0.3903334E+03  0.7546771E-02  0.1047179E+00
         21   -1    0    0  502  501  0.00000000000E+00  0.00000000000E+00  0.23316557311E+03  0.23316557311E+03  0.00000000000E+00 0.  1.
         21   -1    0    0  501  502 -0.00000000000E+00 -0.00000000000E+00 -0.16336047874E+03  0.16336047874E+03  0.00000000000E+00 0.  1.
      99926    2    1    2    0    0 -0.53290705182E-14  0.17763568394E-14  0.69805094367E+02  0.39652605185E+03  0.39033339416E+03 0.  0.
      99925    2    3    3    0    0  0.70746435384E+01  0.12436070382E+02  0.60732534427E+02  0.27029401997E+03  0.26299374530E+03 0.  0.
         25    1    4    4    0    0  0.42927140548E+02  0.13920110511E+02  0.36770693700E+02  0.13797137706E+03  0.12509000000E+03 0.  0.
         25    1    3    3    0    0 -0.70746435384E+01 -0.12436070382E+02  0.90725599400E+01  0.12623203188E+03  0.12509000000E+03 0.  0.
         25    1    4    4    0    0 -0.35852497010E+02 -0.14840401291E+01  0.23961840727E+02  0.13232264291E+03  0.12509000000E+03 0.  0.
<mgrwt>
<rscale>  2 0.39033339E+03</rscale>
<asrwt>0</asrwt>
<pdfrwt beam="1">  1       21 0.34289055E-01 0.39033339E+03</pdfrwt>
<pdfrwt beam="2">  1       21 0.24023600E-01 0.39033339E+03</pdfrwt>
<totfact> 0.12695037E+05</totfact>
</mgrwt>
</event>
<event>
 7    0  0.4685107E-002  0.4552224E+03  0.7546771E-02  0.1026176E+00
         21   -1    0    0  502  501  0.00000000000E+00  0.00000000000E+00  0.96857021928E+02  0.96857021928E+02  0.00000000000E+00 0.  1.
         21   -1    0    0  501  502 -0.00000000000E+00 -0.00000000000E+00 -0.53487980837E+03  0.53487980837E+03  0.00000000000E+00 0.  1.
      99926    2    1    2    0    0  0.00000000000E+00 -0.14210854715E-13 -0.43802278645E+03  0.63173683030E+03  0.45522243059E+03 0.  0.
      99925    2    3    3    0    0  0.79223661928E+02  0.81204363148E+02 -0.26517170514E+03  0.39008513548E+03  0.26264013880E+03 0.  0.
         25    1    4    4    0    0  0.38289878617E+02  0.82054555905E+02 -0.13945335236E+03  0.20807164760E+03  0.12509000000E+03 0.  0.
         25    1    4    4    0    0  0.40933783312E+02 -0.85019275676E+00 -0.12571835278E+03  0.18201348788E+03  0.12509000000E+03 0.  0.
         25    1    3    3    0    0 -0.79223661928E+02 -0.81204363148E+02 -0.17285108130E+03  0.24165169482E+03  0.12509000000E+03 0.  0.
<mgrwt>
<rscale>  2 0.45522243E+03</rscale>
<asrwt>0</asrwt>
<pdfrwt beam="1">  1       21 0.14243680E-01 0.45522243E+03</pdfrwt>
<pdfrwt beam="2">  1       21 0.78658796E-01 0.45522243E+03</pdfrwt>
<totfact> 0.56666535E+04</totfact>
</mgrwt>
</event>
<event>
 7    0  0.4685107E-002  0.4538865E+03  0.7546771E-02  0.1026569E+00
         21   -1    0    0  502  501  0.00000000000E+00  0.00000000000E+00  0.58342621200E+02  0.58342621200E+02  0.00000000000E+00 0. -1.
         21   -1    0    0  501  502 -0.00000000000E+00 -0.00000000000E+00 -0.88277205509E+03  0.88277205509E+03  0.00000000000E+00 0. -1.
      99926    2    1    2    0    0 -0.14210854715E-13  0.00000000000E+00 -0.82442943389E+03  0.94111467629E+03  0.45388648632E+03 0.  0.
      99925    2    3    3    0    0  0.10966060486E+03  0.22888265214E+02 -0.52667175266E+03  0.59927192622E+03  0.26304825711E+03 0.  0.
         25    1    4    4    0    0  0.86848457355E+02 -0.15237789165E+02 -0.29064346586E+03  0.32847523059E+03  0.12509000000E+03 0.  0.
         25    1    4    4    0    0  0.22812147502E+02  0.38126054379E+02 -0.23602828680E+03  0.27079669563E+03  0.12509000000E+03 0.  0.
         25    1    3    3    0    0 -0.10966060486E+03 -0.22888265214E+02 -0.29775768123E+03  0.34184275007E+03  0.12509000000E+03 0.  0.
<mgrwt>
<rscale>  2 0.45388649E+03</rscale>
<asrwt>0</asrwt>
<pdfrwt beam="1">  1       21 0.85797969E-02 0.45388649E+03</pdfrwt>
<pdfrwt beam="2">  1       21 0.12981942E+00 0.45388649E+03</pdfrwt>
<totfact> 0.41866094E+04</totfact>
</mgrwt>
</event>
<event>
 7    0  0.4685107E-002  0.4567745E+03  0.7546771E-02  0.1025721E+00
         21   -1    0    0  502  501  0.00000000000E+00  0.00000000000E+00  0.17879920575E+04  0.17879920575E+04  0.00000000000E+00 0.  1.
         21   -1    0    0  501  502 -0.00000000000E+00 -0.00000000000E+00 -0.29172802557E+02  0.29172802557E+02  0.00000000000E+00 0.  1.
      99926    2    1    2    0    0  0.00000000000E+00  0.00000000000E+00  0.17588192549E+04  0.18171648601E+04  0.45677451447E+03 0.  0.
      99925    2    3    3    0    0 -0.25694951757E+02  0.51321804138E+02  0.70337605209E+03  0.75278615833E+03  0.26202093696E+03 0.  0.
         25    1    3    3    0    0  0.25694951757E+02 -0.51321804138E+02  0.10554432029E+04  0.10643787017E+04  0.12509000000E+03 0.  0.
         25    1    4    4    0    0  0.10431166094E+02  0.36673128325E+02  0.26939560893E+03  0.29945822710E+03  0.12509000000E+03 0.  0.
         25    1    4    4    0    0 -0.36126117850E+02  0.14648675813E+02  0.43398044316E+03  0.45332793123E+03  0.12509000000E+03 0.  0.
<mgrwt>
<rscale>  2 0.45677451E+03</rscale>
<asrwt>0</asrwt>
<pdfrwt beam="1">  1       21 0.26293993E+00 0.45677451E+03</pdfrwt>
<pdfrwt beam="2">  1       21 0.42901192E-02 0.45677451E+03</pdfrwt>
<totfact> 0.16700724E+04</totfact>
</mgrwt>
</event>
<event>
 7    0  0.4685107E-002  0.4488115E+03  0.7546771E-02  0.1028077E+00
         21   -1    0    0  502  501  0.00000000000E+00  0.00000000000E+00  0.23232728987E+03  0.23232728987E+03  0.00000000000E+00 0.  1.
         21   -1    0    0  501  502 -0.00000000000E+00 -0.00000000000E+00 -0.21675425850E+03  0.21675425850E+03  0.00000000000E+00 0.  1.
      99926    2    1    2    0    0  0.00000000000E+00  0.17763568394E-14  0.15573031373E+02  0.44908154836E+03  0.44881145014E+03 0.  0.
      99925    2    3    3    0    0 -0.10248009271E+03  0.98363826235E+01 -0.20639437833E+02  0.28307620251E+03  0.26288253311E+03 0.  0.
         25    1    3    3    0    0  0.10248009271E+03 -0.98363826235E+01  0.36212469205E+02  0.16600534585E+03  0.12509000000E+03 0.  0.
         25    1    4    4    0    0 -0.57679314927E+02 -0.20054139915E+02 -0.41596440623E+02  0.14528194613E+03  0.12509000000E+03 0.  0.
         25    1    4    4    0    0 -0.44800777780E+02  0.29890522538E+02  0.20957002790E+02  0.13779425639E+03  0.12509000000E+03 0.  0.
<mgrwt>
<rscale>  2 0.44881145E+03</rscale>
<asrwt>0</asrwt>
<pdfrwt beam="1">  1       21 0.34165778E-01 0.44881145E+03</pdfrwt>
<pdfrwt beam="2">  1       21 0.31875626E-01 0.44881145E+03</pdfrwt>
<totfact> 0.72495677E+04</totfact>
</mgrwt>
</event>
<event>
 7    0  0.4685107E-002  0.4658906E+03  0.7546771E-02  0.1023087E+00
         21   -1    0    0  502  501  0.00000000000E+00  0.00000000000E+00  0.15360146020E+03  0.15360146020E+03  0.00000000000E+00 0.  1.
         21   -1    0    0  501  502 -0.00000000000E+00 -0.00000000000E+00 -0.35327472045E+03  0.35327472045E+03  0.00000000000E+00 0.  1.
      99926    2    1    2    0    0  0.00000000000E+00  0.00000000000E+00 -0.19967326025E+03  0.50687618065E+03  0.46589060051E+03 0.  0.
      99925    2    3    3    0    0 -0.11155259602E+03 -0.11248957058E+02 -0.17948845835E+03  0.33768559272E+03  0.26314431809E+03 0.  0.
         25    1    3    3    0    0  0.11155259602E+03  0.11248957058E+02 -0.20184801907E+02  0.16919058792E+03  0.12509000000E+03 0.  0.
         25    1    4    4    0    0 -0.97396957211E+02  0.39029888056E+01 -0.88363318276E+02  0.18154058696E+03  0.12509000000E+03 0.  0.
         25    1    4    4    0    0 -0.14155638808E+02 -0.15151945864E+02 -0.91125140070E+02  0.15614500577E+03  0.12509000000E+03 0.  0.
<mgrwt>
<rscale>  2 0.46589060E+03</rscale>
<asrwt>0</asrwt>
<pdfrwt beam="1">  1       21 0.22588450E-01 0.46589060E+03</pdfrwt>
<pdfrwt beam="2">  1       21 0.51952165E-01 0.46589060E+03</pdfrwt>
<totfact> 0.59479589E+04</totfact>
</mgrwt>
</event>
<event>
 7    0  0.4685107E-002  0.4537307E+03  0.7546771E-02  0.1026615E+00
         21   -1    0    0  502  501  0.00000000000E+00  0.00000000000E+00  0.37900329145E+03  0.37900329145E+03  0.00000000000E+00 0. -1.
         21   -1    0    0  501  502 -0.00000000000E+00 -0.00000000000E+00 -0.13579801023E+03  0.13579801023E+03  0.00000000000E+00 0. -1.
      99926    2    1    2    0    0 -0.22204460493E-14  0.35527136788E-14  0.24320528123E+03  0.51480130168E+03  0.45373072565E+03 0.  0.
      99925    2    3    3    0    0  0.39108712683E+01 -0.19431999540E+02  0.28187897228E+02  0.26525595301E+03  0.26300810926E+03 0.  0.
         25    1    3    3    0    0 -0.39108712683E+01  0.19431999540E+02  0.21501738400E+03  0.24954534867E+03  0.12509000000E+03 0.  0.
         25    1    4    4    0    0  0.32721175174E+02 -0.22436857304E+02  0.37600082099E+02  0.13651139932E+03  0.12509000000E+03 0.  0.
         25    1    4    4    0    0 -0.28810303905E+02  0.30048577638E+01 -0.94121848704E+01  0.12874455369E+03  0.12509000000E+03 0.  0.
<mgrwt>
<rscale>  2 0.45373073E+03</rscale>
<asrwt>0</asrwt>
<pdfrwt beam="1">  1       21 0.55735778E-01 0.45373073E+03</pdfrwt>
<pdfrwt beam="2">  1       21 0.19970296E-01 0.45373073E+03</pdfrwt>
<totfact> 0.64893973E+04</totfact>
</mgrwt>
</event>
<event>
 6    0  0.4685107E-002  0.4526744E+03  0.7546771E-02  0.1026928E+00
         21   -1    0    0  502  501  0.00000000000E+00  0.00000000000E+00  0.63346123133E+02  0.63346123133E+02  0.00000000000E+00 0. -1.
         21   -1    0    0  501  502 -0.00000000000E+00 -0.00000000000E+00 -0.80870808299E+03  0.80870808299E+03  0.00000000000E+00 0. -1.
      99926    2    1    2    0    0  0.00000000000E+00  0.00000000000E+00 -0.74536195986E+03  0.87205420613E+03  0.45267437217E+03 0.  0.
         25    1    3    3    0    0 -0.50974271991E+02  0.42744698269E+02 -0.24435433128E+03  0.28245713471E+03  0.12509000000E+03 0.  0.
         25    1    3    3    0    0 -0.22854615923E+01  0.33735615720E+02 -0.34693661290E+03  0.37034556373E+03  0.12509000000E+03 0.  0.
         25    1    3    3    0    0  0.53259733584E+02 -0.76480313989E+02 -0.15407101568E+03  0.21925150769E+03  0.12509000000E+03 0.  0.
<mgrwt>
<rscale>  2 0.45267437E+03</rscale>
<asrwt>0</asrwt>
<pdfrwt beam="1">  1       21 0.93156070E-02 0.45267437E+03</pdfrwt>
<pdfrwt beam="2">  1       21 0.11892765E+00 0.45267437E+03</pdfrwt>
<totfact> 0.45283337E+04</totfact>
</mgrwt>
</event>
<event>
 7    0  0.4685107E-002  0.4542181E+03  0.7546771E-02  0.1026472E+00
         21   -1    0    0  502  501  0.00000000000E+00  0.00000000000E+00  0.85095176900E+03  0.85095176900E+03  0.00000000000E+00 0.  1.
         21   -1    0    0  501  502 -0.00000000000E+00 -0.00000000000E+00 -0.60612749781E+02  0.60612749781E+02  0.00000000000E+00 0.  1.
      99926    2    1    2    0    0  0.00000000000E+00  0.00000000000E+00  0.79033901921E+03  0.91156451878E+03  0.45421812668E+03 0.  0.
      99925    2    3    3    0    0 -0.21567407290E+02 -0.76135713095E+02  0.33733329657E+03  0.43498976838E+03  0.26298392680E+03 0.  0.
         25    1    3    3    0    0  0.21567407290E+02  0.76135713095E+02  0.45300572264E+03  0.47657475040E+03  0.12509000000E+03 0.  0.
         25    1    4    4    0    0  0.14213362954E+00 -0.10127116516E+02  0.20336018224E+03  0.23896746748E+03  0.12509000000E+03 0.  0.
         25    1    4    4    0    0 -0.21709540920E+02 -0.66008596579E+02  0.13397311433E+03  0.19602230091E+03  0.12509000000E+03 0.  0.
<mgrwt>
<rscale>  2 0.45421813E+03</rscale>
<asrwt>0</asrwt>
<pdfrwt beam="1">  1       21 0.12513996E+00 0.45421813E+03</pdfrwt>
<pdfrwt beam="2">  1       21 0.89136402E-02 0.45421813E+03</pdfrwt>
<totfact> 0.43000109E+04</totfact>
</mgrwt>
</event>
<event>
 7    0  0.4685107E-002  0.4504930E+03  0.7546771E-02  0.1027575E+00
         21   -1    0    0  502  501  0.00000000000E+00  0.00000000000E+00  0.10291836022E+03  0.10291836022E+03  0.00000000000E+00 0. -1.
         21   -1    0    0  501  502 -0.00000000000E+00 -0.00000000000E+00 -0.49297320868E+03  0.49297320868E+03  0.00000000000E+00 0. -1.
      99926    2    1    2    0    0  0.00000000000E+00  0.00000000000E+00 -0.39005484846E+03  0.59589156890E+03  0.45049303777E+03 0.  0.
      99925    2    3    3    0    0 -0.37429563752E+02 -0.37283846052E+02 -0.12046691695E+03  0.29403693777E+03  0.26297221389E+03 0.  0.
         25    1    3    3    0    0  0.37429563752E+02  0.37283846052E+02 -0.26958793151E+03  0.30185463113E+03  0.12509000000E+03 0.  0.
         25    1    4    4    0    0 -0.91173237368E+00  0.18405507925E+02 -0.53354813323E+02  0.13723643169E+03  0.12509000000E+03 0.  0.
         25    1    4    4    0    0 -0.36517831378E+02 -0.55689353977E+02 -0.67112103626E+02  0.15680050608E+03  0.12509000000E+03 0.  0.
<mgrwt>
<rscale>  2 0.45049304E+03</rscale>
<asrwt>0</asrwt>
<pdfrwt beam="1">  1       21 0.15135053E-01 0.45049304E+03</pdfrwt>
<pdfrwt beam="2">  1       21 0.72496060E-01 0.45049304E+03</pdfrwt>
<totfact> 0.61078225E+04</totfact>
</mgrwt>
</event>
<event>
 7    0  0.4685107E-002  0.4388022E+03  0.7546771E-02  0.1031115E+00
         21   -1    0    0  502  501  0.00000000000E+00  0.00000000000E+00  0.16983466625E+03  0.16983466625E+03  0.00000000000E+00 0. -1.
         21   -1    0    0  501  502 -0.00000000000E+00 -0.00000000000E+00 -0.28343360506E+03  0.28343360506E+03  0.00000000000E+00 0. -1.
      99926    2    1    2    0    0  0.00000000000E+00  0.00000000000E+00 -0.11359893881E+03  0.45326827130E+03  0.43880224119E+03 0.  0.
      99925    2    3    3    0    0 -0.30357871230E+02 -0.29783662401E+02 -0.16283073960E+03  0.31227201177E+03  0.26304237812E+03 0.  0.
         25    1    3    3    0    0  0.30357871230E+02  0.29783662401E+02  0.49231800791E+02  0.14099625953E+03  0.12509000000E+03 0.  0.
         25    1    4    4    0    0  0.24845068942E+02 -0.22668097662E+02 -0.80616961559E+02  0.15257038603E+03  0.12509000000E+03 0.  0.
         25    1    4    4    0    0 -0.55202940172E+02 -0.71155647386E+01 -0.82213778042E+02  0.15970162574E+03  0.12509000000E+03 0.  0.
<mgrwt>
<rscale>  2 0.43880224E+03</rscale>
<asrwt>0</asrwt>
<pdfrwt beam="1">  1       21 0.24975687E-01 0.43880224E+03</pdfrwt>
<pdfrwt beam="2">  1       21 0.41681412E-01 0.43880224E+03</pdfrwt>
<totfact> 0.78285791E+04</totfact>
</mgrwt>
</event>
<event>
 7    0  0.4685107E-002  0.4572987E+03  0.7546771E-02  0.1025568E+00
         21   -1    0    0  502  501  0.00000000000E+00  0.00000000000E+00  0.11085047926E+03  0.11085047926E+03  0.00000000000E+00 0. -1.
         21   -1    0    0  501  502 -0.00000000000E+00 -0.00000000000E+00 -0.47163094858E+03  0.47163094858E+03  0.00000000000E+00 0. -1.
      99926    2    1    2    0    0  0.00000000000E+00  0.00000000000E+00 -0.36078046932E+03  0.58248142783E+03  0.45729866250E+03 0.  0.
      99925    2    3    3    0    0  0.44677829339E+02 -0.78395935766E+02 -0.13510354858E+03  0.30913254484E+03  0.26299796627E+03 0.  0.
         25    1    4    4    0    0  0.48612544459E+02 -0.34470576742E+02 -0.10304570042E+03  0.17267693712E+03  0.12509000000E+03 0.  0.
         25    1    4    4    0    0 -0.39347151195E+01 -0.43925359024E+02 -0.32057848162E+02  0.13645560772E+03  0.12509000000E+03 0.  0.
         25    1    3    3    0    0 -0.44677829339E+02  0.78395935766E+02 -0.22567692074E+03  0.27334888299E+03  0.12509000000E+03 0.  0.
<mgrwt>
<rscale>  2 0.45729866E+03</rscale>
<asrwt>0</asrwt>
<pdfrwt beam="1">  1       21 0.16301541E-01 0.45729866E+03</pdfrwt>
<pdfrwt beam="2">  1       21 0.69357494E-01 0.45729866E+03</pdfrwt>
<totfact> 0.58695864E+04</totfact>
</mgrwt>
</event>
<event>
 7    0  0.4685107E-002  0.4506438E+03  0.7546771E-02  0.1027530E+00
         21   -1    0    0  502  501  0.00000000000E+00  0.00000000000E+00  0.86087330439E+03  0.86087330439E+03  0.00000000000E+00 0. -1.
         21   -1    0    0  501  502 -0.00000000000E+00 -0.00000000000E+00 -0.58974949479E+02  0.58974949479E+02  0.00000000000E+00 0. -1.
      99926    2    1    2    0    0 -0.71054273576E-14  0.00000000000E+00  0.80189835491E+03  0.91984825387E+03  0.45064380450E+03 0.  0.
      99925    2    3    3    0    0 -0.48627173477E+02  0.56023804209E+02  0.67034807926E+03  0.72374559769E+03  0.26256022959E+03 0.  0.
         25    1    4    4    0    0  0.96431161068E+01  0.36009946144E+02  0.37668358059E+03  0.39865741420E+03  0.12509000000E+03 0.  0.
         25    1    4    4    0    0 -0.58270289584E+02  0.20013858065E+02  0.29366449868E+03  0.32508818349E+03  0.12509000000E+03 0.  0.
         25    1    3    3    0    0  0.48627173477E+02 -0.56023804209E+02  0.13155027565E+03  0.19610265618E+03  0.12509000000E+03 0.  0.
<mgrwt>
<rscale>  2 0.45064380E+03</rscale>
<asrwt>0</asrwt>
<pdfrwt beam="1">  1       21 0.12659901E+00 0.45064380E+03</pdfrwt>
<pdfrwt beam="2">  1       21 0.86727872E-02 0.45064380E+03</pdfrwt>
<totfact> 0.43862222E+04</totfact>
</mgrwt>
</event>
<event>
 7    0  0.4685107E-002  0.4413539E+03  0.7546771E-02  0.1030332E+00
         21   -1    0    0  502  501  0.00000000000E+00  0.00000000000E+00  0.12799591021E+03  0.12799591021E+03  0.00000000000E+00 0.  1.
         21   -1    0    0  501  502 -0.00000000000E+00 -0.00000000000E+00 -0.38046777263E+03  0.38046777263E+03  0.00000000000E+00 0.  1.
      99926    2    1    2    0    0  0.00000000000E+00  0.71054273576E-14 -0.25247186242E+03  0.50846368284E+03  0.44135391178E+03 0.  0.
      99925    2    3    3    0    0 -0.45128286771E+02  0.62501047522E+02 -0.23400286156E+03  0.36037061986E+03  0.26299562968E+03 0.  0.
         25    1    4    4    0    0 -0.41845969376E+02  0.66297754007E+02 -0.14362015460E+03  0.20596294387E+03  0.12509000000E+03 0.  0.
         25    1    3    3    0    0  0.45128286771E+02 -0.62501047522E+02 -0.18469000858E+02  0.14809306297E+03  0.12509000000E+03 0.  0.
         25    1    4    4    0    0 -0.32823173951E+01 -0.37967064848E+01 -0.90382706969E+02  0.15440767600E+03  0.12509000000E+03 0.  0.
<mgrwt>
<rscale>  2 0.44135391E+03</rscale>
<asrwt>0</asrwt>
<pdfrwt beam="1">  1       21 0.18822928E-01 0.44135391E+03</pdfrwt>
<pdfrwt beam="2">  1       21 0.55951143E-01 0.44135391E+03</pdfrwt>
<totfact> 0.72185077E+04</totfact>
</mgrwt>
</event>
<event>
 7    0  0.4685107E-002  0.4574880E+03  0.7546771E-02  0.1025512E+00
         21   -1    0    0  502  501  0.00000000000E+00  0.00000000000E+00  0.18626093485E+03  0.18626093485E+03  0.00000000000E+00 0.  1.
         21   -1    0    0  501  502 -0.00000000000E+00 -0.00000000000E+00 -0.28091674463E+03  0.28091674463E+03  0.00000000000E+00 0.  1.
      99926    2    1    2    0    0  0.35527136788E-14 -0.35527136788E-14 -0.94655809780E+02  0.46717767949E+03  0.45748799097E+03 0.  0.
      99925    2    3    3    0    0 -0.27120112739E+02  0.30736633969E+02  0.50740091075E+02  0.27104579205E+03  0.26307988020E+03 0.  0.
         25    1    3    3    0    0  0.27120112739E+02 -0.30736633969E+02 -0.14539590085E+03  0.19613188743E+03  0.12509000000E+03 0.  0.
         25    1    4    4    0    0 -0.16131934613E+02 -0.93669520111E+01 -0.80092030981E+01  0.12672661338E+03  0.12509000000E+03 0.  0.
         25    1    4    4    0    0 -0.10988178126E+02  0.40103585980E+02  0.58749294173E+02  0.14431917867E+03  0.12509000000E+03 0.  0.
<mgrwt>
<rscale>  2 0.45748799E+03</rscale>
<asrwt>0</asrwt>
<pdfrwt beam="1">  1       21 0.27391314E-01 0.45748799E+03</pdfrwt>
<pdfrwt beam="2">  1       21 0.41311286E-01 0.45748799E+03</pdfrwt>
<totfact> 0.66327417E+04</totfact>
</mgrwt>
</event>
<event>
 7    0  0.4685107E-002  0.4592143E+03  0.7546771E-02  0.1025009E+00
         21   -1    0    0  502  501  0.00000000000E+00  0.00000000000E+00  0.21519067007E+04  0.21519067007E+04  0.00000000000E+00 0.  1.
         21   -1    0    0  501  502 -0.00000000000E+00 -0.00000000000E+00 -0.24498945801E+02  0.24498945801E+02  0.00000000000E+00 0.  1.
      99926    2    1    2    0    0 -0.35527136788E-14  0.17763568394E-14  0.21274077549E+04  0.21764056465E+04  0.45921431002E+03 0.  0.
      99925    2    3    3    0    0  0.26366464827E+01  0.15333829682E+02  0.78232952556E+03  0.82543376323E+03  0.26279142430E+03 0.  0.
         25    1    4    4    0    0 -0.33003312235E+02  0.68073228620E+01  0.45567361678E+03  0.47373147604E+03  0.12509000000E+03 0.  0.
         25    1    4    4    0    0  0.35639958718E+02  0.85265068201E+01  0.32665590878E+03  0.35170228719E+03  0.12509000000E+03 0.  0.
         25    1    3    3    0    0 -0.26366464827E+01 -0.15333829682E+02  0.13450782294E+04  0.13509718833E+04  0.12509000000E+03 0.  0.
<mgrwt>
<rscale>  2 0.45921431E+03</rscale>
<asrwt>0</asrwt>
<pdfrwt beam="1">  1       21 0.31645674E+00 0.45921431E+03</pdfrwt>
<pdfrwt beam="2">  1       21 0.36027876E-02 0.45921431E+03</pdfrwt>
<totfact> 0.10683705E+04</totfact>
</mgrwt>
</event>
<event>
 7    0  0.4685107E-002  0.4612068E+03  0.7546771E-02  0.1024432E+00
         21   -1    0    0  502  501  0.00000000000E+00  0.00000000000E+00  0.79552025191E+02  0.79552025191E+02  0.00000000000E+00 0. -1.
         21   -1    0    0  501  502 -0.00000000000E+00 -0.00000000000E+00 -0.66846739267E+03  0.66846739267E+03  0.00000000000E+00 0. -1.
      99926    2    1    2    0    0 -0.35527136788E-14  0.14210854715E-13 -0.58891536748E+03  0.74801941786E+03  0.46120682936E+03 0.  0.
      99925    2    3    3    0    0 -0.30487724580E+02  0.68277501158E+02 -0.21872013752E+03  0.35017103606E+03  0.26303980198E+03 0.  0.
         25    1    4    4    0    0 -0.22845183537E+02 -0.63409079407E+01 -0.93923540538E+02  0.15821267045E+03  0.12509000000E+03 0.  0.
         25    1    3    3    0    0  0.30487724580E+02 -0.68277501158E+02 -0.37019522996E+03  0.39784838180E+03  0.12509000000E+03 0.  0.
         25    1    4    4    0    0 -0.76425410430E+01  0.74618409098E+02 -0.12479659698E+03  0.19195836561E+03  0.12509000000E+03 0.  0.
<mgrwt>
<rscale>  2 0.46120683E+03</rscale>
<asrwt>0</asrwt>
<pdfrwt beam="1">  1       21 0.11698827E-01 0.46120683E+03</pdfrwt>
<pdfrwt beam="2">  1       21 0.98304027E-01 0.46120683E+03</pdfrwt>
<totfact> 0.47987830E+04</totfact>
</mgrwt>
</event>
<event>
 7    0  0.4685107E-002  0.4117376E+03  0.7546771E-02  0.1039789E+00
         21   -1    0    0  502  501  0.00000000000E+00  0.00000000000E+00  0.16998769962E+03  0.16998769962E+03  0.00000000000E+00 0. -1.
         21   -1    0    0  501  502 -0.00000000000E+00 -0.00000000000E+00 -0.24932374505E+03  0.24932374505E+03  0.00000000000E+00 0. -1.
      99926    2    1    2    0    0  0.00000000000E+00  0.00000000000E+00 -0.79336045429E+02  0.41931144467E+03  0.41173763434E+03 0.  0.
      99925    2    3    3    0    0  0.29152503258E+02 -0.22417770034E+02  0.22567944522E+01  0.26550206759E+03  0.26293312822E+03 0.  0.
         25    1    4    4    0    0  0.20980387140E+02  0.43208609163E+01  0.37923106503E+02  0.13245571558E+03  0.12509000000E+03 0.  0.
         25    1    4    4    0    0  0.81721161178E+01 -0.26738630950E+02 -0.35666312051E+02  0.13304635201E+03  0.12509000000E+03 0.  0.
         25    1    3    3    0    0 -0.29152503258E+02  0.22417770034E+02 -0.81592839881E+02  0.15380937709E+03  0.12509000000E+03 0.  0.
<mgrwt>
<rscale>  2 0.41173763E+03</rscale>
<asrwt>0</asrwt>
<pdfrwt beam="1">  1       21 0.24998192E-01 0.41173763E+03</pdfrwt>
<pdfrwt beam="2">  1       21 0.36665256E-01 0.41173763E+03</pdfrwt>
<totfact> 0.10220876E+05</totfact>
</mgrwt>
</event>
<event>
 7    0  0.4685107E-002  0.4597135E+03  0.7546771E-02  0.1024864E+00
         21   -1    0    0  502  501  0.00000000000E+00  0.00000000000E+00  0.69260435125E+02  0.69260435125E+02  0.00000000000E+00 0. -1.
         21   -1    0    0  501  502 -0.00000000000E+00 -0.00000000000E+00 -0.76283266681E+03  0.76283266681E+03  0.00000000000E+00 0. -1.
      99926    2    1    2    0    0  0.00000000000E+00  0.35527136788E-14 -0.69357223168E+03  0.83209310193E+03  0.45971348656E+03 0.  0.
      99925    2    3    3    0    0 -0.95348281224E+02 -0.26597200284E+02 -0.31933222895E+03  0.42527398544E+03  0.26284250884E+03 0.  0.
         25    1    4    4    0    0 -0.76792929146E+02  0.13353603243E+02 -0.18462143635E+03  0.23623728653E+03  0.12509000000E+03 0.  0.
         25    1    3    3    0    0  0.95348281224E+02  0.26597200284E+02 -0.37424000274E+03  0.40681911649E+03  0.12509000000E+03 0.  0.
         25    1    4    4    0    0 -0.18555352078E+02 -0.39950803527E+02 -0.13471079259E+03  0.18903669891E+03  0.12509000000E+03 0.  0.
<mgrwt>
<rscale>  2 0.45971349E+03</rscale>
<asrwt>0</asrwt>
<pdfrwt beam="1">  1       21 0.10185358E-01 0.45971349E+03</pdfrwt>
<pdfrwt beam="2">  1       21 0.11218128E+00 0.45971349E+03</pdfrwt>
<totfact> 0.44579698E+04</totfact>
</mgrwt>
</event>
<event>
 7    0  0.4685107E-002  0.4557018E+03  0.7546771E-02  0.1026035E+00
         21   -1    0    0  502  501  0.00000000000E+00  0.00000000000E+00  0.32214017497E+03  0.32214017497E+03  0.00000000000E+00 0.  1.
         21   -1    0    0  501  502 -0.00000000000E+00 -0.00000000000E+00 -0.16115973778E+03  0.16115973778E+03  0.00000000000E+00 0.  1.
      99926    2    1    2    0    0  0.00000000000E+00 -0.35527136788E-14  0.16098043718E+03  0.48329991275E+03  0.45570177146E+03 0.  0.
      99925    2    3    3    0    0 -0.85661981542E+02 -0.98795785689E+01  0.22449921456E+02  0.27769399591E+03  0.26301021888E+03 0.  0.
         25    1    3    3    0    0  0.85661981542E+02  0.98795785689E+01  0.13853051573E+03  0.20560591684E+03  0.12509000000E+03 0.  0.
         25    1    4    4    0    0 -0.83497712751E+02 -0.17671023963E+02  0.12803578604E+02  0.15197227658E+03  0.12509000000E+03 0.  0.
         25    1    4    4    0    0 -0.21642687911E+01  0.77914453942E+01  0.96463428523E+01  0.12572171933E+03  0.12509000000E+03 0.  0.
<mgrwt>
<rscale>  2 0.45570177E+03</rscale>
<asrwt>0</asrwt>
<pdfrwt beam="1">  1       21 0.47373555E-01 0.45570177E+03</pdfrwt>
<pdfrwt beam="2">  1       21 0.23699961E-01 0.45570177E+03</pdfrwt>
<totfact> 0.66091722E+04</totfact>
</mgrwt>
</event>
<event>
 7    0  0.4685107E-002  0.4618550E+03  0.7546771E-02  0.1024245E+00
         21   -1    0    0  502  501  0.00000000000E+00  0.00000000000E+00  0.89232601084E+03  0.89232601084E+03  0.00000000000E+00 0. -1.
         21   -1    0    0  501  502 -0.00000000000E+00 -0.00000000000E+00 -0.59762354586E+02  0.59762354586E+02  0.00000000000E+00 0. -1.
      99926    2    1    2    0    0  0.00000000000E+00  0.00000000000E+00  0.83256365625E+03  0.95208836542E+03  0.46185497060E+03 0.  0.
      99925    2    3    3    0    0  0.95787695106E+02 -0.69574894977E+02  0.55464892869E+03  0.62513263074E+03  0.26294376467E+03 0.  0.
         25    1    4    4    0    0  0.88261128382E+01 -0.37417057895E+02  0.21886554750E+03  0.25500504402E+03  0.12509000000E+03 0.  0.
         25    1    3    3    0    0 -0.95787695106E+02  0.69574894977E+02  0.27791472756E+03  0.32695573468E+03  0.12509000000E+03 0.  0.
         25    1    4    4    0    0  0.86961582268E+02 -0.32157837082E+02  0.33578338118E+03  0.37012758673E+03  0.12509000000E+03 0.  0.
<mgrwt>
<rscale>  2 0.46185497E+03</rscale>
<asrwt>0</asrwt>
<pdfrwt beam="1">  1       21 0.13122441E+00 0.46185497E+03</pdfrwt>
<pdfrwt beam="2">  1       21 0.87885821E-02 0.46185497E+03</pdfrwt>
<totfact> 0.38927428E+04</totfact>
</mgrwt>
</event>
<event>
 7    0  0.4685107E-002  0.4481430E+03  0.7546771E-02  0.1028277E+00
         21   -1    0    0  502  501  0.00000000000E+00  0.00000000000E+00  0.36533734919E+03  0.36533734919E+03  0.00000000000E+00 0. -1.
         21   -1    0    0  501  502 -0.00000000000E+00 -0.00000000000E+00 -0.13742925333E+03  0.13742925333E+03  0.00000000000E+00 0. -1.
      99926    2    1    2    0    0 -0.35527136788E-14 -0.14210854715E-13  0.22790809587E+03  0.50276660252E+03  0.44814300892E+03 0.  0.
      99925    2    3    3    0    0  0.24610184717E+02 -0.10355549136E+03  0.15031891851E+03  0.32111586752E+03  0.26304034316E+03 0.  0.
         25    1    4    4    0    0  0.14066489536E+02 -0.79364065302E+02  0.44960006828E+02  0.15545234415E+03  0.12509000000E+03 0.  0.
         25    1    3    3    0    0 -0.24610184717E+02  0.10355549136E+03  0.77589177361E+02  0.18165073500E+03  0.12509000000E+03 0.  0.
         25    1    4    4    0    0  0.10543695181E+02 -0.24191426060E+02  0.10535891168E+03  0.16566352336E+03  0.12509000000E+03 0.  0.
<mgrwt>
<rscale>  2 0.44814301E+03</rscale>
<asrwt>0</asrwt>
<pdfrwt beam="1">  1       21 0.53726081E-01 0.44814301E+03</pdfrwt>
<pdfrwt beam="2">  1       21 0.20210184E-01 0.44814301E+03</pdfrwt>
<totfact> 0.68742455E+04</totfact>
</mgrwt>
</event>
<event>
 7    0  0.4685107E-002  0.4480038E+03  0.7546771E-02  0.1028319E+00
         21   -1    0    0  502  501  0.00000000000E+00  0.00000000000E+00  0.58266238913E+02  0.58266238913E+02  0.00000000000E+00 0.  1.
         21   -1    0    0  501  502 -0.00000000000E+00 -0.00000000000E+00 -0.86116492679E+03  0.86116492679E+03  0.00000000000E+00 0.  1.
      99926    2    1    2    0    0  0.00000000000E+00  0.00000000000E+00 -0.80289868788E+03  0.91943116571E+03  0.44800375609E+03 0.  0.
      99925    2    3    3    0    0  0.89188600262E+02  0.44164940846E+02 -0.58633913465E+03  0.65026449501E+03  0.26295471898E+03 0.  0.
         25    1    4    4    0    0  0.62667651447E+01  0.36660569070E+02 -0.25549266929E+03  0.28689245691E+03  0.12509000000E+03 0.  0.
         25    1    3    3    0    0 -0.89188600262E+02 -0.44164940846E+02 -0.21655955323E+03  0.26916667070E+03  0.12509000000E+03 0.  0.
         25    1    4    4    0    0  0.82921835118E+02  0.75043717761E+01 -0.33084646535E+03  0.36337203810E+03  0.12509000000E+03 0.  0.
<mgrwt>
<rscale>  2 0.44800376E+03</rscale>
<asrwt>0</asrwt>
<pdfrwt beam="1">  1       21 0.85685657E-02 0.44800376E+03</pdfrwt>
<pdfrwt beam="2">  1       21 0.12664188E+00 0.44800376E+03</pdfrwt>
<totfact> 0.44806468E+04</totfact>
</mgrwt>
</event>
<event>
 7    0  0.4685107E-002  0.4544819E+03  0.7546771E-02  0.1026394E+00
         21   -1    0    0  502  501  0.00000000000E+00  0.00000000000E+00  0.98197246462E+02  0.98197246462E+02  0.00000000000E+00 0. -1.
         21   -1    0    0  501  502 -0.00000000000E+00 -0.00000000000E+00 -0.52586443355E+03  0.52586443355E+03  0.00000000000E+00 0. -1.
      99926    2    1    2    0    0 -0.33306690739E-15 -0.71054273576E-14 -0.42766718709E+03  0.62406168002E+03  0.45448185613E+03 0.  0.
      99925    2    3    3    0    0 -0.54574284240E+00 -0.55595369723E+02 -0.13476167379E+03  0.30074714154E+03  0.26305321030E+03 0.  0.
         25    1    3    3    0    0  0.54574284240E+00  0.55595369723E+02 -0.29290551330E+03  0.32331453848E+03  0.12509000000E+03 0.  0.
         25    1    4    4    0    0 -0.18467621139E+02 -0.62640136185E+02 -0.85121289552E+02  0.16479678919E+03  0.12509000000E+03 0.  0.
         25    1    4    4    0    0  0.17921878297E+02  0.70447664625E+01 -0.49640384238E+02  0.13595035235E+03  0.12509000000E+03 0.  0.
<mgrwt>
<rscale>  2 0.45448186E+03</rscale>
<asrwt>0</asrwt>
<pdfrwt beam="1">  1       21 0.14440771E-01 0.45448186E+03</pdfrwt>
<pdfrwt beam="2">  1       21 0.77333006E-01 0.45448186E+03</pdfrwt>
<totfact> 0.57455815E+04</totfact>
</mgrwt>
</event>
<event>
 7    0  0.4685107E-002  0.4234240E+03  0.7546771E-02  0.1035958E+00
         21   -1    0    0  502  501  0.00000000000E+00  0.00000000000E+00  0.10316792159E+04  0.10316792159E+04  0.00000000000E+00 0.  1.
         21   -1    0    0  501  502 -0.00000000000E+00 -0.00000000000E+00 -0.43445654948E+02  0.43445654948E+02  0.00000000000E+00 0.  1.
      99926    2    1    2    0    0  0.00000000000E+00  0.00000000000E+00  0.98823356099E+03  0.10751248709E+04  0.42342403915E+03 0.  0.
      99925    2    3    3    0    0 -0.55004267493E+02 -0.23898624821E+02  0.50317995768E+03  0.57062400875E+03  0.26234533699E+03 0.  0.
         25    1    3    3    0    0  0.55004267493E+02  0.23898624821E+02  0.48505360332E+03  0.50450086214E+03  0.12509000000E+03 0.  0.
         25    1    4    4    0    0 -0.17095764803E+02 -0.15468234227E+02  0.16769570651E+03  0.21047776492E+03  0.12509000000E+03 0.  0.
         25    1    4    4    0    0 -0.37908502690E+02 -0.84303905947E+01  0.33548425117E+03  0.36014624383E+03  0.12509000000E+03 0.  0.
<mgrwt>
<rscale>  2 0.42342404E+03</rscale>
<asrwt>0</asrwt>
<pdfrwt beam="1">  1       21 0.15171752E+00 0.42342404E+03</pdfrwt>
<pdfrwt beam="2">  1       21 0.63890676E-02 0.42342404E+03</pdfrwt>
<totfact> 0.46902631E+04</totfact>
</mgrwt>
</event>
<event>
 7    0  0.4685107E-002  0.4538557E+03  0.7546771E-02  0.1026578E+00
         21   -1    0    0  502  501  0.00000000000E+00  0.00000000000E+00  0.32469916845E+03  0.32469916845E+03  0.00000000000E+00 0. -1.
         21   -1    0    0  501  502 -0.00000000000E+00 -0.00000000000E+00 -0.15859679114E+03  0.15859679114E+03  0.00000000000E+00 0. -1.
      99926    2    1    2    0    0  0.00000000000E+00  0.71054273576E-14  0.16610237731E+03  0.48329595959E+03  0.45385568721E+03 0.  0.
      99925    2    3    3    0    0  0.10052693369E+03 -0.48037039728E+02  0.11735621311E+03  0.30883416376E+03  0.26304531618E+03 0.  0.
         25    1    3    3    0    0 -0.10052693369E+03  0.48037039728E+02  0.48746164201E+02  0.17446179584E+03  0.12509000000E+03 0.  0.
         25    1    4    4    0    0  0.32065546409E+02  0.14516692545E+02  0.54200042039E+02  0.14079803367E+03  0.12509000000E+03 0.  0.
         25    1    4    4    0    0  0.68461387276E+02 -0.62553732272E+02  0.63156171073E+02  0.16803613008E+03  0.12509000000E+03 0.  0.
<mgrwt>
<rscale>  2 0.45385569E+03</rscale>
<asrwt>0</asrwt>
<pdfrwt beam="1">  1       21 0.47749878E-01 0.45385569E+03</pdfrwt>
<pdfrwt beam="2">  1       21 0.23323057E-01 0.45385569E+03</pdfrwt>
<totfact> 0.67068120E+04</totfact>
</mgrwt>
</event>
<event>
 7    0  0.4685107E-002  0.4616635E+03  0.7546771E-02  0.1024300E+00
         21   -1    0    0  502  501  0.00000000000E+00  0.00000000000E+00  0.25557001191E+03  0.25557001191E+03  0.00000000000E+00 0.  1.
         21   -1    0    0  501  502 -0.00000000000E+00 -0.00000000000E+00 -0.20848802355E+03  0.20848802355E+03  0.00000000000E+00 0.  1.
      99926    2    1    2    0    0  0.00000000000E+00  0.00000000000E+00  0.47081988354E+02  0.46405803546E+03  0.46166345605E+03 0.  0.
      99925    2    3    3    0    0  0.70676937515E+02 -0.56692556460E+02 -0.48627968807E+02  0.28235173548E+03  0.26296111447E+03 0.  0.
         25    1    4    4    0    0  0.17187607455E+02 -0.42486651260E+01 -0.51722197752E+02  0.13651431736E+03  0.12509000000E+03 0.  0.
         25    1    3    3    0    0 -0.70676937515E+02  0.56692556460E+02  0.95709957161E+02  0.18170629998E+03  0.12509000000E+03 0.  0.
         25    1    4    4    0    0  0.53489330060E+02 -0.52443891334E+02  0.30942289443E+01  0.14583741811E+03  0.12509000000E+03 0.  0.
<mgrwt>
<rscale>  2 0.46166346E+03</rscale>
<asrwt>0</asrwt>
<pdfrwt beam="1">  1       21 0.37583825E-01 0.46166346E+03</pdfrwt>
<pdfrwt beam="2">  1       21 0.30660003E-01 0.46166346E+03</pdfrwt>
<totfact> 0.64394974E+04</totfact>
</mgrwt>
</event>
<event>
 7    0  0.4685107E-002  0.4573415E+03  0.7546771E-02  0.1025555E+00
         21   -1    0    0  502  501  0.00000000000E+00  0.00000000000E+00  0.85605307209E+03  0.85605307209E+03  0.00000000000E+00 0. -1.
         21   -1    0    0  501  502 -0.00000000000E+00 -0.00000000000E+00 -0.61083019499E+02  0.61083019499E+02  0.00000000000E+00 0. -1.
      99926    2    1    2    0    0  0.00000000000E+00  0.00000000000E+00  0.79497005259E+03  0.91713609159E+03  0.45734147634E+03 0.  0.
      99925    2    3    3    0    0 -0.52250849094E+02  0.66121978139E+02  0.65722181616E+03  0.71287069568E+03  0.26294837118E+03 0.  0.
         25    1    4    4    0    0 -0.45548972954E+02  0.27088131583E+02  0.42450070422E+03  0.44570935798E+03  0.12509000000E+03 0.  0.
         25    1    3    3    0    0  0.52250849094E+02 -0.66121978139E+02  0.13774823643E+03  0.20426539591E+03  0.12509000000E+03 0.  0.
         25    1    4    4    0    0 -0.67018761396E+01  0.39033846555E+02  0.23272111194E+03  0.26716133770E+03  0.12509000000E+03 0.  0.
<mgrwt>
<rscale>  2 0.45734148E+03</rscale>
<asrwt>0</asrwt>
<pdfrwt beam="1">  1       21 0.12589015E+00 0.45734148E+03</pdfrwt>
<pdfrwt beam="2">  1       21 0.89827975E-02 0.45734148E+03</pdfrwt>
<totfact> 0.41731066E+04</totfact>
</mgrwt>
</event>
<event>
 7    0  0.4685107E-002  0.4536112E+03  0.7546771E-02  0.1026651E+00
         21   -1    0    0  502  501  0.00000000000E+00  0.00000000000E+00  0.68535838941E+03  0.68535838941E+03  0.00000000000E+00 0.  1.
         21   -1    0    0  501  502 -0.00000000000E+00 -0.00000000000E+00 -0.75056747711E+02  0.75056747711E+02  0.00000000000E+00 0.  1.
      99926    2    1    2    0    0  0.00000000000E+00 -0.14210854715E-13  0.61030164169E+03  0.76041513712E+03  0.45361116267E+03 0.  0.
      99925    2    3    3    0    0 -0.82946398444E+02  0.71206352236E+02  0.34346268799E+03  0.44608889747E+03  0.26282738973E+03 0.  0.
         25    1    4    4    0    0 -0.50050431301E+02 -0.44282365339E+01  0.16021863052E+03  0.20938522541E+03  0.12509000000E+03 0.  0.
         25    1    3    3    0    0  0.82946398444E+02 -0.71206352236E+02  0.26683895371E+03  0.31432623964E+03  0.12509000000E+03 0.  0.
         25    1    4    4    0    0 -0.32895967142E+02  0.75634588770E+02  0.18324405747E+03  0.23670367207E+03  0.12509000000E+03 0.  0.
<mgrwt>
<rscale>  2 0.45361116E+03</rscale>
<asrwt>0</asrwt>
<pdfrwt beam="1">  1       21 0.10078799E+00 0.45361116E+03</pdfrwt>
<pdfrwt beam="2">  1       21 0.11037757E-01 0.45361116E+03</pdfrwt>
<totfact> 0.50284725E+04</totfact>
</mgrwt>
</event>
<event>
 7    0  0.4685107E-002  0.4572960E+03  0.7546771E-02  0.1025568E+00
         21   -1    0    0  502  501  0.00000000000E+00  0.00000000000E+00  0.12229317216E+03  0.12229317216E+03  0.00000000000E+00 0. -1.
         21   -1    0    0  501  502 -0.00000000000E+00 -0.00000000000E+00 -0.42749659244E+03  0.42749659244E+03  0.00000000000E+00 0. -1.
      99926    2    1    2    0    0 -0.14210854715E-13  0.00000000000E+00 -0.30520342028E+03  0.54978976460E+03  0.45729602831E+03 0.  0.
      99925    2    3    3    0    0 -0.10403935400E+03 -0.30538312424E+02 -0.23897513161E+03  0.37149094232E+03  0.26294415945E+03 0.  0.
         25    1    4    4    0    0 -0.48520248349E+02 -0.30838653356E+02 -0.16838779525E+03  0.21750217178E+03  0.12509000000E+03 0.  0.
         25    1    4    4    0    0 -0.55519105649E+02  0.30034093169E+00 -0.70587336361E+02  0.15398877054E+03  0.12509000000E+03 0.  0.
         25    1    3    3    0    0  0.10403935400E+03  0.30538312424E+02 -0.66228288673E+02  0.17829882228E+03  0.12509000000E+03 0.  0.
<mgrwt>
<rscale>  2 0.45729603E+03</rscale>
<asrwt>0</asrwt>
<pdfrwt beam="1">  1       21 0.17984290E-01 0.45729603E+03</pdfrwt>
<pdfrwt beam="2">  1       21 0.62867146E-01 0.45729603E+03</pdfrwt>
<totfact> 0.60768922E+04</totfact>
</mgrwt>
</event>
<event>
 7    0  0.4685107E-002  0.4558630E+03  0.7546771E-02  0.1025988E+00
         21   -1    0    0  502  501  0.00000000000E+00  0.00000000000E+00  0.28583340682E+03  0.28583340682E+03  0.00000000000E+00 0. -1.
         21   -1    0    0  501  502 -0.00000000000E+00 -0.00000000000E+00 -0.18175893672E+03  0.18175893672E+03  0.00000000000E+00 0. -1.
      99926    2    1    2    0    0  0.00000000000E+00  0.14210854715E-13  0.10407447010E+03  0.46759234355E+03  0.45586303252E+03 0.  0.
      99925    2    3    3    0    0 -0.78170588309E+02  0.67606101385E+02  0.16219487463E+02  0.28307342339E+03  0.26303282197E+03 0.  0.
         25    1    4    4    0    0 -0.48214026254E+02  0.45861061335E+00  0.29823809576E+02  0.13733816064E+03  0.12509000000E+03 0.  0.
         25    1    3    3    0    0  0.78170588309E+02 -0.67606101385E+02  0.87854982641E+02  0.18451892016E+03  0.12509000000E+03 0.  0.
         25    1    4    4    0    0 -0.29956562055E+02  0.67147490772E+02 -0.13604322113E+02  0.14573526274E+03  0.12509000000E+03 0.  0.
<mgrwt>
<rscale>  2 0.45586303E+03</rscale>
<asrwt>0</asrwt>
<pdfrwt beam="1">  1       21 0.42034325E-01 0.45586303E+03</pdfrwt>
<pdfrwt beam="2">  1       21 0.26729255E-01 0.45586303E+03</pdfrwt>
<totfact> 0.67154587E+04</totfact>
</mgrwt>
</event>
<event>
 7    0  0.4685107E-002  0.4587117E+03  0.7546771E-02  0.1025156E+00
         21   -1    0    0  502  501  0.00000000000E+00  0.00000000000E+00  0.47868498276E+02  0.47868498276E+02  0.00000000000E+00 0. -1.
         21   -1    0    0  501  502 -0.00000000000E+00 -0.00000000000E+00 -0.10989295454E+04  0.10989295454E+04  0.00000000000E+00 0. -1.
      99926    2    1    2    0    0  0.00000000000E+00  0.00000000000E+00 -0.10510610471E+04  0.11467980436E+04  0.45871170488E+03 0.  0.
      99925    2    3    3    0    0  0.54484291537E+02  0.10257757012E+03 -0.68470512115E+03  0.74262621325E+03  0.26302451170E+03 0.  0.
         25    1    4    4    0    0  0.34539503769E+02  0.31243037570E+02 -0.23817488378E+03  0.27302726618E+03  0.12509000000E+03 0.  0.
         25    1    3    3    0    0 -0.54484291537E+02 -0.10257757012E+03 -0.36635592594E+03  0.40417183040E+03  0.12509000000E+03 0.  0.
         25    1    4    4    0    0  0.19944787768E+02  0.71334532547E+02 -0.44653023737E+03  0.46959894706E+03  0.12509000000E+03 0.  0.
<mgrwt>
<rscale>  2 0.45871170E+03</rscale>
<asrwt>0</asrwt>
<pdfrwt beam="1">  1       21 0.70394851E-02 0.45871170E+03</pdfrwt>
<pdfrwt beam="2">  1       21 0.16160728E+00 0.45871170E+03</pdfrwt>
<totfact> 0.32926564E+04</totfact>
</mgrwt>
</event>
<event>
 7    0  0.4685107E-002  0.4576132E+03  0.7546771E-02  0.1025476E+00
         21   -1    0    0  502  501  0.00000000000E+00  0.00000000000E+00  0.39379139602E+02  0.39379139602E+02  0.00000000000E+00 0.  1.
         21   -1    0    0  501  502 -0.00000000000E+00 -0.00000000000E+00 -0.13294466624E+04  0.13294466624E+04  0.00000000000E+00 0.  1.
      99926    2    1    2    0    0  0.00000000000E+00  0.35527136788E-14 -0.12900675228E+04  0.13688258020E+04  0.45761322408E+03 0.  0.
      99925    2    3    3    0    0  0.52736945295E+02  0.18054554506E+02 -0.11130973513E+04  0.11450556029E+04  0.26279168128E+03 0.  0.
         25    1    4    4    0    0  0.51036193235E+02  0.26371058159E+02 -0.69771946837E+03  0.71116811681E+03  0.12509000000E+03 0.  0.
         25    1    4    4    0    0  0.17007520606E+01 -0.83165036539E+01 -0.41537788298E+03  0.43388748606E+03  0.12509000000E+03 0.  0.
         25    1    3    3    0    0 -0.52736945295E+02 -0.18054554506E+02 -0.17697017147E+03  0.22377019915E+03  0.12509000000E+03 0.  0.
<mgrwt>
<rscale>  2 0.45761322E+03</rscale>
<asrwt>0</asrwt>
<pdfrwt beam="1">  1       21 0.57910489E-02 0.45761322E+03</pdfrwt>
<pdfrwt beam="2">  1       21 0.19550690E+00 0.45761322E+03</pdfrwt>
<totfact> 0.26629719E+04</totfact>
</mgrwt>
</event>
<event>
 7    0  0.4685107E-002  0.4762308E+03  0.7546771E-02  0.1020176E+00
         21   -1    0    0  502  501  0.00000000000E+00  0.00000000000E+00  0.16388905881E+03  0.16388905881E+03  0.00000000000E+00 0. -1.
         21   -1    0    0  501  502 -0.00000000000E+00 -0.00000000000E+00 -0.34595934641E+03  0.34595934641E+03  0.00000000000E+00 0. -1.
      99926    2    1    2    0    0  0.00000000000E+00  0.00000000000E+00 -0.18207028761E+03  0.50984840522E+03  0.47623083339E+03 0.  0.
      99925    2    3    3    0    0 -0.20692315518E+02 -0.22053156556E+02  0.23825827365E+02  0.26704142036E+03  0.26425165374E+03 0.  0.
         25    1    4    4    0    0  0.32776628824E+01  0.27198123319E+02  0.25036942679E+02  0.13047926113E+03  0.12509000000E+03 0.  0.
         25    1    4    4    0    0 -0.23969978401E+02 -0.49251279875E+02 -0.12111153138E+01  0.13656215923E+03  0.12509000000E+03 0.  0.
         25    1    3    3    0    0  0.20692315518E+02  0.22053156556E+02 -0.20589611497E+03  0.24280698486E+03  0.12509000000E+03 0.  0.
<mgrwt>
<rscale>  2 0.47623083E+03</rscale>
<asrwt>0</asrwt>
<pdfrwt beam="1">  1       21 0.24101332E-01 0.47623083E+03</pdfrwt>
<pdfrwt beam="2">  1       21 0.50876374E-01 0.47623083E+03</pdfrwt>
<totfact> 0.54757363E+04</totfact>
</mgrwt>
</event>
<event>
 7    0  0.4685107E-002  0.4509155E+03  0.7546771E-02  0.1027449E+00
         21   -1    0    0  502  501  0.00000000000E+00  0.00000000000E+00  0.82515730955E+02  0.82515730955E+02  0.00000000000E+00 0. -1.
         21   -1    0    0  501  502 -0.00000000000E+00 -0.00000000000E+00 -0.61601835647E+03  0.61601835647E+03  0.00000000000E+00 0. -1.
      99926    2    1    2    0    0 -0.44408920985E-15  0.28421709430E-13 -0.53350262552E+03  0.69853408743E+03  0.45091553518E+03 0.  0.
      99925    2    3    3    0    0  0.37153196726E+01  0.10902151497E+03 -0.32624252770E+03  0.43300866383E+03  0.26298825401E+03 0.  0.
         25    1    3    3    0    0 -0.37153196726E+01 -0.10902151497E+03 -0.20726009782E+03  0.26552542360E+03  0.12509000000E+03 0.  0.
         25    1    4    4    0    0 -0.19351841335E+02  0.91327988995E+02 -0.17078678347E+03  0.23136751900E+03  0.12509000000E+03 0.  0.
         25    1    4    4    0    0  0.23067161008E+02  0.17693525978E+02 -0.15545574422E+03  0.20164114484E+03  0.12509000000E+03 0.  0.
<mgrwt>
<rscale>  2 0.45091554E+03</rscale>
<asrwt>0</asrwt>
<pdfrwt beam="1">  1       21 0.12134666E-01 0.45091554E+03</pdfrwt>
<pdfrwt beam="2">  1       21 0.90590938E-01 0.45091554E+03</pdfrwt>
<totfact> 0.54720504E+04</totfact>
</mgrwt>
</event>
<event>
 7    0  0.4685107E-002  0.4548198E+03  0.7546771E-02  0.1026294E+00
         21   -1    0    0  502  501  0.00000000000E+00  0.00000000000E+00  0.20653271993E+03  0.20653271993E+03  0.00000000000E+00 0.  1.
         21   -1    0    0  501  502 -0.00000000000E+00 -0.00000000000E+00 -0.25039748465E+03  0.25039748465E+03  0.00000000000E+00 0.  1.
      99926    2    1    2    0    0  0.00000000000E+00 -0.14210854715E-13 -0.43864764720E+02  0.45693020458E+03  0.45481984815E+03 0.  0.
      99925    2    3    3    0    0 -0.85082419802E+02  0.65688800520E+02 -0.62845282969E+02  0.29091272103E+03  0.26291946484E+03 0.  0.
         25    1    4    4    0    0 -0.70332738517E+02  0.37950713810E+01 -0.27140713651E+02  0.14610004487E+03  0.12509000000E+03 0.  0.
         25    1    4    4    0    0 -0.14749681285E+02  0.61893729139E+02 -0.35704569319E+02  0.14481267615E+03  0.12509000000E+03 0.  0.
         25    1    3    3    0    0  0.85082419802E+02 -0.65688800520E+02  0.18980518249E+02  0.16601748356E+03  0.12509000000E+03 0.  0.
<mgrwt>
<rscale>  2 0.45481985E+03</rscale>
<asrwt>0</asrwt>
<pdfrwt beam="1">  1       21 0.30372459E-01 0.45481985E+03</pdfrwt>
<pdfrwt beam="2">  1       21 0.36823160E-01 0.45481985E+03</pdfrwt>
<totfact> 0.68503031E+04</totfact>
</mgrwt>
</event>
<event>
 7    0  0.4685107E-002  0.4515114E+03  0.7546771E-02  0.1027272E+00
         21   -1    0    0  502  501  0.00000000000E+00  0.00000000000E+00  0.74739112653E+03  0.74739112653E+03  0.00000000000E+00 0.  1.
         21   -1    0    0  501  502 -0.00000000000E+00 -0.00000000000E+00 -0.68191397731E+02  0.68191397731E+02  0.00000000000E+00 0.  1.
      99926    2    1    2    0    0  0.00000000000E+00 -0.14210854715E-13  0.67919972879E+03  0.81558252426E+03  0.45151144202E+03 0.  0.
      99925    2    3    3    0    0  0.30557630905E+02  0.77358705810E+02  0.55777542401E+03  0.62242583122E+03  0.26340530286E+03 0.  0.
         25    1    4    4    0    0  0.48432845775E+02  0.38775032457E+02  0.34211624977E+03  0.36951357234E+03  0.12509000000E+03 0.  0.
         25    1    3    3    0    0 -0.30557630905E+02 -0.77358705810E+02  0.12142430478E+03  0.19315669303E+03  0.12509000000E+03 0.  0.
         25    1    4    4    0    0 -0.17875214870E+02  0.38583673353E+02  0.21565917424E+03  0.25291225888E+03  0.12509000000E+03 0.  0.
<mgrwt>
<rscale>  2 0.45151144E+03</rscale>
<asrwt>0</asrwt>
<pdfrwt beam="1">  1       21 0.10991046E+00 0.45151144E+03</pdfrwt>
<pdfrwt beam="2">  1       21 0.10028147E-01 0.45151144E+03</pdfrwt>
<totfact> 0.48329806E+04</totfact>
</mgrwt>
</event>
<event>
 7    0  0.4685107E-002  0.4269834E+03  0.7546771E-02  0.1034817E+00
         21   -1    0    0  502  501  0.00000000000E+00  0.00000000000E+00  0.23851793740E+03  0.23851793740E+03  0.00000000000E+00 0.  1.
         21   -1    0    0  501  502 -0.00000000000E+00 -0.00000000000E+00 -0.19109132425E+03  0.19109132425E+03  0.00000000000E+00 0.  1.
      99926    2    1    2    0    0 -0.71054273576E-14 -0.71054273576E-14  0.47426613153E+02  0.42960926166E+03  0.42698341193E+03 0.  0.
      99925    2    3    3    0    0  0.62423020123E+02  0.45508900835E+02 -0.28357191391E+01  0.27423389796E+03  0.26311308594E+03 0.  0.
         25    1    4    4    0    0  0.63627435131E+02  0.26433634295E+02 -0.27175244785E+02  0.14537258872E+03  0.12509000000E+03 0.  0.
         25    1    4    4    0    0 -0.12044150075E+01  0.19075266541E+02  0.24339525646E+02  0.12886130923E+03  0.12509000000E+03 0.  0.
         25    1    3    3    0    0 -0.62423020123E+02 -0.45508900835E+02  0.50262332292E+02  0.15537536370E+03  0.12509000000E+03 0.  0.
<mgrwt>
<rscale>  2 0.42698341E+03</rscale>
<asrwt>0</asrwt>
<pdfrwt beam="1">  1       21 0.35076167E-01 0.42698341E+03</pdfrwt>
<pdfrwt beam="2">  1       21 0.28101665E-01 0.42698341E+03</pdfrwt>
<totfact> 0.88671214E+04</totfact>
</mgrwt>
</event>
<event>
 7    0  0.4685107E-002  0.4586671E+03  0.7546771E-02  0.1025169E+00
         21   -1    0    0  502  501  0.00000000000E+00  0.00000000000E+00  0.48301290629E+03  0.48301290629E+03  0.00000000000E+00 0. -1.
         21   -1    0    0  501  502 -0.00000000000E+00 -0.00000000000E+00 -0.10888709981E+03  0.10888709981E+03  0.00000000000E+00 0. -1.
      99926    2    1    2    0    0  0.00000000000E+00  0.71054273576E-14  0.37412580649E+03  0.59190000610E+03  0.45866708858E+03 0.  0.
      99925    2    3    3    0    0 -0.76166158156E+02  0.32053014737E+02  0.34073244633E+03  0.43830539681E+03  0.26302916470E+03 0.  0.
         25    1    4    4    0    0 -0.27579404885E+02  0.51626511700E+02  0.14565574670E+03  0.20072126178E+03  0.12509000000E+03 0.  0.
         25    1    4    4    0    0 -0.48586753271E+02 -0.19573496963E+02  0.19507669964E+03  0.23758413503E+03  0.12509000000E+03 0.  0.
         25    1    3    3    0    0  0.76166158156E+02 -0.32053014737E+02  0.33393360151E+02  0.15359460929E+03  0.12509000000E+03 0.  0.
<mgrwt>
<rscale>  2 0.45866709E+03</rscale>
<asrwt>0</asrwt>
<pdfrwt beam="1">  1       21 0.71031309E-01 0.45866709E+03</pdfrwt>
<pdfrwt beam="2">  1       21 0.16012809E-01 0.45866709E+03</pdfrwt>
<totfact> 0.57495114E+04</totfact>
</mgrwt>
</event>
<event>
 7    0  0.4685107E-002  0.4553085E+03  0.7546771E-02  0.1026151E+00
         21   -1    0    0  502  501  0.00000000000E+00  0.00000000000E+00  0.20679936343E+03  0.20679936343E+03  0.00000000000E+00 0. -1.
         21   -1    0    0  501  502 -0.00000000000E+00 -0.00000000000E+00 -0.25061226792E+03  0.25061226792E+03  0.00000000000E+00 0. -1.
      99926    2    1    2    0    0  0.00000000000E+00  0.00000000000E+00 -0.43812904490E+02  0.45741163134E+03  0.45530849969E+03 0.  0.
      99925    2    3    3    0    0 -0.54510289616E+02 -0.90717183428E+02  0.14355114483E+02  0.28353809806E+03  0.26265339270E+03 0.  0.
         25    1    4    4    0    0 -0.26228453632E+02 -0.60568720036E+02  0.44726958267E+02  0.14833917393E+03  0.12509000000E+03 0.  0.
         25    1    4    4    0    0 -0.28281835983E+02 -0.30148463392E+02 -0.30371843783E+02  0.13519892413E+03  0.12509000000E+03 0.  0.
         25    1    3    3    0    0  0.54510289616E+02  0.90717183428E+02 -0.58168018973E+02  0.17387353328E+03  0.12509000000E+03 0.  0.
<mgrwt>
<rscale>  2 0.45530850E+03</rscale>
<asrwt>0</asrwt>
<pdfrwt beam="1">  1       21 0.30411671E-01 0.45530850E+03</pdfrwt>
<pdfrwt beam="2">  1       21 0.36854745E-01 0.45530850E+03</pdfrwt>
<totfact> 0.68201456E+04</totfact>
</mgrwt>
</event>
<event>
 7    0  0.4685107E-002  0.4363292E+03  0.7546771E-02  0.1031879E+00
         21   -1    0    0  502  501  0.00000000000E+00  0.00000000000E+00  0.20708619505E+02  0.20708619505E+02  0.00000000000E+00 0.  1.
         21   -1    0    0  501  502 -0.00000000000E+00 -0.00000000000E+00 -0.22983569488E+04  0.22983569488E+04  0.00000000000E+00 0.  1.
      99926    2    1    2    0    0  0.00000000000E+00  0.00000000000E+00 -0.22776483293E+04  0.23190655684E+04  0.43632923139E+03 0.  0.
      99925    2    3    3    0    0 -0.39130759827E+02  0.71555474977E+02 -0.12032730012E+04  0.12343622651E+04  0.26293132870E+03 0.  0.
         25    1    4    4    0    0 -0.14143253998E+02  0.28555656762E+02 -0.41289760485E+03  0.43260535983E+03  0.12509000000E+03 0.  0.
         25    1    3    3    0    0  0.39130759827E+02 -0.71555474977E+02 -0.10743753281E+04  0.10847033033E+04  0.12509000000E+03 0.  0.
         25    1    4    4    0    0 -0.24987505829E+02  0.42999818216E+02 -0.79037539636E+03  0.80175690523E+03  0.12509000000E+03 0.  0.
<mgrwt>
<rscale>  2 0.43632923E+03</rscale>
<asrwt>0</asrwt>
<pdfrwt beam="1">  1       21 0.30453855E-02 0.43632923E+03</pdfrwt>
<pdfrwt beam="2">  1       21 0.33799364E+00 0.43632923E+03</pdfrwt>
<totfact> 0.10624910E+04</totfact>
</mgrwt>
</event>
<event>
 7    0  0.4685107E-002  0.4572818E+03  0.7546771E-02  0.1025573E+00
         21   -1    0    0  502  501  0.00000000000E+00  0.00000000000E+00  0.40229137826E+02  0.40229137826E+02  0.00000000000E+00 0.  1.
         21   -1    0    0  501  502 -0.00000000000E+00 -0.00000000000E+00 -0.12994728055E+04  0.12994728055E+04  0.00000000000E+00 0.  1.
      99926    2    1    2    0    0 -0.35527136788E-14  0.00000000000E+00 -0.12592436677E+04  0.13397019433E+04  0.45728184129E+03 0.  0.
      99925    2    3    3    0    0 -0.30740619692E+02  0.87982395757E+02 -0.58865076372E+03  0.65120485648E+03  0.26243505066E+03 0.  0.
         25    1    4    4    0    0 -0.53711114014E+02  0.39937469776E+02 -0.27803919358E+03  0.31214289441E+03  0.12509000000E+03 0.  0.
         25    1    4    4    0    0  0.22970494322E+02  0.48044925981E+02 -0.31061157014E+03  0.33906196208E+03  0.12509000000E+03 0.  0.
         25    1    3    3    0    0  0.30740619692E+02 -0.87982395757E+02 -0.67059290395E+03  0.68849708684E+03  0.12509000000E+03 0.  0.
<mgrwt>
<rscale>  2 0.45728184E+03</rscale>
<asrwt>0</asrwt>
<pdfrwt beam="1">  1       21 0.59160498E-02 0.45728184E+03</pdfrwt>
<pdfrwt beam="2">  1       21 0.19109894E+00 0.45728184E+03</pdfrwt>
<totfact> 0.27492177E+04</totfact>
</mgrwt>
</event>
<event>
 7    0  0.4685107E-002  0.4465854E+03  0.7546771E-02  0.1028745E+00
         21   -1    0    0  502  501  0.00000000000E+00  0.00000000000E+00  0.14932403954E+03  0.14932403954E+03  0.00000000000E+00 0.  1.
         21   -1    0    0  501  502 -0.00000000000E+00 -0.00000000000E+00 -0.33390230243E+03  0.33390230243E+03  0.00000000000E+00 0.  1.
      99926    2    1    2    0    0 -0.17763568394E-14  0.00000000000E+00 -0.18457826289E+03  0.48322634196E+03  0.44658544808E+03 0.  0.
      99925    2    3    3    0    0 -0.12009944761E+02 -0.66081213310E+02 -0.20456862485E+03  0.33984542204E+03  0.26293653813E+03 0.  0.
         25    1    4    4    0    0 -0.11494082541E+02 -0.54190125839E+02 -0.63185469468E+02  0.15069371362E+03  0.12509000000E+03 0.  0.
         25    1    4    4    0    0 -0.51586222001E+00 -0.11891087472E+02 -0.14138315538E+03  0.18915170843E+03  0.12509000000E+03 0.  0.
         25    1    3    3    0    0  0.12009944761E+02  0.66081213310E+02  0.19990361961E+02  0.14338091992E+03  0.12509000000E+03 0.  0.
<mgrwt>
<rscale>  2 0.44658545E+03</rscale>
<asrwt>0</asrwt>
<pdfrwt beam="1">  1       21 0.21959418E-01 0.44658545E+03</pdfrwt>
<pdfrwt beam="2">  1       21 0.49103279E-01 0.44658545E+03</pdfrwt>
<totfact> 0.71097924E+04</totfact>
</mgrwt>
</event>
<event>
 7    0  0.4685107E-002  0.4500947E+03  0.7546771E-02  0.1027694E+00
         21   -1    0    0  502  501  0.00000000000E+00  0.00000000000E+00  0.13322958435E+03  0.13322958435E+03  0.00000000000E+00 0.  1.
         21   -1    0    0  501  502 -0.00000000000E+00 -0.00000000000E+00 -0.38014304584E+03  0.38014304584E+03  0.00000000000E+00 0.  1.
      99926    2    1    2    0    0  0.00000000000E+00  0.14210854715E-13 -0.24691346149E+03  0.51337263020E+03  0.45009465668E+03 0.  0.
      99925    2    3    3    0    0  0.75498623202E+02  0.66422106486E+02 -0.20254796586E+03  0.34685613360E+03  0.26300486803E+03 0.  0.
         25    1    4    4    0    0  0.41537455837E+02 -0.49246554932E+01 -0.76434287904E+02  0.15244448477E+03  0.12509000000E+03 0.  0.
         25    1    4    4    0    0  0.33961167365E+02  0.71346761979E+02 -0.12611367796E+03  0.19441164883E+03  0.12509000000E+03 0.  0.
         25    1    3    3    0    0 -0.75498623202E+02 -0.66422106486E+02 -0.44365495630E+02  0.16651649659E+03  0.12509000000E+03 0.  0.
<mgrwt>
<rscale>  2 0.45009466E+03</rscale>
<asrwt>0</asrwt>
<pdfrwt beam="1">  1       21 0.19592586E-01 0.45009466E+03</pdfrwt>
<pdfrwt beam="2">  1       21 0.55903388E-01 0.45009466E+03</pdfrwt>
<totfact> 0.66907586E+04</totfact>
</mgrwt>
</event>
<event>
 7    0  0.4685107E-002  0.4151595E+03  0.7546771E-02  0.1038653E+00
         21   -1    0    0  502  501  0.00000000000E+00  0.00000000000E+00  0.85812221527E+02  0.85812221527E+02  0.00000000000E+00 0.  1.
         21   -1    0    0  501  502 -0.00000000000E+00 -0.00000000000E+00 -0.50213538966E+03  0.50213538966E+03  0.00000000000E+00 0.  1.
      99926    2    1    2    0    0  0.71054273576E-14  0.00000000000E+00 -0.41632316814E+03  0.58794761119E+03  0.41515950330E+03 0.  0.
      99925    2    3    3    0    0 -0.49753139472E+02 -0.42223314029E+02 -0.30729760276E+03  0.40964375498E+03  0.26290303573E+03 0.  0.
         25    1    4    4    0    0 -0.12846713341E+02  0.12574550140E+02 -0.11463269212E+03  0.17062039608E+03  0.12509000000E+03 0.  0.
         25    1    3    3    0    0  0.49753139472E+02  0.42223314029E+02 -0.10902556537E+03  0.17830385621E+03  0.12509000000E+03 0.  0.
         25    1    4    4    0    0 -0.36906426131E+02 -0.54797864169E+02 -0.19266491064E+03  0.23902335890E+03  0.12509000000E+03 0.  0.
<mgrwt>
<rscale>  2 0.41515950E+03</rscale>
<asrwt>0</asrwt>
<pdfrwt beam="1">  1       21 0.12619445E-01 0.41515950E+03</pdfrwt>
<pdfrwt beam="2">  1       21 0.73843436E-01 0.41515950E+03</pdfrwt>
<totfact> 0.82486187E+04</totfact>
</mgrwt>
</event>
<event>
 7    0  0.4685107E-002  0.4701202E+03  0.7546771E-02  0.1021886E+00
         21   -1    0    0  502  501  0.00000000000E+00  0.00000000000E+00  0.27449281293E+02  0.27449281293E+02  0.00000000000E+00 0.  1.
         21   -1    0    0  501  502 -0.00000000000E+00 -0.00000000000E+00 -0.20129218854E+04  0.20129218854E+04  0.00000000000E+00 0.  1.
      99926    2    1    2    0    0  0.35527136788E-14  0.00000000000E+00 -0.19854726041E+04  0.20403711667E+04  0.47012023591E+03 0.  0.
      99925    2    3    3    0    0  0.89971478512E+01 -0.12519814590E+03 -0.13021920993E+04  0.13344849997E+04  0.26342062662E+03 0.  0.
         25    1    3    3    0    0 -0.89971478512E+01  0.12519814590E+03 -0.68328050477E+03  0.70588616696E+03  0.12509000000E+03 0.  0.
         25    1    4    4    0    0  0.43989300299E+02 -0.61743346084E+02 -0.60066873318E+03  0.61822142833E+03  0.12509000000E+03 0.  0.
         25    1    4    4    0    0 -0.34992152448E+02 -0.63454799819E+02 -0.70152336612E+03  0.71626357137E+03  0.12509000000E+03 0.  0.
<mgrwt>
<rscale>  2 0.47012024E+03</rscale>
<asrwt>0</asrwt>
<pdfrwt beam="1">  1       21 0.40366595E-02 0.47012024E+03</pdfrwt>
<pdfrwt beam="2">  1       21 0.29601789E+00 0.47012024E+03</pdfrwt>
<totfact> 0.11635051E+04</totfact>
</mgrwt>
</event>
<event>
 7    0  0.4685107E-002  0.3940362E+03  0.7546771E-02  0.1045865E+00
         21   -1    0    0  502  501  0.00000000000E+00  0.00000000000E+00  0.10390505733E+02  0.10390505733E+02  0.00000000000E+00 0.  1.
         21   -1    0    0  501  502 -0.00000000000E+00 -0.00000000000E+00 -0.37357300932E+04  0.37357300932E+04  0.00000000000E+00 0.  1.
      99926    2    1    2    0    0  0.35527136788E-14  0.00000000000E+00 -0.37253395874E+04  0.37461205989E+04  0.39403616560E+03 0.  0.
      99925    2    3    3    0    0 -0.94489283564E+01  0.20265931120E+02 -0.27219528523E+04  0.27347193736E+04  0.26298808328E+03 0.  0.
         25    1    4    4    0    0 -0.36073712661E+02 -0.11197584880E+02 -0.12070659201E+04  0.12141179276E+04  0.12509000000E+03 0.  0.
         25    1    3    3    0    0  0.94489283564E+01 -0.20265931120E+02 -0.10033867351E+04  0.10114012253E+04  0.12509000000E+03 0.  0.
         25    1    4    4    0    0  0.26624784304E+02  0.31463516000E+02 -0.15148869322E+04  0.15206014460E+04  0.12509000000E+03 0.  0.
<mgrwt>
<rscale>  2 0.39403617E+03</rscale>
<asrwt>0</asrwt>
<pdfrwt beam="1">  1       21 0.15280148E-02 0.39403617E+03</pdfrwt>
<pdfrwt beam="2">  1       21 0.54937234E+00 0.39403617E+03</pdfrwt>
<totfact> 0.12915360E+03</totfact>
</mgrwt>
</event>
<event>
 7    0  0.4685107E-002  0.4505072E+03  0.7546771E-02  0.1027571E+00
         21   -1    0    0  502  501  0.00000000000E+00  0.00000000000E+00  0.71053395828E+03  0.71053395828E+03  0.00000000000E+00 0.  1.
         21   -1    0    0  501  502 -0.00000000000E+00 -0.00000000000E+00 -0.71409946516E+02  0.71409946516E+02  0.00000000000E+00 0.  1.
      99926    2    1    2    0    0  0.00000000000E+00  0.00000000000E+00  0.63912401177E+03  0.78194390480E+03  0.45050723394E+03 0.  0.
      99925    2    3    3    0    0  0.83450232697E+02  0.70090029238E+02  0.41162307053E+03  0.50037554738E+03  0.26280331559E+03 0.  0.
         25    1    3    3    0    0 -0.83450232697E+02 -0.70090029238E+02  0.22750094123E+03  0.28156835742E+03  0.12509000000E+03 0.  0.
         25    1    4    4    0    0  0.63102912102E+02  0.45245498668E+02  0.15926770397E+03  0.21689361976E+03  0.12509000000E+03 0.  0.
         25    1    4    4    0    0  0.20347320595E+02  0.24844530569E+02  0.25235536656E+03  0.28348192762E+03  0.12509000000E+03 0.  0.
<mgrwt>
<rscale>  2 0.45050723E+03</rscale>
<asrwt>0</asrwt>
<pdfrwt beam="1">  1       21 0.10449028E+00 0.45050723E+03</pdfrwt>
<pdfrwt beam="2">  1       21 0.10501463E-01 0.45050723E+03</pdfrwt>
<totfact> 0.50404714E+04</totfact>
</mgrwt>
</event>
<event>
 7    0  0.4685107E-002  0.4298684E+03  0.7546771E-02  0.1033902E+00
         21   -1    0    0  502  501  0.00000000000E+00  0.00000000000E+00  0.88590737891E+03  0.88590737891E+03  0.00000000000E+00 0. -1.
         21   -1    0    0  501  502 -0.00000000000E+00 -0.00000000000E+00 -0.52146208091E+02  0.52146208091E+02  0.00000000000E+00 0. -1.
      99926    2    1    2    0    0  0.00000000000E+00  0.00000000000E+00  0.83376117081E+03  0.93805358700E+03  0.42986840093E+03 0.  0.
      99925    2    3    3    0    0  0.78646163447E+02  0.20534869253E+02  0.46611099038E+03  0.54129035388E+03  0.26292373794E+03 0.  0.
         25    1    4    4    0    0  0.73754387864E+02  0.96541441020E+01  0.29555022695E+03  0.32943945874E+03  0.12509000000E+03 0.  0.
         25    1    3    3    0    0 -0.78646163447E+02 -0.20534869253E+02  0.36765018043E+03  0.39676323312E+03  0.12509000000E+03 0.  0.
         25    1    4    4    0    0  0.48917755833E+01  0.10880725151E+02  0.17056076343E+03  0.21185089514E+03  0.12509000000E+03 0.  0.
<mgrwt>
<rscale>  2 0.42986840E+03</rscale>
<asrwt>0</asrwt>
<pdfrwt beam="1">  1       21 0.13028049E+00 0.42986840E+03</pdfrwt>
<pdfrwt beam="2">  1       21 0.76685605E-02 0.42986840E+03</pdfrwt>
<totfact> 0.50924643E+04</totfact>
</mgrwt>
</event>
<event>
 7    0  0.4685107E-002  0.4484556E+03  0.7546771E-02  0.1028184E+00
         21   -1    0    0  502  501  0.00000000000E+00  0.00000000000E+00  0.46179587798E+03  0.46179587798E+03  0.00000000000E+00 0. -1.
         21   -1    0    0  501  502 -0.00000000000E+00 -0.00000000000E+00 -0.10887518792E+03  0.10887518792E+03  0.00000000000E+00 0. -1.
      99926    2    1    2    0    0  0.88817841970E-15  0.00000000000E+00  0.35292069006E+03  0.57067106589E+03  0.44845562988E+03 0.  0.
      99925    2    3    3    0    0 -0.52192573602E+01 -0.10427635575E+03  0.19429552994E+03  0.34327219048E+03  0.26302898089E+03 0.  0.
         25    1    3    3    0    0  0.52192573602E+01  0.10427635575E+03  0.15862516012E+03  0.22739887541E+03  0.12509000000E+03 0.  0.
         25    1    4    4    0    0  0.16290205665E+02 -0.39221614135E+02  0.52494903811E+02  0.14215107753E+03  0.12509000000E+03 0.  0.
         25    1    4    4    0    0 -0.21509463026E+02 -0.65054741611E+02  0.14180062613E+03  0.20112111296E+03  0.12509000000E+03 0.  0.
<mgrwt>
<rscale>  2 0.44845563E+03</rscale>
<asrwt>0</asrwt>
<pdfrwt beam="1">  1       21 0.67911158E-01 0.44845563E+03</pdfrwt>
<pdfrwt beam="2">  1       21 0.16011057E-01 0.44845563E+03</pdfrwt>
<totfact> 0.63756767E+04</totfact>
</mgrwt>
</event>
<event>
 7    0  0.4685107E-002  0.4569844E+03  0.7546771E-02  0.1025659E+00
         21   -1    0    0  502  501  0.00000000000E+00  0.00000000000E+00  0.59922685646E+03  0.59922685646E+03  0.00000000000E+00 0. -1.
         21   -1    0    0  501  502 -0.00000000000E+00 -0.00000000000E+00 -0.87126755237E+02  0.87126755237E+02  0.00000000000E+00 0. -1.
      99926    2    1    2    0    0  0.00000000000E+00  0.00000000000E+00  0.51210010123E+03  0.68635361170E+03  0.45698442711E+03 0.  0.
      99925    2    3    3    0    0  0.75281595955E+02 -0.63005548277E+02  0.41161387265E+03  0.49825255366E+03  0.26304488071E+03 0.  0.
         25    1    4    4    0    0  0.39295388428E+02 -0.67910034556E+02  0.25377662588E+03  0.29360855623E+03  0.12509000000E+03 0.  0.
         25    1    4    4    0    0  0.35986207527E+02  0.49044862787E+01  0.15783724676E+03  0.20464399743E+03  0.12509000000E+03 0.  0.
         25    1    3    3    0    0 -0.75281595955E+02  0.63005548277E+02  0.10048622858E+03  0.18810105804E+03  0.12509000000E+03 0.  0.
<mgrwt>
<rscale>  2 0.45698443E+03</rscale>
<asrwt>0</asrwt>
<pdfrwt beam="1">  1       21 0.88121595E-01 0.45698443E+03</pdfrwt>
<pdfrwt beam="2">  1       21 0.12812758E-01 0.45698443E+03</pdfrwt>
<totfact> 0.52820276E+04</totfact>
</mgrwt>
</event>
<event>
 7    0  0.4685107E-002  0.4549779E+03  0.7546771E-02  0.1026248E+00
         21   -1    0    0  502  501  0.00000000000E+00  0.00000000000E+00  0.17284676342E+03  0.17284676342E+03  0.00000000000E+00 0.  1.
         21   -1    0    0  501  502 -0.00000000000E+00 -0.00000000000E+00 -0.29940524331E+03  0.29940524331E+03  0.00000000000E+00 0.  1.
      99926    2    1    2    0    0  0.00000000000E+00 -0.35527136788E-14 -0.12655847988E+03  0.47225200673E+03  0.45497792148E+03 0.  0.
      99925    2    3    3    0    0 -0.84550266569E+02 -0.25443866366E+02 -0.61845522432E+01  0.27748669034E+03  0.26299140046E+03 0.  0.
         25    1    4    4    0    0 -0.41913663633E+02 -0.47447258746E+02 -0.24310487008E+02  0.14229021555E+03  0.12509000000E+03 0.  0.
         25    1    4    4    0    0 -0.42636602935E+02  0.22003392380E+02  0.18125934765E+02  0.13519647480E+03  0.12509000000E+03 0.  0.
         25    1    3    3    0    0  0.84550266569E+02  0.25443866366E+02 -0.12037392764E+03  0.19476531639E+03  0.12509000000E+03 0.  0.
<mgrwt>
<rscale>  2 0.45497792E+03</rscale>
<asrwt>0</asrwt>
<pdfrwt beam="1">  1       21 0.25418642E-01 0.45497792E+03</pdfrwt>
<pdfrwt beam="2">  1       21 0.44030183E-01 0.45497792E+03</pdfrwt>
<totfact> 0.67280414E+04</totfact>
</mgrwt>
</event>
<event>
 7    0  0.4685107E-002  0.4555775E+03  0.7546771E-02  0.1026072E+00
         21   -1    0    0  502  501  0.00000000000E+00  0.00000000000E+00  0.21173757134E+03  0.21173757134E+03  0.00000000000E+00 0.  1.
         21   -1    0    0  501  502 -0.00000000000E+00 -0.00000000000E+00 -0.24505677290E+03  0.24505677290E+03  0.00000000000E+00 0.  1.
      99926    2    1    2    0    0 -0.71054273576E-14  0.00000000000E+00 -0.33319201566E+02  0.45679434424E+03  0.45557754964E+03 0.  0.
      99925    2    3    3    0    0 -0.59169647828E+02  0.45599376997E+02  0.65040921001E+02  0.28100306966E+03  0.26296778006E+03 0.  0.
         25    1    4    4    0    0 -0.40356404433E+02  0.48500631503E+02  0.65064907726E+02  0.15447297807E+03  0.12509000000E+03 0.  0.
         25    1    4    4    0    0 -0.18813243396E+02 -0.29012545057E+01 -0.23986724948E-01  0.12653009160E+03  0.12509000000E+03 0.  0.
         25    1    3    3    0    0  0.59169647828E+02 -0.45599376997E+02 -0.98360122567E+02  0.17579127458E+03  0.12509000000E+03 0.  0.
<mgrwt>
<rscale>  2 0.45557755E+03</rscale>
<asrwt>0</asrwt>
<pdfrwt beam="1">  1       21 0.31137878E-01 0.45557755E+03</pdfrwt>
<pdfrwt beam="2">  1       21 0.36037761E-01 0.45557755E+03</pdfrwt>
<totfact> 0.68100220E+04</totfact>
</mgrwt>
</event>
<event>
 7    0  0.4685107E-002  0.4561155E+03  0.7546771E-02  0.1025914E+00
         21   -1    0    0  502  501  0.00000000000E+00  0.00000000000E+00  0.84101095520E+02  0.84101095520E+02  0.00000000000E+00 0.  1.
         21   -1    0    0  501  502 -0.00000000000E+00 -0.00000000000E+00 -0.61842641915E+03  0.61842641915E+03  0.00000000000E+00 0.  1.
      99926    2    1    2    0    0  0.00000000000E+00  0.71054273576E-14 -0.53432532363E+03  0.70252751467E+03  0.45611550883E+03 0.  0.
      99925    2    3    3    0    0  0.10455204585E+03 -0.45660438076E+02 -0.32775292907E+03  0.43544013535E+03  0.26300213509E+03 0.  0.
         25    1    4    4    0    0  0.56150872016E+02 -0.10927366038E+02 -0.22192672385E+03  0.26109635504E+03  0.12509000000E+03 0.  0.
         25    1    3    3    0    0 -0.10455204585E+03  0.45660438076E+02 -0.20657239455E+03  0.26708737931E+03  0.12509000000E+03 0.  0.
         25    1    4    4    0    0  0.48401173835E+02 -0.34733072038E+02 -0.10582620523E+03  0.17434378031E+03  0.12509000000E+03 0.  0.
<mgrwt>
<rscale>  2 0.45611551E+03</rscale>
<asrwt>0</asrwt>
<pdfrwt beam="1">  1       21 0.12367809E-01 0.45611551E+03</pdfrwt>
<pdfrwt beam="2">  1       21 0.90945058E-01 0.45611551E+03</pdfrwt>
<totfact> 0.52305278E+04</totfact>
</mgrwt>
</event>
<event>
 7    0  0.4685107E-002  0.4532895E+03  0.7546771E-02  0.1026746E+00
         21   -1    0    0  502  501  0.00000000000E+00  0.00000000000E+00  0.51932807461E+03  0.51932807461E+03  0.00000000000E+00 0. -1.
         21   -1    0    0  501  502 -0.00000000000E+00 -0.00000000000E+00 -0.98912136693E+02  0.98912136693E+02  0.00000000000E+00 0. -1.
      99926    2    1    2    0    0  0.71054273576E-14  0.00000000000E+00  0.42041593791E+03  0.61824021130E+03  0.45328953001E+03 0.  0.
      99925    2    3    3    0    0  0.43440741331E+02 -0.89437402825E+02  0.19599676089E+03  0.34274498059E+03  0.26300806909E+03 0.  0.
         25    1    4    4    0    0 -0.12001643250E+02 -0.59853494020E+02  0.77335214461E+02  0.15923166671E+03  0.12509000000E+03 0.  0.
         25    1    4    4    0    0  0.55442384581E+02 -0.29583908805E+02  0.11866154643E+03  0.18351331388E+03  0.12509000000E+03 0.  0.
         25    1    3    3    0    0 -0.43440741331E+02  0.89437402825E+02  0.22441917702E+03  0.27549523071E+03  0.12509000000E+03 0.  0.
<mgrwt>
<rscale>  2 0.45328953E+03</rscale>
<asrwt>0</asrwt>
<pdfrwt beam="1">  1       21 0.76371775E-01 0.45328953E+03</pdfrwt>
<pdfrwt beam="2">  1       21 0.14545903E-01 0.45328953E+03</pdfrwt>
<totfact> 0.58353570E+04</totfact>
</mgrwt>
</event>
<event>
 7    0  0.4685107E-002  0.4560299E+03  0.7546771E-02  0.1025939E+00
         21   -1    0    0  502  501  0.00000000000E+00  0.00000000000E+00  0.18938751481E+03  0.18938751481E+03  0.00000000000E+00 0.  1.
         21   -1    0    0  501  502 -0.00000000000E+00 -0.00000000000E+00 -0.27452077906E+03  0.27452077906E+03  0.00000000000E+00 0.  1.
      99926    2    1    2    0    0 -0.71054273576E-14  0.00000000000E+00 -0.85133264251E+02  0.46390829387E+03  0.45602985915E+03 0.  0.
      99925    2    3    3    0    0 -0.52272997595E+02 -0.12981836374E+02 -0.15586406490E+03  0.31044380738E+03  0.26302234974E+03 0.  0.
         25    1    3    3    0    0  0.52272997595E+02  0.12981836374E+02  0.70730800649E+02  0.15346448649E+03  0.12509000000E+03 0.  0.
         25    1    4    4    0    0 -0.64188080588E+02 -0.17378712389E+02 -0.96422919098E+02  0.17136807393E+03  0.12509000000E+03 0.  0.
         25    1    4    4    0    0  0.11915082993E+02  0.43968760148E+01 -0.59441145803E+02  0.13907573345E+03  0.12509000000E+03 0.  0.
<mgrwt>
<rscale>  2 0.45602986E+03</rscale>
<asrwt>0</asrwt>
<pdfrwt beam="1">  1       21 0.27851105E-01 0.45602986E+03</pdfrwt>
<pdfrwt beam="2">  1       21 0.40370703E-01 0.45602986E+03</pdfrwt>
<totfact> 0.67338306E+04</totfact>
</mgrwt>
</event>
<event>
 7    0  0.4685107E-002  0.4471062E+03  0.7546771E-02  0.1028589E+00
         21   -1    0    0  502  501  0.00000000000E+00  0.00000000000E+00  0.19441496686E+03  0.19441496686E+03  0.00000000000E+00 0. -1.
         21   -1    0    0  501  502 -0.00000000000E+00 -0.00000000000E+00 -0.25705837775E+03  0.25705837775E+03  0.00000000000E+00 0. -1.
      99926    2    1    2    0    0  0.00000000000E+00  0.00000000000E+00 -0.62643410893E+02  0.45147334462E+03  0.44710623343E+03 0.  0.
      99925    2    3    3    0    0  0.81589344827E+02 -0.48234428211E+02  0.74726369822E+01  0.27958050147E+03  0.26291830527E+03 0.  0.
         25    1    3    3    0    0 -0.81589344827E+02  0.48234428211E+02 -0.70116047875E+02  0.17189284314E+03  0.12509000000E+03 0.  0.
         25    1    4    4    0    0  0.15643691491E+02  0.72181419503E+01  0.16894577139E+02  0.12739608115E+03  0.12509000000E+03 0.  0.
         25    1    4    4    0    0  0.65945653336E+02 -0.55452570162E+02 -0.94219401573E+01  0.15218442032E+03  0.12509000000E+03 0.  0.
<mgrwt>
<rscale>  2 0.44710623E+03</rscale>
<asrwt>0</asrwt>
<pdfrwt beam="1">  1       21 0.28590437E-01 0.44710623E+03</pdfrwt>
<pdfrwt beam="2">  1       21 0.37802702E-01 0.44710623E+03</pdfrwt>
<totfact> 0.73314104E+04</totfact>
</mgrwt>
</event>
<event>
 6    0  0.4685107E-002  0.4553502E+03  0.7546771E-02  0.1026138E+00
         21   -1    0    0  502  501  0.00000000000E+00  0.00000000000E+00  0.79396183408E+03  0.79396183408E+03  0.00000000000E+00 0. -1.
         21   -1    0    0  501  502 -0.00000000000E+00 -0.00000000000E+00 -0.65287699415E+02  0.65287699415E+02  0.00000000000E+00 0. -1.
      99926    2    1    2    0    0  0.00000000000E+00  0.00000000000E+00  0.72867413466E+03  0.85924953349E+03  0.45535015788E+03 0.  0.
         25    1    3    3    0    0 -0.25488809109E+02 -0.70978294662E+02  0.43836604563E+03  0.46206048929E+03  0.12509000000E+03 0.  0.
         25    1    3    3    0    0  0.32185399470E+02  0.72667138537E+01  0.15756619790E+03  0.20387084120E+03  0.12509000000E+03 0.  0.
         25    1    3    3    0    0 -0.66965903613E+01  0.63711580808E+02  0.13274189113E+03  0.19331820300E+03  0.12509000000E+03 0.  0.
<mgrwt>
<rscale>  2 0.45535016E+03</rscale>
<asrwt>0</asrwt>
<pdfrwt beam="1">  1       21 0.11675909E+00 0.45535016E+03</pdfrwt>
<pdfrwt beam="2">  1       21 0.96011327E-02 0.45535016E+03</pdfrwt>
<totfact> 0.44904923E+04</totfact>
</mgrwt>
</event>
<event>
 7    0  0.4685107E-002  0.4215212E+03  0.7546771E-02  0.1036572E+00
         21   -1    0    0  502  501  0.00000000000E+00  0.00000000000E+00  0.39575636429E+03  0.39575636429E+03  0.00000000000E+00 0. -1.
         21   -1    0    0  501  502 -0.00000000000E+00 -0.00000000000E+00 -0.11224082980E+03  0.11224082980E+03  0.00000000000E+00 0. -1.
      99926    2    1    2    0    0  0.00000000000E+00  0.00000000000E+00  0.28351553449E+03  0.50799719409E+03  0.42152116306E+03 0.  0.
      99925    2    3    3    0    0  0.35051555653E+02  0.46654681861E+02  0.12247436712E+03  0.29589571701E+03  0.26296203880E+03 0.  0.
         25    1    3    3    0    0 -0.35051555653E+02 -0.46654681861E+02  0.16104116736E+03  0.21210147708E+03  0.12509000000E+03 0.  0.
         25    1    4    4    0    0  0.29179810123E+01  0.60818296147E+02  0.70434862768E+02  0.15593574880E+03  0.12509000000E+03 0.  0.
         25    1    4    4    0    0  0.32133574641E+02 -0.14163614286E+02  0.52039504356E+02  0.13995996821E+03  0.12509000000E+03 0.  0.
<mgrwt>
<rscale>  2 0.42152116E+03</rscale>
<asrwt>0</asrwt>
<pdfrwt beam="1">  1       21 0.58199465E-01 0.42152116E+03</pdfrwt>
<pdfrwt beam="2">  1       21 0.16506004E-01 0.42152116E+03</pdfrwt>
<totfact> 0.85164745E+04</totfact>
</mgrwt>
</event>
<event>
 7    0  0.4685107E-002  0.4573669E+03  0.7546771E-02  0.1025548E+00
         21   -1    0    0  502  501  0.00000000000E+00  0.00000000000E+00  0.22964350362E+03  0.22964350362E+03  0.00000000000E+00 0.  1.
         21   -1    0    0  501  502 -0.00000000000E+00 -0.00000000000E+00 -0.22772744938E+03  0.22772744938E+03  0.00000000000E+00 0.  1.
      99926    2    1    2    0    0  0.00000000000E+00  0.00000000000E+00  0.19160542393E+01  0.45737095300E+03  0.45736693954E+03 0.  0.
      99925    2    3    3    0    0 -0.66644461669E+02 -0.90293717743E+02 -0.25692981389E+02  0.28706473854E+03  0.26296690872E+03 0.  0.
         25    1    4    4    0    0 -0.62236702738E+02 -0.35082233376E+02  0.13694416541E+02  0.14470388872E+03  0.12509000000E+03 0.  0.
         25    1    3    3    0    0  0.66644461669E+02  0.90293717743E+02  0.27609035628E+02  0.17030621446E+03  0.12509000000E+03 0.  0.
         25    1    4    4    0    0 -0.44077589308E+01 -0.55211484367E+02 -0.39387397929E+02  0.14236084982E+03  0.12509000000E+03 0.  0.
<mgrwt>
<rscale>  2 0.45736694E+03</rscale>
<asrwt>0</asrwt>
<pdfrwt beam="1">  1       21 0.33771104E-01 0.45736694E+03</pdfrwt>
<pdfrwt beam="2">  1       21 0.33489331E-01 0.45736694E+03</pdfrwt>
<totfact> 0.67096300E+04</totfact>
</mgrwt>
</event>
<event>
 7    0  0.4685107E-002  0.4546012E+03  0.7546771E-02  0.1026359E+00
         21   -1    0    0  502  501  0.00000000000E+00  0.00000000000E+00  0.45517909925E+03  0.45517909925E+03  0.00000000000E+00 0.  1.
         21   -1    0    0  501  502 -0.00000000000E+00 -0.00000000000E+00 -0.11350602054E+03  0.11350602054E+03  0.00000000000E+00 0.  1.
      99926    2    1    2    0    0  0.88817841970E-15  0.00000000000E+00  0.34167307871E+03  0.56868511979E+03  0.45460122389E+03 0.  0.
      99925    2    3    3    0    0 -0.70064530958E+01  0.11219195750E+03  0.22514223635E+03  0.36408044968E+03  0.26311484477E+03 0.  0.
         25    1    3    3    0    0  0.70064530958E+01 -0.11219195750E+03  0.11653084236E+03  0.20460467011E+03  0.12509000000E+03 0.  0.
         25    1    4    4    0    0 -0.11565407511E+02  0.80534965096E+02  0.78193911766E+02  0.16846790552E+03  0.12509000000E+03 0.  0.
         25    1    4    4    0    0  0.45589544154E+01  0.31656992399E+02  0.14694832459E+03  0.19561254416E+03  0.12509000000E+03 0.  0.
<mgrwt>
<rscale>  2 0.45460122E+03</rscale>
<asrwt>0</asrwt>
<pdfrwt beam="1">  1       21 0.66938102E-01 0.45460122E+03</pdfrwt>
<pdfrwt beam="2">  1       21 0.16692062E-01 0.45460122E+03</pdfrwt>
<totfact> 0.60840045E+04</totfact>
</mgrwt>
</event>
<event>
 7    0  0.4685107E-002  0.4612094E+03  0.7546771E-02  0.1024431E+00
         21   -1    0    0  502  501  0.00000000000E+00  0.00000000000E+00  0.42369232259E+03  0.42369232259E+03  0.00000000000E+00 0. -1.
         21   -1    0    0  501  502 -0.00000000000E+00 -0.00000000000E+00 -0.12551211699E+03  0.12551211699E+03  0.00000000000E+00 0. -1.
      99926    2    1    2    0    0  0.00000000000E+00  0.00000000000E+00  0.29818020560E+03  0.54920443959E+03  0.46120936835E+03 0.  0.
      99925    2    3    3    0    0 -0.46591626015E+02 -0.10885634099E+03  0.19975711240E+03  0.35082325105E+03  0.26297065794E+03 0.  0.
         25    1    3    3    0    0  0.46591626015E+02  0.10885634099E+03  0.98423093202E+02  0.19838118853E+03  0.12509000000E+03 0.  0.
         25    1    4    4    0    0 -0.22300061589E+02 -0.11102359750E+02  0.81193796134E+02  0.15119687751E+03  0.12509000000E+03 0.  0.
         25    1    4    4    0    0 -0.24291564425E+02 -0.97753981238E+02  0.11856331626E+03  0.19962637354E+03  0.12509000000E+03 0.  0.
<mgrwt>
<rscale>  2 0.46120937E+03</rscale>
<asrwt>0</asrwt>
<pdfrwt beam="1">  1       21 0.62307694E-01 0.46120937E+03</pdfrwt>
<pdfrwt beam="2">  1       21 0.18457664E-01 0.46120937E+03</pdfrwt>
<totfact> 0.58968181E+04</totfact>
</mgrwt>
</event>
<event>
 7    0  0.4685107E-002  0.4568759E+03  0.7546771E-02  0.1025691E+00
         21   -1    0    0  502  501  0.00000000000E+00  0.00000000000E+00  0.12886453929E+03  0.12886453929E+03  0.00000000000E+00 0.  1.
         21   -1    0    0  501  502 -0.00000000000E+00 -0.00000000000E+00 -0.40495160858E+03  0.40495160858E+03  0.00000000000E+00 0.  1.
      99926    2    1    2    0    0  0.00000000000E+00  0.00000000000E+00 -0.27608706928E+03  0.53381614787E+03  0.45687592396E+03 0.  0.
      99925    2    3    3    0    0 -0.30496197054E+02  0.10085588740E+03 -0.22685436755E+03  0.36301423020E+03  0.26308648615E+03 0.  0.
         25    1    3    3    0    0  0.30496197054E+02 -0.10085588740E+03 -0.49232701733E+02  0.17080191766E+03  0.12509000000E+03 0.  0.
         25    1    4    4    0    0 -0.30650041833E+02  0.25670962659E+02 -0.14520309387E+03  0.19578015721E+03  0.12509000000E+03 0.  0.
         25    1    4    4    0    0  0.15384477836E+00  0.75184924737E+02 -0.81651273679E+02  0.16723407299E+03  0.12509000000E+03 0.  0.
<mgrwt>
<rscale>  2 0.45687592E+03</rscale>
<asrwt>0</asrwt>
<pdfrwt beam="1">  1       21 0.18950667E-01 0.45687592E+03</pdfrwt>
<pdfrwt beam="2">  1       21 0.59551707E-01 0.45687592E+03</pdfrwt>
<totfact> 0.62021649E+04</totfact>
</mgrwt>
</event>
<event>
 7    0  0.4685107E-002  0.4343720E+03  0.7546771E-02  0.1032488E+00
         21   -1    0    0  502  501  0.00000000000E+00  0.00000000000E+00  0.60207746605E+02  0.60207746605E+02  0.00000000000E+00 0.  1.
         21   -1    0    0  501  502 -0.00000000000E+00 -0.00000000000E+00 -0.78345013596E+03  0.78345013596E+03  0.00000000000E+00 0.  1.
      99926    2    1    2    0    0  0.00000000000E+00  0.35527136788E-14 -0.72324238936E+03  0.84365788257E+03  0.43437203991E+03 0.  0.
      99925    2    3    3    0    0 -0.83364888610E+02 -0.27666369422E+02 -0.52047798394E+03  0.58973654661E+03  0.26301469539E+03 0.  0.
         25    1    3    3    0    0  0.83364888610E+02  0.27666369422E+02 -0.20276440542E+03  0.25392133596E+03  0.12509000000E+03 0.  0.
         25    1    4    4    0    0 -0.38413070434E+02  0.25510292769E+02 -0.27355048627E+03  0.30430858623E+03  0.12509000000E+03 0.  0.
         25    1    4    4    0    0 -0.44951818176E+02 -0.53176662190E+02 -0.24692749768E+03  0.28542796038E+03  0.12509000000E+03 0.  0.
<mgrwt>
<rscale>  2 0.43437204E+03</rscale>
<asrwt>0</asrwt>
<pdfrwt beam="1">  1       21 0.88540806E-02 0.43437204E+03</pdfrwt>
<pdfrwt beam="2">  1       21 0.11521325E+00 0.43437204E+03</pdfrwt>
<totfact> 0.53936814E+04</totfact>
</mgrwt>
</event>
<event>
 7    0  0.4685107E-002  0.4590678E+03  0.7546771E-02  0.1025052E+00
         21   -1    0    0  502  501  0.00000000000E+00  0.00000000000E+00  0.40100301003E+03  0.40100301003E+03  0.00000000000E+00 0. -1.
         21   -1    0    0  501  502 -0.00000000000E+00 -0.00000000000E+00 -0.13138510091E+03  0.13138510091E+03  0.00000000000E+00 0. -1.
      99926    2    1    2    0    0  0.00000000000E+00  0.00000000000E+00  0.26961790912E+03  0.53238811094E+03  0.45906784221E+03 0.  0.
      99925    2    3    3    0    0 -0.56089615483E+02 -0.98678904570E+02  0.13637309744E+03  0.31724801912E+03  0.26299260970E+03 0.  0.
         25    1    4    4    0    0  0.35899517345E+01 -0.24303702086E+02  0.44122508512E+02  0.13489944976E+03  0.12509000000E+03 0.  0.
         25    1    3    3    0    0  0.56089615483E+02  0.98678904570E+02  0.13324481167E+03  0.21514009182E+03  0.12509000000E+03 0.  0.
         25    1    4    4    0    0 -0.59679567218E+02 -0.74375202484E+02  0.92250588932E+02  0.18234856936E+03  0.12509000000E+03 0.  0.
<mgrwt>
<rscale>  2 0.45906784E+03</rscale>
<asrwt>0</asrwt>
<pdfrwt beam="1">  1       21 0.58971031E-01 0.45906784E+03</pdfrwt>
<pdfrwt beam="2">  1       21 0.19321338E-01 0.45906784E+03</pdfrwt>
<totfact> 0.61052829E+04</totfact>
</mgrwt>
</event>
<event>
 7    0  0.4685107E-002  0.4368997E+03  0.7546771E-02  0.1031702E+00
         21   -1    0    0  502  501  0.00000000000E+00  0.00000000000E+00  0.70800736077E+02  0.70800736077E+02  0.00000000000E+00 0.  1.
         21   -1    0    0  501  502 -0.00000000000E+00 -0.00000000000E+00 -0.67400909659E+03  0.67400909659E+03  0.00000000000E+00 0.  1.
      99926    2    1    2    0    0  0.14210854715E-13  0.00000000000E+00 -0.60320836051E+03  0.74480983267E+03  0.43689971463E+03 0.  0.
      99925    2    3    3    0    0  0.94320180262E+02 -0.96471709461E+01 -0.37173205958E+03  0.46513475279E+03  0.26301378257E+03 0.  0.
         25    1    3    3    0    0 -0.94320180262E+02  0.96471709461E+01 -0.23147630093E+03  0.27967507988E+03  0.12509000000E+03 0.  0.
         25    1    4    4    0    0  0.30068702709E+02  0.19848403150E+02 -0.13032073347E+03  0.18419850070E+03  0.12509000000E+03 0.  0.
         25    1    4    4    0    0  0.64251477552E+02 -0.29495574096E+02 -0.24141132612E+03  0.28093625209E+03  0.12509000000E+03 0.  0.
<mgrwt>
<rscale>  2 0.43689971E+03</rscale>
<asrwt>0</asrwt>
<pdfrwt beam="1">  1       21 0.10411873E-01 0.43689971E+03</pdfrwt>
<pdfrwt beam="2">  1       21 0.99118987E-01 0.43689971E+03</pdfrwt>
<totfact> 0.58414518E+04</totfact>
</mgrwt>
</event>
<event>
 7    0  0.4685107E-002  0.4518284E+03  0.7546771E-02  0.1027178E+00
         21   -1    0    0  502  501  0.00000000000E+00  0.00000000000E+00  0.31917728101E+03  0.31917728101E+03  0.00000000000E+00 0. -1.
         21   -1    0    0  501  502 -0.00000000000E+00 -0.00000000000E+00 -0.15990246610E+03  0.15990246610E+03  0.00000000000E+00 0. -1.
      99926    2    1    2    0    0 -0.17763568394E-14  0.00000000000E+00  0.15927481491E+03  0.47907974710E+03  0.45182843804E+03 0.  0.
      99925    2    3    3    0    0 -0.61749891893E+01  0.10897252248E+03  0.11691151192E+03  0.30774586637E+03  0.26291838182E+03 0.  0.
         25    1    3    3    0    0  0.61749891893E+01 -0.10897252248E+03  0.42363302990E+02  0.17133388074E+03  0.12509000000E+03 0.  0.
         25    1    4    4    0    0 -0.29873193317E+02  0.69420105277E+02  0.31770324034E+02  0.14956075784E+03  0.12509000000E+03 0.  0.
         25    1    4    4    0    0  0.23698204128E+02  0.39552417206E+02  0.85141187889E+02  0.15818510853E+03  0.12509000000E+03 0.  0.
<mgrwt>
<rscale>  2 0.45182844E+03</rscale>
<asrwt>0</asrwt>
<pdfrwt beam="1">  1       21 0.46937835E-01 0.45182844E+03</pdfrwt>
<pdfrwt beam="2">  1       21 0.23515069E-01 0.45182844E+03</pdfrwt>
<totfact> 0.68474815E+04</totfact>
</mgrwt>
</event>
<event>
 7    0  0.4685107E-002  0.4609166E+03  0.7546771E-02  0.1024516E+00
         21   -1    0    0  502  501  0.00000000000E+00  0.00000000000E+00  0.40543940869E+03  0.40543940869E+03  0.00000000000E+00 0. -1.
         21   -1    0    0  501  502 -0.00000000000E+00 -0.00000000000E+00 -0.13099619148E+03  0.13099619148E+03  0.00000000000E+00 0. -1.
      99926    2    1    2    0    0  0.00000000000E+00  0.00000000000E+00  0.27444321721E+03  0.53643560017E+03  0.46091655824E+03 0.  0.
      99925    2    3    3    0    0 -0.96304674211E+02 -0.66313252085E+02  0.14832540368E+03  0.32377331234E+03  0.26297660491E+03 0.  0.
         25    1    3    3    0    0  0.96304674211E+02  0.66313252085E+02  0.12611781352E+03  0.21266228783E+03  0.12509000000E+03 0.  0.
         25    1    4    4    0    0 -0.78298633544E+02 -0.77852525161E+01  0.64703488315E+02  0.16132369842E+03  0.12509000000E+03 0.  0.
         25    1    4    4    0    0 -0.18006040668E+02 -0.58527999569E+02  0.83621915370E+02  0.16244961392E+03  0.12509000000E+03 0.  0.
<mgrwt>
<rscale>  2 0.46091656E+03</rscale>
<asrwt>0</asrwt>
<pdfrwt beam="1">  1       21 0.59623442E-01 0.46091656E+03</pdfrwt>
<pdfrwt beam="2">  1       21 0.19264146E-01 0.46091656E+03</pdfrwt>
<totfact> 0.59913841E+04</totfact>
</mgrwt>
</event>
<event>
 7    0  0.4685107E-002  0.4548954E+03  0.7546771E-02  0.1026272E+00
         21   -1    0    0  502  501  0.00000000000E+00  0.00000000000E+00  0.72278083169E+02  0.72278083169E+02  0.00000000000E+00 0. -1.
         21   -1    0    0  501  502 -0.00000000000E+00 -0.00000000000E+00 -0.71574206836E+03  0.71574206836E+03  0.00000000000E+00 0. -1.
      99926    2    1    2    0    0  0.00000000000E+00  0.00000000000E+00 -0.64346398519E+03  0.78802015153E+03  0.45489543741E+03 0.  0.
      99925    2    3    3    0    0  0.46230195581E+02 -0.90362982585E+02 -0.49196006881E+03  0.56687846757E+03  0.26272378668E+03 0.  0.
         25    1    4    4    0    0 -0.69953160143E+01 -0.60826849270E+02 -0.28914315966E+03  0.32093630975E+03  0.12509000000E+03 0.  0.
         25    1    4    4    0    0  0.53225511595E+02 -0.29536133315E+02 -0.20281690915E+03  0.24594215782E+03  0.12509000000E+03 0.  0.
         25    1    3    3    0    0 -0.46230195581E+02  0.90362982585E+02 -0.15150391638E+03  0.22114168396E+03  0.12509000000E+03 0.  0.
<mgrwt>
<rscale>  2 0.45489544E+03</rscale>
<asrwt>0</asrwt>
<pdfrwt beam="1">  1       21 0.10629130E-01 0.45489544E+03</pdfrwt>
<pdfrwt beam="2">  1       21 0.10525619E+00 0.45489544E+03</pdfrwt>
<totfact> 0.48389444E+04</totfact>
</mgrwt>
</event>
<event>
 7    0  0.4685107E-002  0.4454529E+03  0.7546771E-02  0.1029087E+00
         21   -1    0    0  502  501  0.00000000000E+00  0.00000000000E+00  0.18475136279E+04  0.18475136279E+04  0.00000000000E+00 0. -1.
         21   -1    0    0  501  502 -0.00000000000E+00 -0.00000000000E+00 -0.26850725696E+02  0.26850725696E+02  0.00000000000E+00 0. -1.
      99926    2    1    2    0    0  0.71054273576E-14  0.35527136788E-14  0.18206629022E+04  0.18743643536E+04  0.44545294541E+03 0.  0.
      99925    2    3    3    0    0 -0.58494320952E+02  0.19742705076E+02  0.15078377891E+04  0.15318465884E+04  0.26299774178E+03 0.  0.
         25    1    3    3    0    0  0.58494320952E+02 -0.19742705076E+02  0.31282511318E+03  0.34251776527E+03  0.12509000000E+03 0.  0.
         25    1    4    4    0    0 -0.34976502151E+02  0.40205649614E+02  0.62282703912E+03  0.63749578722E+03  0.12509000000E+03 0.  0.
         25    1    4    4    0    0 -0.23517818801E+02 -0.20462944539E+02  0.88501074994E+03  0.89435080115E+03  0.12509000000E+03 0.  0.
<mgrwt>
<rscale>  2 0.44545295E+03</rscale>
<asrwt>0</asrwt>
<pdfrwt beam="1">  1       21 0.27169309E+00 0.44545295E+03</pdfrwt>
<pdfrwt beam="2">  1       21 0.39486374E-02 0.44545295E+03</pdfrwt>
<totfact> 0.17104003E+04</totfact>
</mgrwt>
</event>
<event>
 7    0  0.4685107E-002  0.4583969E+03  0.7546771E-02  0.1025247E+00
         21   -1    0    0  502  501  0.00000000000E+00  0.00000000000E+00  0.67091131825E+02  0.67091131825E+02  0.00000000000E+00 0.  1.
         21   -1    0    0  501  502 -0.00000000000E+00 -0.00000000000E+00 -0.78299358617E+03  0.78299358617E+03  0.00000000000E+00 0.  1.
      99926    2    1    2    0    0  0.44408920985E-15  0.14210854715E-13 -0.71590245434E+03  0.85008471799E+03  0.45839688440E+03 0.  0.
      99925    2    3    3    0    0  0.27972781655E+01  0.94110120305E+02 -0.57584694313E+03  0.64001902867E+03  0.26298310904E+03 0.  0.
         25    1    4    4    0    0 -0.19612999758E+01  0.26421844172E+02 -0.35467089234E+03  0.37701579612E+03  0.12509000000E+03 0.  0.
         25    1    4    4    0    0  0.47585781413E+01  0.67688276132E+02 -0.22117605079E+03  0.26300323255E+03  0.12509000000E+03 0.  0.
         25    1    3    3    0    0 -0.27972781655E+01 -0.94110120305E+02 -0.14005551121E+03  0.21006568932E+03  0.12509000000E+03 0.  0.
<mgrwt>
<rscale>  2 0.45839688E+03</rscale>
<asrwt>0</asrwt>
<pdfrwt beam="1">  1       21 0.98663440E-02 0.45839688E+03</pdfrwt>
<pdfrwt beam="2">  1       21 0.11514610E+00 0.45839688E+03</pdfrwt>
<totfact> 0.44244755E+04</totfact>
</mgrwt>
</event>
<event>
 7    0  0.4685107E-002  0.4500353E+03  0.7546771E-02  0.1027712E+00
         21   -1    0    0  502  501  0.00000000000E+00  0.00000000000E+00  0.11128068506E+03  0.11128068506E+03  0.00000000000E+00 0.  1.
         21   -1    0    0  501  502 -0.00000000000E+00 -0.00000000000E+00 -0.45500208955E+03  0.45500208955E+03  0.00000000000E+00 0.  1.
      99926    2    1    2    0    0  0.00000000000E+00  0.00000000000E+00 -0.34372140449E+03  0.56628277461E+03  0.45003530629E+03 0.  0.
      99925    2    3    3    0    0 -0.59156487381E+02 -0.71149742958E+02 -0.14605626664E+03  0.31472603997E+03  0.26297960241E+03 0.  0.
         25    1    4    4    0    0 -0.45514192862E+02 -0.16985276815E+02 -0.35830569897E+02  0.13889340956E+03  0.12509000000E+03 0.  0.
         25    1    3    3    0    0  0.59156487381E+02  0.71149742958E+02 -0.19766513785E+03  0.25155673464E+03  0.12509000000E+03 0.  0.
         25    1    4    4    0    0 -0.13642294519E+02 -0.54164466143E+02 -0.11022569675E+03  0.17583263041E+03  0.12509000000E+03 0.  0.
<mgrwt>
<rscale>  2 0.45003531E+03</rscale>
<asrwt>0</asrwt>
<pdfrwt beam="1">  1       21 0.16364807E-01 0.45003531E+03</pdfrwt>
<pdfrwt beam="2">  1       21 0.66912072E-01 0.45003531E+03</pdfrwt>
<totfact> 0.63250256E+04</totfact>
</mgrwt>
</event>
<event>
 7    0  0.4685107E-002  0.4547612E+03  0.7546771E-02  0.1026312E+00
         21   -1    0    0  502  501  0.00000000000E+00  0.00000000000E+00  0.61420004803E+03  0.61420004803E+03  0.00000000000E+00 0. -1.
         21   -1    0    0  501  502 -0.00000000000E+00 -0.00000000000E+00 -0.84177669152E+02  0.84177669152E+02  0.00000000000E+00 0. -1.
      99926    2    1    2    0    0  0.00000000000E+00 -0.99920072216E-15  0.53002237887E+03  0.69837771718E+03  0.45476116121E+03 0.  0.
      99925    2    3    3    0    0 -0.88198061623E+02  0.74103123073E+00  0.22581236749E+03  0.35783302653E+03  0.26319916862E+03 0.  0.
         25    1    4    4    0    0 -0.16579501616E+02  0.31737718309E+02  0.10306214696E+03  0.16598637557E+03  0.12509000000E+03 0.  0.
         25    1    4    4    0    0 -0.71618560007E+02 -0.30996687078E+02  0.12275022053E+03  0.19184665097E+03  0.12509000000E+03 0.  0.
         25    1    3    3    0    0  0.88198061623E+02 -0.74103123073E+00  0.30421001138E+03  0.34054469065E+03  0.12509000000E+03 0.  0.
<mgrwt>
<rscale>  2 0.45476116E+03</rscale>
<asrwt>0</asrwt>
<pdfrwt beam="1">  1       21 0.90323535E-01 0.45476116E+03</pdfrwt>
<pdfrwt beam="2">  1       21 0.12379069E-01 0.45476116E+03</pdfrwt>
<totfact> 0.53090855E+04</totfact>
</mgrwt>
</event>
<event>
 7    0  0.4685107E-002  0.4538726E+03  0.7546771E-02  0.1026573E+00
         21   -1    0    0  502  501  0.00000000000E+00  0.00000000000E+00  0.21155739898E+04  0.21155739898E+04  0.00000000000E+00 0. -1.
         21   -1    0    0  501  502 -0.00000000000E+00 -0.00000000000E+00 -0.24343317276E+02  0.24343317276E+02  0.00000000000E+00 0. -1.
      99926    2    1    2    0    0  0.00000000000E+00  0.35527136788E-14  0.20912306725E+04  0.21399173071E+04  0.45387262026E+03 0.  0.
      99925    2    3    3    0    0  0.10249034551E+03 -0.26745451983E+02  0.14906016747E+04  0.15173241083E+04  0.26298195123E+03 0.  0.
         25    1    4    4    0    0  0.69833471097E+02 -0.50246409648E+02  0.83326305608E+03  0.84698066335E+03  0.12509000000E+03 0.  0.
         25    1    4    4    0    0  0.32656874409E+02  0.23500957665E+02  0.65733861867E+03  0.67034344492E+03  0.12509000000E+03 0.  0.
         25    1    3    3    0    0 -0.10249034551E+03  0.26745451983E+02  0.60062899780E+03  0.62259319882E+03  0.12509000000E+03 0.  0.
<mgrwt>
<rscale>  2 0.45387262E+03</rscale>
<asrwt>0</asrwt>
<pdfrwt beam="1">  1       21 0.31111370E+00 0.45387262E+03</pdfrwt>
<pdfrwt beam="2">  1       21 0.35799010E-02 0.45387262E+03</pdfrwt>
<totfact> 0.11658713E+04</totfact>
</mgrwt>
</event>
<event>
 7    0  0.4685107E-002  0.4534174E+03  0.7546771E-02  0.1026708E+00
         21   -1    0    0  502  501  0.00000000000E+00  0.00000000000E+00  0.22246953810E+03  0.22246953810E+03  0.00000000000E+00 0. -1.
         21   -1    0    0  501  502 -0.00000000000E+00 -0.00000000000E+00 -0.23102864290E+03  0.23102864290E+03  0.00000000000E+00 0. -1.
      99926    2    1    2    0    0  0.00000000000E+00  0.00000000000E+00 -0.85591048007E+01  0.45349818100E+03  0.45341740361E+03 0.  0.
      99925    2    3    3    0    0  0.69484065413E+02  0.78379945639E+02  0.34834996508E+02  0.28467280567E+03  0.26239984391E+03 0.  0.
         25    1    4    4    0    0  0.19173734010E+02  0.52947119982E+02 -0.16518119239E+02  0.13817158157E+03  0.12509000000E+03 0.  0.
         25    1    4    4    0    0  0.50310331403E+02  0.25432825657E+02  0.51353115747E+02  0.14650122410E+03  0.12509000000E+03 0.  0.
         25    1    3    3    0    0 -0.69484065413E+02 -0.78379945639E+02 -0.43394101309E+02  0.16882537532E+03  0.12509000000E+03 0.  0.
<mgrwt>
<rscale>  2 0.45341740E+03</rscale>
<asrwt>0</asrwt>
<pdfrwt beam="1">  1       21 0.32716109E-01 0.45341740E+03</pdfrwt>
<pdfrwt beam="2">  1       21 0.33974800E-01 0.45341740E+03</pdfrwt>
<totfact> 0.69529802E+04</totfact>
</mgrwt>
</event>
<event>
 7    0  0.4685107E-002  0.4531246E+03  0.7546771E-02  0.1026794E+00
         21   -1    0    0  502  501  0.00000000000E+00  0.00000000000E+00  0.10381942652E+03  0.10381942652E+03  0.00000000000E+00 0. -1.
         21   -1    0    0  501  502 -0.00000000000E+00 -0.00000000000E+00 -0.49442079954E+03  0.49442079954E+03  0.00000000000E+00 0. -1.
      99926    2    1    2    0    0  0.00000000000E+00  0.00000000000E+00 -0.39060137301E+03  0.59824022606E+03  0.45312463569E+03 0.  0.
      99925    2    3    3    0    0 -0.69068897710E+02  0.20204915930E+01 -0.36151642153E+03  0.45240457363E+03  0.26306117194E+03 0.  0.
         25    1    4    4    0    0 -0.38050711019E+02 -0.38178090937E+02 -0.19860715206E+03  0.24082718324E+03  0.12509000000E+03 0.  0.
         25    1    3    3    0    0  0.69068897710E+02 -0.20204915930E+01 -0.29084951481E+02  0.14583565243E+03  0.12509000000E+03 0.  0.
         25    1    4    4    0    0 -0.31018186691E+02  0.40198582530E+02 -0.16290926947E+03  0.21157739038E+03  0.12509000000E+03 0.  0.
<mgrwt>
<rscale>  2 0.45312464E+03</rscale>
<asrwt>0</asrwt>
<pdfrwt beam="1">  1       21 0.15267563E-01 0.45312464E+03</pdfrwt>
<pdfrwt beam="2">  1       21 0.72708940E-01 0.45312464E+03</pdfrwt>
<totfact> 0.59665965E+04</totfact>
</mgrwt>
</event>
<event>
 7    0  0.4685107E-002  0.4579041E+03  0.7546771E-02  0.1025391E+00
         21   -1    0    0  502  501  0.00000000000E+00  0.00000000000E+00  0.22084383344E+02  0.22084383344E+02  0.00000000000E+00 0. -1.
         21   -1    0    0  501  502 -0.00000000000E+00 -0.00000000000E+00 -0.23735793169E+04  0.23735793169E+04  0.00000000000E+00 0. -1.
      99926    2    1    2    0    0  0.00000000000E+00  0.00000000000E+00 -0.23514949336E+04  0.23956637003E+04  0.45790407525E+03 0.  0.
      99925    2    3    3    0    0  0.78461320827E+02 -0.33366910830E+02 -0.10641476628E+04  0.10994461131E+04  0.26287255040E+03 0.  0.
         25    1    3    3    0    0 -0.78461320827E+02  0.33366910830E+02 -0.12873472708E+04  0.12962175872E+04  0.12509000000E+03 0.  0.
         25    1    4    4    0    0  0.74363469927E+02 -0.76598712367E+01 -0.64497537452E+03  0.66123319723E+03  0.12509000000E+03 0.  0.
         25    1    4    4    0    0  0.40978509005E+01 -0.25707039593E+02 -0.41917228824E+03  0.43821291583E+03  0.12509000000E+03 0.  0.
<mgrwt>
<rscale>  2 0.45790408E+03</rscale>
<asrwt>0</asrwt>
<pdfrwt beam="1">  1       21 0.32477055E-02 0.45790408E+03</pdfrwt>
<pdfrwt beam="2">  1       21 0.34905556E+00 0.45790408E+03</pdfrwt>
<totfact> 0.80752143E+03</totfact>
</mgrwt>
</event>
<event>
 7    0  0.4685107E-002  0.4171265E+03  0.7546771E-02  0.1038006E+00
         21   -1    0    0  502  501  0.00000000000E+00  0.00000000000E+00  0.30872241743E+03  0.30872241743E+03  0.00000000000E+00 0.  1.
         21   -1    0    0  501  502 -0.00000000000E+00 -0.00000000000E+00 -0.14089880313E+03  0.14089880313E+03  0.00000000000E+00 0.  1.
      99926    2    1    2    0    0  0.00000000000E+00  0.00000000000E+00  0.16782361430E+03  0.44962122056E+03  0.41712645140E+03 0.  0.
      99925    2    3    3    0    0 -0.35051426868E+02  0.53918592648E+02  0.14497206349E+03  0.30712378678E+03  0.26300628140E+03 0.  0.
         25    1    3    3    0    0  0.35051426868E+02 -0.53918592648E+02  0.22851550815E+02  0.14249743378E+03  0.12509000000E+03 0.  0.
         25    1    4    4    0    0 -0.24898637916E+02  0.29668325308E+02  0.28110471157E+02  0.13393229030E+03  0.12509000000E+03 0.  0.
         25    1    4    4    0    0 -0.10152788951E+02  0.24250267341E+02  0.11686159233E+03  0.17319149648E+03  0.12509000000E+03 0.  0.
<mgrwt>
<rscale>  2 0.41712645E+03</rscale>
<asrwt>0</asrwt>
<pdfrwt beam="1">  1       21 0.45400356E-01 0.41712645E+03</pdfrwt>
<pdfrwt beam="2">  1       21 0.20720412E-01 0.41712645E+03</pdfrwt>
<totfact> 0.94290043E+04</totfact>
</mgrwt>
</event>
<event>
 7    0  0.4685107E-002  0.4504092E+03  0.7546771E-02  0.1027600E+00
         21   -1    0    0  502  501  0.00000000000E+00  0.00000000000E+00  0.20188268658E+03  0.20188268658E+03  0.00000000000E+00 0. -1.
         21   -1    0    0  501  502 -0.00000000000E+00 -0.00000000000E+00 -0.25122075403E+03  0.25122075403E+03  0.00000000000E+00 0. -1.
      99926    2    1    2    0    0 -0.14210854715E-13  0.00000000000E+00 -0.49338067448E+02  0.45310344062E+03  0.45040923947E+03 0.  0.
      99925    2    3    3    0    0 -0.78899313450E+02 -0.48840886750E+02 -0.88081852646E+02  0.29260695195E+03  0.26315372254E+03 0.  0.
         25    1    4    4    0    0 -0.78987904788E+02 -0.41648731001E+02 -0.45872725524E+02  0.16039177330E+03  0.12509000000E+03 0.  0.
         25    1    3    3    0    0  0.78899313450E+02  0.48840886750E+02  0.38743785197E+02  0.16049648866E+03  0.12509000000E+03 0.  0.
         25    1    4    4    0    0  0.88591337893E-01 -0.71921557494E+01 -0.42209127121E+02  0.13221517865E+03  0.12509000000E+03 0.  0.
<mgrwt>
<rscale>  2 0.45040924E+03</rscale>
<asrwt>0</asrwt>
<pdfrwt beam="1">  1       21 0.29688631E-01 0.45040924E+03</pdfrwt>
<pdfrwt beam="2">  1       21 0.36944228E-01 0.45040924E+03</pdfrwt>
<totfact> 0.71259394E+04</totfact>
</mgrwt>
</event>
<event>
 7    0  0.4685107E-002  0.4524085E+03  0.7546771E-02  0.1027006E+00
         21   -1    0    0  502  501  0.00000000000E+00  0.00000000000E+00  0.18374466345E+03  0.18374466345E+03  0.00000000000E+00 0.  1.
         21   -1    0    0  501  502 -0.00000000000E+00 -0.00000000000E+00 -0.27847530868E+03  0.27847530868E+03  0.00000000000E+00 0.  1.
      99926    2    1    2    0    0 -0.35527136788E-14  0.17763568394E-14 -0.94730645232E+02  0.46221997214E+03  0.45240845206E+03 0.  0.
      99925    2    3    3    0    0  0.21530443219E+02 -0.96749029400E+01  0.50793636556E+02  0.26887574951E+03  0.26297720705E+03 0.  0.
         25    1    4    4    0    0 -0.26085238025E+02  0.35236810594E+01  0.40029569234E+02  0.13395047773E+03  0.12509000000E+03 0.  0.
         25    1    3    3    0    0 -0.21530443219E+02  0.96749029400E+01 -0.14552428179E+03  0.19334422262E+03  0.12509000000E+03 0.  0.
         25    1    4    4    0    0  0.47615681244E+02 -0.13198583999E+02  0.10764067322E+02  0.13492527178E+03  0.12509000000E+03 0.  0.
<mgrwt>
<rscale>  2 0.45240845E+03</rscale>
<asrwt>0</asrwt>
<pdfrwt beam="1">  1       21 0.27021274E-01 0.45240845E+03</pdfrwt>
<pdfrwt beam="2">  1       21 0.40952251E-01 0.45240845E+03</pdfrwt>
<totfact> 0.69435876E+04</totfact>
</mgrwt>
</event>
<event>
 7    0  0.4685107E-002  0.4097419E+03  0.7546771E-02  0.1040458E+00
         21   -1    0    0  502  501  0.00000000000E+00  0.00000000000E+00  0.11871471124E+03  0.11871471124E+03  0.00000000000E+00 0. -1.
         21   -1    0    0  501  502 -0.00000000000E+00 -0.00000000000E+00 -0.35355430490E+03  0.35355430490E+03  0.00000000000E+00 0. -1.
      99926    2    1    2    0    0  0.00000000000E+00  0.00000000000E+00 -0.23483959366E+03  0.47226901615E+03  0.40974185637E+03 0.  0.
      99925    2    3    3    0    0  0.32847009148E+02  0.44165041904E+02 -0.18753330331E+03  0.32764927288E+03  0.26297495932E+03 0.  0.
         25    1    4    4    0    0  0.97145131517E+01  0.60234415989E+02 -0.11349953720E+03  0.17958900211E+03  0.12509000000E+03 0.  0.
         25    1    4    4    0    0  0.23132495997E+02 -0.16069374085E+02 -0.74033766110E+02  0.14806027076E+03  0.12509000000E+03 0.  0.
         25    1    3    3    0    0 -0.32847009148E+02 -0.44165041904E+02 -0.47306290355E+02  0.14461974327E+03  0.12509000000E+03 0.  0.
<mgrwt>
<rscale>  2 0.40974186E+03</rscale>
<asrwt>0</asrwt>
<pdfrwt beam="1">  1       21 0.17458046E-01 0.40974186E+03</pdfrwt>
<pdfrwt beam="2">  1       21 0.51993279E-01 0.40974186E+03</pdfrwt>
<totfact> 0.98014851E+04</totfact>
</mgrwt>
</event>
<event>
 7    0  0.4685107E-002  0.4618287E+03  0.7546771E-02  0.1024252E+00
         21   -1    0    0  502  501  0.00000000000E+00  0.00000000000E+00  0.18616226337E+03  0.18616226337E+03  0.00000000000E+00 0. -1.
         21   -1    0    0  501  502 -0.00000000000E+00 -0.00000000000E+00 -0.28642452415E+03  0.28642452415E+03  0.00000000000E+00 0. -1.
      99926    2    1    2    0    0  0.00000000000E+00  0.35527136788E-14 -0.10026226078E+03  0.47258678752E+03  0.46182870288E+03 0.  0.
      99925    2    3    3    0    0  0.21155013591E+02  0.30105504586E+02 -0.17786276592E+03  0.32085273563E+03  0.26449468512E+03 0.  0.
         25    1    4    4    0    0  0.76158688026E+00  0.34016993660E+02 -0.45078952094E+02  0.13724924734E+03  0.12509000000E+03 0.  0.
         25    1    4    4    0    0  0.20393426710E+02 -0.39114890746E+01 -0.13278381383E+03  0.18360348830E+03  0.12509000000E+03 0.  0.
         25    1    3    3    0    0 -0.21155013591E+02 -0.30105504586E+02  0.77600505137E+02  0.15173405189E+03  0.12509000000E+03 0.  0.
<mgrwt>
<rscale>  2 0.46182870E+03</rscale>
<asrwt>0</asrwt>
<pdfrwt beam="1">  1       21 0.27376804E-01 0.46182870E+03</pdfrwt>
<pdfrwt beam="2">  1       21 0.42121253E-01 0.46182870E+03</pdfrwt>
<totfact> 0.63721109E+04</totfact>
</mgrwt>
</event>
<event>
 7    0  0.4685107E-002  0.4559155E+03  0.7546771E-02  0.1025973E+00
         21   -1    0    0  502  501  0.00000000000E+00  0.00000000000E+00  0.14164769562E+04  0.14164769562E+04  0.00000000000E+00 0.  1.
         21   -1    0    0  501  502 -0.00000000000E+00 -0.00000000000E+00 -0.36685902274E+02  0.36685902274E+02  0.00000000000E+00 0.  1.
      99926    2    1    2    0    0  0.00000000000E+00  0.00000000000E+00  0.13797910539E+04  0.14531628585E+04  0.45591549738E+03 0.  0.
      99925    2    3    3    0    0 -0.65668115786E+02 -0.86618103503E+02  0.75730674396E+03  0.80899733507E+03  0.26296042748E+03 0.  0.
         25    1    4    4    0    0  0.28862500791E+01 -0.30500631846E+02  0.29337333942E+03  0.32039669687E+03  0.12509000000E+03 0.  0.
         25    1    3    3    0    0  0.65668115786E+02  0.86618103503E+02  0.62248430995E+03  0.64416552339E+03  0.12509000000E+03 0.  0.
         25    1    4    4    0    0 -0.68554365865E+02 -0.56117471658E+02  0.46393340454E+03  0.48860063821E+03  0.12509000000E+03 0.  0.
<mgrwt>
<rscale>  2 0.45591550E+03</rscale>
<asrwt>0</asrwt>
<pdfrwt beam="1">  1       21 0.20830540E+00 0.45591550E+03</pdfrwt>
<pdfrwt beam="2">  1       21 0.53949866E-02 0.45591550E+03</pdfrwt>
<totfact> 0.24772390E+04</totfact>
</mgrwt>
</event>
<event>
 7    0  0.4685107E-002  0.4431595E+03  0.7546771E-02  0.1029782E+00
         21   -1    0    0  502  501  0.00000000000E+00  0.00000000000E+00  0.86488888619E+03  0.86488888619E+03  0.00000000000E+00 0.  1.
         21   -1    0    0  501  502 -0.00000000000E+00 -0.00000000000E+00 -0.56767515264E+02  0.56767515264E+02  0.00000000000E+00 0.  1.
      99926    2    1    2    0    0  0.00000000000E+00  0.00000000000E+00  0.80812137093E+03  0.92165640145E+03  0.44315953357E+03 0.  0.
      99925    2    3    3    0    0  0.65192401274E+02 -0.47594031013E+02  0.64278149956E+03  0.69917039710E+03  0.26297518329E+03 0.  0.
         25    1    3    3    0    0 -0.65192401274E+02  0.47594031013E+02  0.16533987137E+03  0.22248600436E+03  0.12509000000E+03 0.  0.
         25    1    4    4    0    0  0.58880395664E+02 -0.47161908406E+02  0.28798168955E+03  0.32291192021E+03  0.12509000000E+03 0.  0.
         25    1    4    4    0    0  0.63120056101E+01 -0.43212260625E+00  0.35479981001E+03  0.37625847688E+03  0.12509000000E+03 0.  0.
<mgrwt>
<rscale>  2 0.44315953E+03</rscale>
<asrwt>0</asrwt>
<pdfrwt beam="1">  1       21 0.12718953E+00 0.44315953E+03</pdfrwt>
<pdfrwt beam="2">  1       21 0.83481645E-02 0.44315953E+03</pdfrwt>
<totfact> 0.46467095E+04</totfact>
</mgrwt>
</event>
<event>
 7    0  0.4685107E-002  0.4653047E+03  0.7546771E-02  0.1023254E+00
         21   -1    0    0  502  501  0.00000000000E+00  0.00000000000E+00  0.34356392366E+03  0.34356392366E+03  0.00000000000E+00 0.  1.
         21   -1    0    0  501  502 -0.00000000000E+00 -0.00000000000E+00 -0.15754595765E+03  0.15754595765E+03  0.00000000000E+00 0.  1.
      99926    2    1    2    0    0 -0.35527136788E-14  0.00000000000E+00  0.18601796600E+03  0.50110988131E+03  0.46530466307E+03 0.  0.
      99925    2    3    3    0    0 -0.25021812497E+02  0.82375703571E+02  0.20998998445E+03  0.34737630200E+03  0.26298793505E+03 0.  0.
         25    1    3    3    0    0  0.25021812497E+02 -0.82375703571E+02 -0.23972018446E+02  0.15373357931E+03  0.12509000000E+03 0.  0.
         25    1    4    4    0    0 -0.43613925921E+02  0.14794551683E+02  0.98475179657E+02  0.16572845984E+03  0.12509000000E+03 0.  0.
         25    1    4    4    0    0  0.18592113425E+02  0.67581151888E+02  0.11151480479E+03  0.18164784216E+03  0.12509000000E+03 0.  0.
<mgrwt>
<rscale>  2 0.46530466E+03</rscale>
<asrwt>0</asrwt>
<pdfrwt beam="1">  1       21 0.50524106E-01 0.46530466E+03</pdfrwt>
<pdfrwt beam="2">  1       21 0.23168523E-01 0.46530466E+03</pdfrwt>
<totfact> 0.60122008E+04</totfact>
</mgrwt>
</event>
<event>
 7    0  0.4685107E-002  0.4554541E+03  0.7546771E-02  0.1026108E+00
         21   -1    0    0  502  501  0.00000000000E+00  0.00000000000E+00  0.26783872800E+03  0.26783872800E+03  0.00000000000E+00 0. -1.
         21   -1    0    0  501  502 -0.00000000000E+00 -0.00000000000E+00 -0.19362255186E+03  0.19362255186E+03  0.00000000000E+00 0. -1.
      99926    2    1    2    0    0 -0.71054273576E-14  0.00000000000E+00  0.74216176144E+02  0.46146127986E+03  0.45545413820E+03 0.  0.
      99925    2    3    3    0    0 -0.33875600745E+02 -0.10717641491E+03  0.29903451135E+02  0.28754904355E+03  0.26297508593E+03 0.  0.
         25    1    4    4    0    0  0.26641990142E+00 -0.34370180169E+02  0.46744248953E+02  0.13789094667E+03  0.12509000000E+03 0.  0.
         25    1    3    3    0    0  0.33875600745E+02  0.10717641491E+03  0.44312725009E+02  0.17391223630E+03  0.12509000000E+03 0.  0.
         25    1    4    4    0    0 -0.34142020647E+02 -0.72806234738E+02 -0.16840797818E+02  0.14965809688E+03  0.12509000000E+03 0.  0.
<mgrwt>
<rscale>  2 0.45545414E+03</rscale>
<asrwt>0</asrwt>
<pdfrwt beam="1">  1       21 0.39388049E-01 0.45545414E+03</pdfrwt>
<pdfrwt beam="2">  1       21 0.28473904E-01 0.45545414E+03</pdfrwt>
<totfact> 0.67828174E+04</totfact>
</mgrwt>
</event>
<event>
 7    0  0.4685107E-002  0.4563556E+03  0.7546771E-02  0.1025844E+00
         21   -1    0    0  502  501  0.00000000000E+00  0.00000000000E+00  0.80607960629E+03  0.80607960629E+03  0.00000000000E+00 0.  1.
         21   -1    0    0  501  502 -0.00000000000E+00 -0.00000000000E+00 -0.64590541441E+02  0.64590541441E+02  0.00000000000E+00 0.  1.
      99926    2    1    2    0    0  0.00000000000E+00  0.00000000000E+00  0.74148906485E+03  0.87067014773E+03  0.45635564296E+03 0.  0.
      99925    2    3    3    0    0  0.38230589702E+02  0.51351317601E+02  0.28517463820E+03  0.39320925941E+03  0.26304070333E+03 0.  0.
         25    1    3    3    0    0 -0.38230589702E+02 -0.51351317601E+02  0.45631442665E+03  0.47746088832E+03  0.12509000000E+03 0.  0.
         25    1    4    4    0    0  0.32513811672E+02  0.30949699904E+01  0.94915829994E+02  0.16038469276E+03  0.12509000000E+03 0.  0.
         25    1    4    4    0    0  0.57167780293E+01  0.48256347610E+02  0.19025880821E+03  0.23282456665E+03  0.12509000000E+03 0.  0.
<mgrwt>
<rscale>  2 0.45635564E+03</rscale>
<asrwt>0</asrwt>
<pdfrwt beam="1">  1       21 0.11854111E+00 0.45635564E+03</pdfrwt>
<pdfrwt beam="2">  1       21 0.94986095E-02 0.45635564E+03</pdfrwt>
<totfact> 0.44056418E+04</totfact>
</mgrwt>
</event>
<event>
 7    0  0.4685107E-002  0.4566963E+03  0.7546771E-02  0.1025744E+00
         21   -1    0    0  502  501  0.00000000000E+00  0.00000000000E+00  0.16581312068E+03  0.16581312068E+03  0.00000000000E+00 0. -1.
         21   -1    0    0  501  502 -0.00000000000E+00 -0.00000000000E+00 -0.31446770310E+03  0.31446770310E+03  0.00000000000E+00 0. -1.
      99926    2    1    2    0    0  0.00000000000E+00 -0.35527136788E-14 -0.14865458242E+03  0.48028082377E+03  0.45669627195E+03 0.  0.
      99925    2    3    3    0    0  0.11041305151E+03 -0.25693431485E+02 -0.11426750866E+03  0.30799857481E+03  0.26259258212E+03 0.  0.
         25    1    4    4    0    0  0.62409622732E+02 -0.15647746904E+01 -0.17330031790E+02  0.14087316150E+03  0.12509000000E+03 0.  0.
         25    1    4    4    0    0  0.48003428778E+02 -0.24128656795E+02 -0.96937476869E+02  0.16712541331E+03  0.12509000000E+03 0.  0.
         25    1    3    3    0    0 -0.11041305151E+03  0.25693431485E+02 -0.34387073759E+02  0.17228224896E+03  0.12509000000E+03 0.  0.
<mgrwt>
<rscale>  2 0.45669627E+03</rscale>
<asrwt>0</asrwt>
<pdfrwt beam="1">  1       21 0.24384283E-01 0.45669627E+03</pdfrwt>
<pdfrwt beam="2">  1       21 0.46245250E-01 0.45669627E+03</pdfrwt>
<totfact> 0.65789416E+04</totfact>
</mgrwt>
</event>
<event>
 7    0  0.4685107E-002  0.4371288E+03  0.7546771E-02  0.1031631E+00
         21   -1    0    0  502  501  0.00000000000E+00  0.00000000000E+00  0.34566412433E+03  0.34566412433E+03  0.00000000000E+00 0. -1.
         21   -1    0    0  501  502 -0.00000000000E+00 -0.00000000000E+00 -0.13819891346E+03  0.13819891346E+03  0.00000000000E+00 0. -1.
      99926    2    1    2    0    0  0.00000000000E+00 -0.14210854715E-13  0.20746521087E+03  0.48386303779E+03  0.43712884327E+03 0.  0.
      99925    2    3    3    0    0 -0.23570136747E+02 -0.87377412250E+02  0.99378302411E+02  0.29539380582E+03  0.26304199287E+03 0.  0.
         25    1    4    4    0    0  0.27268413843E+02 -0.52662889960E+02  0.56621160490E+02  0.14956741051E+03  0.12509000000E+03 0.  0.
         25    1    3    3    0    0  0.23570136747E+02  0.87377412250E+02  0.10808690845E+03  0.18846923196E+03  0.12509000000E+03 0.  0.
         25    1    4    4    0    0 -0.50838550590E+02 -0.34714522290E+02  0.42757141921E+02  0.14582639531E+03  0.12509000000E+03 0.  0.
<mgrwt>
<rscale>  2 0.43712884E+03</rscale>
<asrwt>0</asrwt>
<pdfrwt beam="1">  1       21 0.50832960E-01 0.43712884E+03</pdfrwt>
<pdfrwt beam="2">  1       21 0.20323370E-01 0.43712884E+03</pdfrwt>
<totfact> 0.76743098E+04</totfact>
</mgrwt>
</event>
<event>
 7    0  0.4685107E-002  0.4554022E+03  0.7546771E-02  0.1026123E+00
         21   -1    0    0  502  501  0.00000000000E+00  0.00000000000E+00  0.23562008156E+03  0.23562008156E+03  0.00000000000E+00 0.  1.
         21   -1    0    0  501  502 -0.00000000000E+00 -0.00000000000E+00 -0.22004826744E+03  0.22004826744E+03  0.00000000000E+00 0.  1.
      99926    2    1    2    0    0 -0.14210854715E-13  0.00000000000E+00  0.15571814116E+02  0.45566834900E+03  0.45540219904E+03 0.  0.
      99925    2    3    3    0    0 -0.95375561933E+02 -0.81119419912E+01 -0.53947024135E+02  0.28349785679E+03  0.26133972522E+03 0.  0.
         25    1    4    4    0    0 -0.15894289998E+02  0.93624996088E+01 -0.53625641372E+01  0.12655650931E+03  0.12509000000E+03 0.  0.
         25    1    4    4    0    0 -0.79481271935E+02 -0.17474441600E+02 -0.48584459998E+02  0.15694134749E+03  0.12509000000E+03 0.  0.
         25    1    3    3    0    0  0.95375561933E+02  0.81119419912E+01  0.69518838251E+02  0.17217049221E+03  0.12509000000E+03 0.  0.
<mgrwt>
<rscale>  2 0.45540220E+03</rscale>
<asrwt>0</asrwt>
<pdfrwt beam="1">  1       21 0.34650012E-01 0.45540220E+03</pdfrwt>
<pdfrwt beam="2">  1       21 0.32360039E-01 0.45540220E+03</pdfrwt>
<totfact> 0.68277498E+04</totfact>
</mgrwt>
</event>
<event>
 7    0  0.4685107E-002  0.4536292E+03  0.7546771E-02  0.1026645E+00
         21   -1    0    0  502  501  0.00000000000E+00  0.00000000000E+00  0.62314817061E+03  0.62314817061E+03  0.00000000000E+00 0.  1.
         21   -1    0    0  501  502 -0.00000000000E+00 -0.00000000000E+00 -0.82556380324E+02  0.82556380324E+02  0.00000000000E+00 0.  1.
      99926    2    1    2    0    0  0.17763568394E-14  0.00000000000E+00  0.54059179028E+03  0.70570455093E+03  0.45362917618E+03 0.  0.
      99925    2    3    3    0    0  0.14432804208E+02  0.10608371104E+03  0.29047758267E+03  0.40626059201E+03  0.26307486197E+03 0.  0.
         25    1    4    4    0    0 -0.74524005069E+01  0.14502793115E+02  0.14912414040E+03  0.19532379945E+03  0.12509000000E+03 0.  0.
         25    1    3    3    0    0 -0.14432804208E+02 -0.10608371104E+03  0.25011420761E+03  0.29944395892E+03  0.12509000000E+03 0.  0.
         25    1    4    4    0    0  0.21885204715E+02  0.91580917925E+02  0.14135344227E+03  0.21093679256E+03  0.12509000000E+03 0.  0.
<mgrwt>
<rscale>  2 0.45362918E+03</rscale>
<asrwt>0</asrwt>
<pdfrwt beam="1">  1       21 0.91639435E-01 0.45362918E+03</pdfrwt>
<pdfrwt beam="2">  1       21 0.12140644E-01 0.45362918E+03</pdfrwt>
<totfact> 0.53165477E+04</totfact>
</mgrwt>
</event>
<event>
 7    0  0.4685107E-002  0.4614678E+03  0.7546771E-02  0.1024356E+00
         21   -1    0    0  502  501  0.00000000000E+00  0.00000000000E+00  0.62115991608E+02  0.62115991608E+02  0.00000000000E+00 0. -1.
         21   -1    0    0  501  502 -0.00000000000E+00 -0.00000000000E+00 -0.85707604599E+03  0.85707604599E+03  0.00000000000E+00 0. -1.
      99926    2    1    2    0    0  0.71054273576E-14 -0.14210854715E-13 -0.79496005439E+03  0.91919203760E+03  0.46146778211E+03 0.  0.
      99925    2    3    3    0    0  0.57993992757E+02 -0.75225943216E+02 -0.64068104490E+03  0.69902899212E+03  0.26295833282E+03 0.  0.
         25    1    3    3    0    0 -0.57993992757E+02  0.75225943216E+02 -0.15427900949E+03  0.22016304548E+03  0.12509000000E+03 0.  0.
         25    1    4    4    0    0  0.61520039093E+01 -0.70548903971E+01 -0.24376276616E+03  0.27414487574E+03  0.12509000000E+03 0.  0.
         25    1    4    4    0    0  0.51841988848E+02 -0.68171052819E+02 -0.39691827874E+03  0.42488411638E+03  0.12509000000E+03 0.  0.
<mgrwt>
<rscale>  2 0.46146778E+03</rscale>
<asrwt>0</asrwt>
<pdfrwt beam="1">  1       21 0.91347051E-02 0.46146778E+03</pdfrwt>
<pdfrwt beam="2">  1       21 0.12604059E+00 0.46146778E+03</pdfrwt>
<totfact> 0.40333389E+04</totfact>
</mgrwt>
</event>
<event>
 7    0  0.4685107E-002  0.4555172E+03  0.7546771E-02  0.1026089E+00
         21   -1    0    0  502  501  0.00000000000E+00  0.00000000000E+00  0.45779467028E+03  0.45779467028E+03  0.00000000000E+00 0.  1.
         21   -1    0    0  501  502 -0.00000000000E+00 -0.00000000000E+00 -0.11331274107E+03  0.11331274107E+03  0.00000000000E+00 0.  1.
      99926    2    1    2    0    0  0.00000000000E+00  0.00000000000E+00  0.34448192921E+03  0.57110741135E+03  0.45551715198E+03 0.  0.
      99925    2    3    3    0    0 -0.76448894136E+02  0.36624715390E+02  0.31300402431E+03  0.41675661029E+03  0.26177996446E+03 0.  0.
         25    1    3    3    0    0  0.76448894136E+02 -0.36624715390E+02  0.31477904899E+02  0.15435080106E+03  0.12509000000E+03 0.  0.
         25    1    4    4    0    0 -0.12993396914E+02  0.42599666775E+02  0.12720464713E+03  0.18388064152E+03  0.12509000000E+03 0.  0.
         25    1    4    4    0    0 -0.63455497222E+02 -0.59749513851E+01  0.18579937717E+03  0.23287596877E+03  0.12509000000E+03 0.  0.
<mgrwt>
<rscale>  2 0.45551715E+03</rscale>
<asrwt>0</asrwt>
<pdfrwt beam="1">  1       21 0.67322745E-01 0.45551715E+03</pdfrwt>
<pdfrwt beam="2">  1       21 0.16663639E-01 0.45551715E+03</pdfrwt>
<totfact> 0.60246137E+04</totfact>
</mgrwt>
</event>
<event>
 7    0  0.4685107E-002  0.4529378E+03  0.7546771E-02  0.1026850E+00
         21   -1    0    0  502  501  0.00000000000E+00  0.00000000000E+00  0.14368523369E+03  0.14368523369E+03  0.00000000000E+00 0.  1.
         21   -1    0    0  501  502 -0.00000000000E+00 -0.00000000000E+00 -0.35694798241E+03  0.35694798241E+03  0.00000000000E+00 0.  1.
      99926    2    1    2    0    0  0.00000000000E+00  0.00000000000E+00 -0.21326274872E+03  0.50063321610E+03  0.45293776291E+03 0.  0.
      99925    2    3    3    0    0 -0.10946607091E+03 -0.19561634223E+02 -0.13593515879E+03  0.31626255010E+03  0.26301740434E+03 0.  0.
         25    1    3    3    0    0  0.10946607091E+03  0.19561634223E+02 -0.77327589932E+02  0.18437066599E+03  0.12509000000E+03 0.  0.
         25    1    4    4    0    0 -0.87174857445E+02 -0.20523113538E+02 -0.45943670117E+02  0.16055834729E+03  0.12509000000E+03 0.  0.
         25    1    4    4    0    0 -0.22291213468E+02  0.96147931568E+00 -0.89991488671E+02  0.15570420281E+03  0.12509000000E+03 0.  0.
<mgrwt>
<rscale>  2 0.45293776E+03</rscale>
<asrwt>0</asrwt>
<pdfrwt beam="1">  1       21 0.21130181E-01 0.45293776E+03</pdfrwt>
<pdfrwt beam="2">  1       21 0.52492350E-01 0.45293776E+03</pdfrwt>
<totfact> 0.66304958E+04</totfact>
</mgrwt>
</event>
<event>
 7    0  0.4685107E-002  0.4399872E+03  0.7546771E-02  0.1030751E+00
         21   -1    0    0  502  501  0.00000000000E+00  0.00000000000E+00  0.14318164911E+03  0.14318164911E+03  0.00000000000E+00 0. -1.
         21   -1    0    0  501  502 -0.00000000000E+00 -0.00000000000E+00 -0.33801254039E+03  0.33801254039E+03  0.00000000000E+00 0. -1.
      99926    2    1    2    0    0  0.35527136788E-14  0.00000000000E+00 -0.19483089127E+03  0.48119418950E+03  0.43998724051E+03 0.  0.
      99925    2    3    3    0    0 -0.31131009819E+02 -0.65908686500E+02 -0.19648882292E+03  0.33640692637E+03  0.26315141620E+03 0.  0.
         25    1    4    4    0    0  0.77315454928E+01 -0.43621777514E+02 -0.13730269428E+03  0.19095071151E+03  0.12509000000E+03 0.  0.
         25    1    4    4    0    0 -0.38862555312E+02 -0.22286908986E+02 -0.59186128633E+02  0.14545621486E+03  0.12509000000E+03 0.  0.
         25    1    3    3    0    0  0.31131009819E+02  0.65908686500E+02  0.16579316431E+01  0.14478726313E+03  0.12509000000E+03 0.  0.
<mgrwt>
<rscale>  2 0.43998724E+03</rscale>
<asrwt>0</asrwt>
<pdfrwt beam="1">  1       21 0.21056125E-01 0.43998724E+03</pdfrwt>
<pdfrwt beam="2">  1       21 0.49707726E-01 0.43998724E+03</pdfrwt>
<totfact> 0.75181760E+04</totfact>
</mgrwt>
</event>
<event>
 7    0  0.4685107E-002  0.4535926E+03  0.7546771E-02  0.1026656E+00
         21   -1    0    0  502  501  0.00000000000E+00  0.00000000000E+00  0.23809841614E+03  0.23809841614E+03  0.00000000000E+00 0. -1.
         21   -1    0    0  501  502 -0.00000000000E+00 -0.00000000000E+00 -0.21603065254E+03  0.21603065254E+03  0.00000000000E+00 0. -1.
      99926    2    1    2    0    0  0.00000000000E+00  0.00000000000E+00  0.22067763607E+02  0.45412906868E+03  0.45359257581E+03 0.  0.
      99925    2    3    3    0    0 -0.92957863132E+02  0.60507505827E+02 -0.19233663393E+01  0.28523441217E+03  0.26277870532E+03 0.  0.
         25    1    3    3    0    0  0.92957863132E+02 -0.60507505827E+02  0.23991129947E+02  0.16889465650E+03  0.12509000000E+03 0.  0.
         25    1    4    4    0    0 -0.13607723484E+02  0.49576468275E+02 -0.15253164752E+02  0.13609982910E+03  0.12509000000E+03 0.  0.
         25    1    4    4    0    0 -0.79350139648E+02  0.10931037552E+02  0.13329798413E+02  0.14913458308E+03  0.12509000000E+03 0.  0.
<mgrwt>
<rscale>  2 0.45359258E+03</rscale>
<asrwt>0</asrwt>
<pdfrwt beam="1">  1       21 0.35014473E-01 0.45359258E+03</pdfrwt>
<pdfrwt beam="2">  1       21 0.31769213E-01 0.45359258E+03</pdfrwt>
<totfact> 0.69385577E+04</totfact>
</mgrwt>
</event>
<event>
 7    0  0.4685107E-002  0.4345921E+03  0.7546771E-02  0.1032419E+00
         21   -1    0    0  502  501  0.00000000000E+00  0.00000000000E+00  0.44234516512E+03  0.44234516512E+03  0.00000000000E+00 0. -1.
         21   -1    0    0  501  502 -0.00000000000E+00 -0.00000000000E+00 -0.10674375546E+03  0.10674375546E+03  0.00000000000E+00 0. -1.
      99926    2    1    2    0    0  0.35527136788E-14  0.14210854715E-13  0.33560140966E+03  0.54908892057E+03  0.43459214965E+03 0.  0.
      99925    2    3    3    0    0 -0.21133701403E+02 -0.90077885859E+02  0.21981078378E+03  0.35514141222E+03  0.26315011524E+03 0.  0.
         25    1    3    3    0    0  0.21133701403E+02  0.90077885859E+02  0.11579062587E+03  0.19394750835E+03  0.12509000000E+03 0.  0.
         25    1    4    4    0    0 -0.26218459014E+02 -0.70435782131E+02  0.15469650823E+03  0.21266669875E+03  0.12509000000E+03 0.  0.
         25    1    4    4    0    0  0.50847576109E+01 -0.19642103727E+02  0.65114275554E+02  0.14247471347E+03  0.12509000000E+03 0.  0.
<mgrwt>
<rscale>  2 0.43459215E+03</rscale>
<asrwt>0</asrwt>
<pdfrwt beam="1">  1       21 0.65050759E-01 0.43459215E+03</pdfrwt>
<pdfrwt beam="2">  1       21 0.15697611E-01 0.43459215E+03</pdfrwt>
<totfact> 0.73022203E+04</totfact>
</mgrwt>
</event>
<event>
 7    0  0.4685107E-002  0.4392026E+03  0.7546771E-02  0.1030992E+00
         21   -1    0    0  502  501  0.00000000000E+00  0.00000000000E+00  0.14455538223E+03  0.14455538223E+03  0.00000000000E+00 0. -1.
         21   -1    0    0  501  502 -0.00000000000E+00 -0.00000000000E+00 -0.33360734196E+03  0.33360734196E+03  0.00000000000E+00 0. -1.
      99926    2    1    2    0    0  0.00000000000E+00  0.00000000000E+00 -0.18905195973E+03  0.47816272419E+03  0.43920262674E+03 0.  0.
      99925    2    3    3    0    0 -0.19356324635E+02 -0.84397246434E+01 -0.22486265211E+03  0.34634538829E+03  0.26257574036E+03 0.  0.
         25    1    4    4    0    0 -0.42826893756E+02 -0.23598789127E+02 -0.10040213461E+03  0.16768763345E+03  0.12509000000E+03 0.  0.
         25    1    4    4    0    0  0.23470569121E+02  0.15159064483E+02 -0.12446051749E+03  0.17865775484E+03  0.12509000000E+03 0.  0.
         25    1    3    3    0    0  0.19356324635E+02  0.84397246434E+01  0.35810692378E+02  0.13181733590E+03  0.12509000000E+03 0.  0.
<mgrwt>
<rscale>  2 0.43920263E+03</rscale>
<asrwt>0</asrwt>
<pdfrwt beam="1">  1       21 0.21258145E-01 0.43920263E+03</pdfrwt>
<pdfrwt beam="2">  1       21 0.49059903E-01 0.43920263E+03</pdfrwt>
<totfact> 0.75917119E+04</totfact>
</mgrwt>
</event>
<event>
 7    0  0.4685107E-002  0.4574556E+03  0.7546771E-02  0.1025522E+00
         21   -1    0    0  502  501  0.00000000000E+00  0.00000000000E+00  0.11726971891E+03  0.11726971891E+03  0.00000000000E+00 0. -1.
         21   -1    0    0  501  502 -0.00000000000E+00 -0.00000000000E+00 -0.44612025167E+03  0.44612025167E+03  0.00000000000E+00 0. -1.
      99926    2    1    2    0    0  0.00000000000E+00  0.00000000000E+00 -0.32885053276E+03  0.56338997057E+03  0.45745555636E+03 0.  0.
      99925    2    3    3    0    0 -0.76648523985E+02 -0.76012962505E+02 -0.15592938168E+03  0.32422015791E+03  0.26296724516E+03 0.  0.
         25    1    4    4    0    0 -0.67249590618E+02 -0.20641767103E+02 -0.10550876648E+03  0.17812410811E+03  0.12509000000E+03 0.  0.
         25    1    4    4    0    0 -0.93989333663E+01 -0.55371195402E+02 -0.50420615202E+02  0.14609604980E+03  0.12509000000E+03 0.  0.
         25    1    3    3    0    0  0.76648523985E+02  0.76012962505E+02 -0.17292115108E+03  0.23916981266E+03  0.12509000000E+03 0.  0.
<mgrwt>
<rscale>  2 0.45745556E+03</rscale>
<asrwt>0</asrwt>
<pdfrwt beam="1">  1       21 0.17245547E-01 0.45745556E+03</pdfrwt>
<pdfrwt beam="2">  1       21 0.65605919E-01 0.45745556E+03</pdfrwt>
<totfact> 0.59819977E+04</totfact>
</mgrwt>
</event>
<event>
 7    0  0.4685107E-002  0.4556794E+03  0.7546771E-02  0.1026042E+00
         21   -1    0    0  502  501  0.00000000000E+00  0.00000000000E+00  0.44859203892E+03  0.44859203892E+03  0.00000000000E+00 0. -1.
         21   -1    0    0  501  502 -0.00000000000E+00 -0.00000000000E+00 -0.11571967933E+03  0.11571967933E+03  0.00000000000E+00 0. -1.
      99926    2    1    2    0    0 -0.66613381478E-15  0.00000000000E+00  0.33287235960E+03  0.56431171825E+03  0.45567939120E+03 0.  0.
      99925    2    3    3    0    0  0.17212597146E+01  0.11171726400E+03  0.18187311972E+03  0.33863055298E+03  0.26288611589E+03 0.  0.
         25    1    3    3    0    0 -0.17212597146E+01 -0.11171726400E+03  0.15099923988E+03  0.22568116526E+03  0.12509000000E+03 0.  0.
         25    1    4    4    0    0 -0.77970740306E+01  0.13991736569E+02  0.70431707191E+02  0.14444617175E+03  0.12509000000E+03 0.  0.
         25    1    4    4    0    0  0.95183337452E+01  0.97725527431E+02  0.11144141253E+03  0.19418438123E+03  0.12509000000E+03 0.  0.
<mgrwt>
<rscale>  2 0.45567939E+03</rscale>
<asrwt>0</asrwt>
<pdfrwt beam="1">  1       21 0.65969417E-01 0.45567939E+03</pdfrwt>
<pdfrwt beam="2">  1       21 0.17017600E-01 0.45567939E+03</pdfrwt>
<totfact> 0.60604270E+04</totfact>
</mgrwt>
</event>
<event>
 7    0  0.4685107E-002  0.4547243E+03  0.7546771E-02  0.1026322E+00
         21   -1    0    0  502  501  0.00000000000E+00  0.00000000000E+00  0.95297331735E+02  0.95297331735E+02  0.00000000000E+00 0.  1.
         21   -1    0    0  501  502 -0.00000000000E+00 -0.00000000000E+00 -0.54244492853E+03  0.54244492853E+03  0.00000000000E+00 0.  1.
      99926    2    1    2    0    0  0.00000000000E+00  0.00000000000E+00 -0.44714759680E+03  0.63774226027E+03  0.45472433101E+03 0.  0.
      99925    2    3    3    0    0  0.41254678416E+02 -0.97613775711E+02 -0.23159339486E+03  0.36692586532E+03  0.26413763912E+03 0.  0.
         25    1    4    4    0    0 -0.22219672767E+02 -0.48080142249E+02 -0.11045909206E+03  0.17508321751E+03  0.12509000000E+03 0.  0.
         25    1    3    3    0    0 -0.41254678416E+02  0.97613775711E+02 -0.21555420194E+03  0.27081639495E+03  0.12509000000E+03 0.  0.
         25    1    4    4    0    0  0.63474351183E+02 -0.49533633463E+02 -0.12113430280E+03  0.19184264781E+03  0.12509000000E+03 0.  0.
<mgrwt>
<rscale>  2 0.45472433E+03</rscale>
<asrwt>0</asrwt>
<pdfrwt beam="1">  1       21 0.14014314E-01 0.45472433E+03</pdfrwt>
<pdfrwt beam="2">  1       21 0.79771312E-01 0.45472433E+03</pdfrwt>
<totfact> 0.56536139E+04</totfact>
</mgrwt>
</event>
<event>
 7    0  0.4685107E-002  0.4542950E+03  0.7546771E-02  0.1026449E+00
         21   -1    0    0  502  501  0.00000000000E+00  0.00000000000E+00  0.15115330983E+04  0.15115330983E+04  0.00000000000E+00 0. -1.
         21   -1    0    0  501  502 -0.00000000000E+00 -0.00000000000E+00 -0.34134876321E+02  0.34134876321E+02  0.00000000000E+00 0. -1.
      99926    2    1    2    0    0  0.14210854715E-13  0.00000000000E+00  0.14773982220E+04  0.15456679747E+04  0.45429503791E+03 0.  0.
      99925    2    3    3    0    0  0.67514502274E+02 -0.10435238299E+02  0.63598934890E+03  0.69227269574E+03  0.26474880763E+03 0.  0.
         25    1    4    4    0    0  0.92870294972E+01 -0.13917312880E+02  0.21578532261E+03  0.24998150745E+03  0.12509000000E+03 0.  0.
         25    1    4    4    0    0  0.58227472777E+02  0.34820745809E+01  0.42020402629E+03  0.44229118829E+03  0.12509000000E+03 0.  0.
         25    1    3    3    0    0 -0.67514502274E+02  0.10435238299E+02  0.84140887311E+03  0.85339527891E+03  0.12509000000E+03 0.  0.
<mgrwt>
<rscale>  2 0.45429504E+03</rscale>
<asrwt>0</asrwt>
<pdfrwt beam="1">  1       21 0.22228423E+00 0.45429504E+03</pdfrwt>
<pdfrwt beam="2">  1       21 0.50198358E-02 0.45429504E+03</pdfrwt>
<totfact> 0.22806379E+04</totfact>
</mgrwt>
</event>
<event>
 7    0  0.4685107E-002  0.4466211E+03  0.7546771E-02  0.1028734E+00
         21   -1    0    0  502  501  0.00000000000E+00  0.00000000000E+00  0.22517547793E+03  0.22517547793E+03  0.00000000000E+00 0. -1.
         21   -1    0    0  501  502 -0.00000000000E+00 -0.00000000000E+00 -0.22146106282E+03  0.22146106282E+03  0.00000000000E+00 0. -1.
      99926    2    1    2    0    0  0.00000000000E+00  0.00000000000E+00  0.37144151094E+01  0.44663654076E+03  0.44662109518E+03 0.  0.
      99925    2    3    3    0    0 -0.56399491381E+02 -0.75773873349E+02 -0.43662104590E+02  0.28288482251E+03  0.26304916065E+03 0.  0.
         25    1    3    3    0    0  0.56399491381E+02  0.75773873349E+02  0.47376519700E+02  0.16375171825E+03  0.12509000000E+03 0.  0.
         25    1    4    4    0    0 -0.17221057977E+02 -0.14001063524E+02  0.12098885469E+02  0.12761851647E+03  0.12509000000E+03 0.  0.
         25    1    4    4    0    0 -0.39178433404E+02 -0.61772809825E+02 -0.55760990059E+02  0.15526630604E+03  0.12509000000E+03 0.  0.
<mgrwt>
<rscale>  2 0.44662110E+03</rscale>
<asrwt>0</asrwt>
<pdfrwt beam="1">  1       21 0.33114041E-01 0.44662110E+03</pdfrwt>
<pdfrwt beam="2">  1       21 0.32567803E-01 0.44662110E+03</pdfrwt>
<totfact> 0.73986929E+04</totfact>
</mgrwt>
</event>
<event>
 7    0  0.4685107E-002  0.4572203E+03  0.7546771E-02  0.1025591E+00
         21   -1    0    0  502  501  0.00000000000E+00  0.00000000000E+00  0.27578399081E+03  0.27578399081E+03  0.00000000000E+00 0.  1.
         21   -1    0    0  501  502 -0.00000000000E+00 -0.00000000000E+00 -0.18950554545E+03  0.18950554545E+03  0.00000000000E+00 0.  1.
      99926    2    1    2    0    0  0.00000000000E+00  0.00000000000E+00  0.86278445356E+02  0.46528953625E+03  0.45722027778E+03 0.  0.
      99925    2    3    3    0    0  0.64868322556E+02  0.58008781181E+02  0.13163105220E+03  0.30630121903E+03  0.26252768408E+03 0.  0.
         25    1    4    4    0    0 -0.83796713258E+01  0.25360292734E+02  0.57308897813E+02  0.14016126857E+03  0.12509000000E+03 0.  0.
         25    1    3    3    0    0 -0.64868322556E+02 -0.58008781181E+02 -0.45352606849E+02  0.15898831722E+03  0.12509000000E+03 0.  0.
         25    1    4    4    0    0  0.73247993882E+02  0.32648488447E+02  0.74322154391E+02  0.16613995046E+03  0.12509000000E+03 0.  0.
<mgrwt>
<rscale>  2 0.45722028E+03</rscale>
<asrwt>0</asrwt>
<pdfrwt beam="1">  1       21 0.40556470E-01 0.45722028E+03</pdfrwt>
<pdfrwt beam="2">  1       21 0.27868462E-01 0.45722028E+03</pdfrwt>
<totfact> 0.66605338E+04</totfact>
</mgrwt>
</event>
<event>
 7    0  0.4685107E-002  0.4547930E+03  0.7546771E-02  0.1026302E+00
         21   -1    0    0  502  501  0.00000000000E+00  0.00000000000E+00  0.28716862657E+03  0.28716862657E+03  0.00000000000E+00 0. -1.
         21   -1    0    0  501  502 -0.00000000000E+00 -0.00000000000E+00 -0.18006553163E+03  0.18006553163E+03  0.00000000000E+00 0. -1.
      99926    2    1    2    0    0  0.00000000000E+00 -0.35527136788E-14  0.10710309494E+03  0.46723415819E+03  0.45479301406E+03 0.  0.
      99925    2    3    3    0    0 -0.56207488310E+02  0.13533213896E+02  0.16713729235E+03  0.31692100980E+03  0.26298597366E+03 0.  0.
         25    1    3    3    0    0  0.56207488310E+02 -0.13533213896E+02 -0.60034197409E+02  0.15031314839E+03  0.12509000000E+03 0.  0.
         25    1    4    4    0    0 -0.37763596542E+02  0.46134077892E+02  0.90719011611E+02  0.16562575142E+03  0.12509000000E+03 0.  0.
         25    1    4    4    0    0 -0.18443891768E+02 -0.32600863997E+02  0.76418280740E+02  0.15129525838E+03  0.12509000000E+03 0.  0.
<mgrwt>
<rscale>  2 0.45479301E+03</rscale>
<asrwt>0</asrwt>
<pdfrwt beam="1">  1       21 0.42230681E-01 0.45479301E+03</pdfrwt>
<pdfrwt beam="2">  1       21 0.26480225E-01 0.45479301E+03</pdfrwt>
<totfact> 0.67753344E+04</totfact>
</mgrwt>
</event>
<event>
 7    0  0.4685107E-002  0.4533320E+03  0.7546771E-02  0.1026733E+00
         21   -1    0    0  502  501  0.00000000000E+00  0.00000000000E+00  0.75438648242E+02  0.75438648242E+02  0.00000000000E+00 0. -1.
         21   -1    0    0  501  502 -0.00000000000E+00 -0.00000000000E+00 -0.68104971038E+03  0.68104971038E+03  0.00000000000E+00 0. -1.
      99926    2    1    2    0    0  0.00000000000E+00  0.71054273576E-14 -0.60561106214E+03  0.75648835863E+03  0.45333197345E+03 0.  0.
      99925    2    3    3    0    0  0.75927897601E+02 -0.56693659638E+02 -0.47986644487E+03  0.55539526190E+03  0.26308340000E+03 0.  0.
         25    1    3    3    0    0 -0.75927897601E+02  0.56693659638E+02 -0.12574461727E+03  0.20109309673E+03  0.12509000000E+03 0.  0.
         25    1    4    4    0    0  0.44838519980E+02 -0.69642536677E+02 -0.25190186713E+03  0.29319385149E+03  0.12509000000E+03 0.  0.
         25    1    4    4    0    0  0.31089377622E+02  0.12948877039E+02 -0.22796457774E+03  0.26220141041E+03  0.12509000000E+03 0.  0.
<mgrwt>
<rscale>  2 0.45333197E+03</rscale>
<asrwt>0</asrwt>
<pdfrwt beam="1">  1       21 0.11093919E-01 0.45333197E+03</pdfrwt>
<pdfrwt beam="2">  1       21 0.10015437E+00 0.45333197E+03</pdfrwt>
<totfact> 0.50600167E+04</totfact>
</mgrwt>
</event>
<event>
 7    0  0.4685107E-002  0.4491248E+03  0.7546771E-02  0.1027983E+00
         21   -1    0    0  502  501  0.00000000000E+00  0.00000000000E+00  0.43775361630E+03  0.43775361630E+03  0.00000000000E+00 0. -1.
         21   -1    0    0  501  502 -0.00000000000E+00 -0.00000000000E+00 -0.11519783107E+03  0.11519783107E+03  0.00000000000E+00 0. -1.
      99926    2    1    2    0    0  0.00000000000E+00  0.00000000000E+00  0.32255578524E+03  0.55295144737E+03  0.44912478061E+03 0.  0.
      99925    2    3    3    0    0 -0.42578532965E+02  0.98107499311E+02  0.18997825968E+03  0.34161682816E+03  0.26300628366E+03 0.  0.
         25    1    4    4    0    0 -0.30327871393E+02  0.83454881556E+02  0.13221658092E+03  0.20251723237E+03  0.12509000000E+03 0.  0.
         25    1    3    3    0    0  0.42578532965E+02 -0.98107499311E+02  0.13257752556E+03  0.21133461921E+03  0.12509000000E+03 0.  0.
         25    1    4    4    0    0 -0.12250661572E+02  0.14652617755E+02  0.57761678757E+02  0.13909959579E+03  0.12509000000E+03 0.  0.
<mgrwt>
<rscale>  2 0.44912478E+03</rscale>
<asrwt>0</asrwt>
<pdfrwt beam="1">  1       21 0.64375531E-01 0.44912478E+03</pdfrwt>
<pdfrwt beam="2">  1       21 0.16940858E-01 0.44912478E+03</pdfrwt>
<totfact> 0.64623645E+04</totfact>
</mgrwt>
</event>
<event>
 7    0  0.4685107E-002  0.4550219E+03  0.7546771E-02  0.1026235E+00
         21   -1    0    0  502  501  0.00000000000E+00  0.00000000000E+00  0.20517641421E+03  0.20517641421E+03  0.00000000000E+00 0. -1.
         21   -1    0    0  501  502 -0.00000000000E+00 -0.00000000000E+00 -0.25227670203E+03  0.25227670203E+03  0.00000000000E+00 0. -1.
      99926    2    1    2    0    0  0.00000000000E+00  0.35527136788E-14 -0.47100287819E+02  0.45745311623E+03  0.45502188567E+03 0.  0.
      99925    2    3    3    0    0  0.11184283923E+03 -0.17216876578E+02 -0.26970807031E+02  0.28757685060E+03  0.26299767878E+03 0.  0.
         25    1    4    4    0    0  0.68056423647E+02  0.21297340884E+02 -0.38600108377E+02  0.14907290161E+03  0.12509000000E+03 0.  0.
         25    1    4    4    0    0  0.43786415585E+02 -0.38514217462E+02  0.11629301346E+02  0.13850394899E+03  0.12509000000E+03 0.  0.
         25    1    3    3    0    0 -0.11184283923E+03  0.17216876578E+02 -0.20129480789E+02  0.16987626563E+03  0.12509000000E+03 0.  0.
<mgrwt>
<rscale>  2 0.45502189E+03</rscale>
<asrwt>0</asrwt>
<pdfrwt beam="1">  1       21 0.30173002E-01 0.45502189E+03</pdfrwt>
<pdfrwt beam="2">  1       21 0.37099515E-01 0.45502189E+03</pdfrwt>
<totfact> 0.68354493E+04</totfact>
</mgrwt>
</event>
<event>
 7    0  0.4685107E-002  0.4501154E+03  0.7546771E-02  0.1027688E+00
         21   -1    0    0  502  501  0.00000000000E+00  0.00000000000E+00  0.47805420218E+02  0.47805420218E+02  0.00000000000E+00 0.  1.
         21   -1    0    0  501  502 -0.00000000000E+00 -0.00000000000E+00 -0.10595234150E+04  0.10595234150E+04  0.00000000000E+00 0.  1.
      99926    2    1    2    0    0  0.00000000000E+00  0.17763568394E-14 -0.10117179947E+04  0.11073288352E+04  0.45011537225E+03 0.  0.
      99925    2    3    3    0    0 -0.41891832910E+02  0.15206062626E+02 -0.39576601842E+03  0.47722527603E+03  0.26292027831E+03 0.  0.
         25    1    4    4    0    0  0.10535911800E+02  0.10357752804E+01 -0.23484573543E+03  0.26629327032E+03  0.12509000000E+03 0.  0.
         25    1    4    4    0    0 -0.52427744709E+02  0.14170287346E+02 -0.16092028299E+03  0.21093200572E+03  0.12509000000E+03 0.  0.
         25    1    3    3    0    0  0.41891832910E+02 -0.15206062626E+02 -0.61595197633E+03  0.63010355915E+03  0.12509000000E+03 0.  0.
<mgrwt>
<rscale>  2 0.45011537E+03</rscale>
<asrwt>0</asrwt>
<pdfrwt beam="1">  1       21 0.70302098E-02 0.45011537E+03</pdfrwt>
<pdfrwt beam="2">  1       21 0.15581225E+00 0.45011537E+03</pdfrwt>
<totfact> 0.36614077E+04</totfact>
</mgrwt>
</event>
<event>
 7    0  0.4685107E-002  0.4586415E+03  0.7546771E-02  0.1025176E+00
         21   -1    0    0  502  501  0.00000000000E+00  0.00000000000E+00  0.53011198494E+03  0.53011198494E+03  0.00000000000E+00 0.  1.
         21   -1    0    0  501  502 -0.00000000000E+00 -0.00000000000E+00 -0.99201709346E+02  0.99201709346E+02  0.00000000000E+00 0.  1.
      99926    2    1    2    0    0  0.00000000000E+00  0.00000000000E+00  0.43091027560E+03  0.62931369429E+03  0.45864153781E+03 0.  0.
      99925    2    3    3    0    0 -0.48039714422E+02 -0.64198833501E+02  0.38632222289E+03  0.47418501567E+03  0.26301571209E+03 0.  0.
         25    1    4    4    0    0 -0.29162295005E+02 -0.34137175395E+01  0.13529702750E+03  0.18658747725E+03  0.12509000000E+03 0.  0.
         25    1    3    3    0    0  0.48039714422E+02  0.64198833501E+02  0.44588052711E+02  0.15512867862E+03  0.12509000000E+03 0.  0.
         25    1    4    4    0    0 -0.18877419417E+02 -0.60785115961E+02  0.25102519539E+03  0.28759753842E+03  0.12509000000E+03 0.  0.
<mgrwt>
<rscale>  2 0.45864154E+03</rscale>
<asrwt>0</asrwt>
<pdfrwt beam="1">  1       21 0.77957643E-01 0.45864154E+03</pdfrwt>
<pdfrwt beam="2">  1       21 0.14588487E-01 0.45864154E+03</pdfrwt>
<totfact> 0.55302204E+04</totfact>
</mgrwt>
</event>
<event>
 7    0  0.4685107E-002  0.4555382E+03  0.7546771E-02  0.1026083E+00
         21   -1    0    0  502  501  0.00000000000E+00  0.00000000000E+00  0.48329007294E+03  0.48329007294E+03  0.00000000000E+00 0.  1.
         21   -1    0    0  501  502 -0.00000000000E+00 -0.00000000000E+00 -0.10734500144E+03  0.10734500144E+03  0.00000000000E+00 0.  1.
      99926    2    1    2    0    0  0.00000000000E+00  0.14210854715E-13  0.37594507150E+03  0.59063507438E+03  0.45553824681E+03 0.  0.
      99925    2    3    3    0    0  0.45800198696E+02  0.10365955776E+03  0.24903606535E+03  0.37945655735E+03  0.26291701153E+03 0.  0.
         25    1    3    3    0    0 -0.45800198696E+02 -0.10365955776E+03  0.12690900614E+03  0.21117851703E+03  0.12509000000E+03 0.  0.
         25    1    4    4    0    0  0.24683415873E+02  0.33844765678E+02  0.70477539401E+02  0.14956380191E+03  0.12509000000E+03 0.  0.
         25    1    4    4    0    0  0.21116782822E+02  0.69814792084E+02  0.17855852595E+03  0.22989275543E+03  0.12509000000E+03 0.  0.
<mgrwt>
<rscale>  2 0.45553825E+03</rscale>
<asrwt>0</asrwt>
<pdfrwt beam="1">  1       21 0.71072069E-01 0.45553825E+03</pdfrwt>
<pdfrwt beam="2">  1       21 0.15786030E-01 0.45553825E+03</pdfrwt>
<totfact> 0.59007020E+04</totfact>
</mgrwt>
</event>
<event>
 7    0  0.4685107E-002  0.4744773E+03  0.7546771E-02  0.1020664E+00
         21   -1    0    0  502  501  0.00000000000E+00  0.00000000000E+00  0.11553184033E+04  0.11553184033E+04  0.00000000000E+00 0. -1.
         21   -1    0    0  501  502 -0.00000000000E+00 -0.00000000000E+00 -0.48715734035E+02  0.48715734035E+02  0.00000000000E+00 0. -1.
      99926    2    1    2    0    0  0.00000000000E+00  0.00000000000E+00  0.11066026693E+04  0.12040341374E+04  0.47447732954E+03 0.  0.
      99925    2    3    3    0    0 -0.89448393772E+02  0.57379142488E+02  0.87804501971E+03  0.92264563649E+03  0.26271378486E+03 0.  0.
         25    1    4    4    0    0 -0.61447540863E+02  0.38425817471E+02  0.57820144714E+03  0.59600064203E+03  0.12509000000E+03 0.  0.
         25    1    3    3    0    0  0.89448393772E+02 -0.57379142488E+02  0.22855764958E+03  0.28138850087E+03  0.12509000000E+03 0.  0.
         25    1    4    4    0    0 -0.28000852910E+02  0.18953325017E+02  0.29984357257E+03  0.32664499446E+03  0.12509000000E+03 0.  0.
<mgrwt>
<rscale>  2 0.47447733E+03</rscale>
<asrwt>0</asrwt>
<pdfrwt beam="1">  1       21 0.16989975E+00 0.47447733E+03</pdfrwt>
<pdfrwt beam="2">  1       21 0.71640793E-02 0.47447733E+03</pdfrwt>
<totfact> 0.27597298E+04</totfact>
</mgrwt>
</event>
<event>
 7    0  0.4685107E-002  0.4546266E+03  0.7546771E-02  0.1026351E+00
         21   -1    0    0  502  501  0.00000000000E+00  0.00000000000E+00  0.79526987915E+03  0.79526987915E+03  0.00000000000E+00 0. -1.
         21   -1    0    0  501  502 -0.00000000000E+00 -0.00000000000E+00 -0.64973325288E+02  0.64973325288E+02  0.00000000000E+00 0. -1.
      99926    2    1    2    0    0  0.00000000000E+00 -0.17763568394E-14  0.73029655386E+03  0.86024320444E+03  0.45462656566E+03 0.  0.
      99925    2    3    3    0    0 -0.99917635379E+02 -0.13111383437E+02  0.55559116126E+03  0.62291447769E+03  0.26303130196E+03 0.  0.
         25    1    4    4    0    0 -0.73604718388E+02  0.25373371225E+02  0.26739652800E+03  0.30530292141E+03  0.12509000000E+03 0.  0.
         25    1    3    3    0    0  0.99917635379E+02  0.13111383437E+02  0.17470539260E+03  0.23732872675E+03  0.12509000000E+03 0.  0.
         25    1    4    4    0    0 -0.26312916992E+02 -0.38484754662E+02  0.28819463326E+03  0.31761155628E+03  0.12509000000E+03 0.  0.
<mgrwt>
<rscale>  2 0.45462657E+03</rscale>
<asrwt>0</asrwt>
<pdfrwt beam="1">  1       21 0.11695145E+00 0.45462657E+03</pdfrwt>
<pdfrwt beam="2">  1       21 0.95549013E-02 0.45462657E+03</pdfrwt>
<totfact> 0.45116555E+04</totfact>
</mgrwt>
</event>
<event>
 7    0  0.4685107E-002  0.4400234E+03  0.7546771E-02  0.1030740E+00
         21   -1    0    0  502  501  0.00000000000E+00  0.00000000000E+00  0.52161071707E+02  0.52161071707E+02  0.00000000000E+00 0.  1.
         21   -1    0    0  501  502 -0.00000000000E+00 -0.00000000000E+00 -0.92799384943E+03  0.92799384943E+03  0.00000000000E+00 0.  1.
      99926    2    1    2    0    0 -0.71054273576E-14  0.35527136788E-14 -0.87583277772E+03  0.98015492113E+03  0.44002342539E+03 0.  0.
      99925    2    3    3    0    0 -0.36186148324E+02  0.29428251356E+02 -0.75212390633E+03  0.79814708540E+03  0.26300749067E+03 0.  0.
         25    1    4    4    0    0 -0.42136885650E+01  0.52730343932E+02 -0.39341050067E+03  0.41619415479E+03  0.12509000000E+03 0.  0.
         25    1    3    3    0    0  0.36186148324E+02 -0.29428251356E+02 -0.12370887139E+03  0.18200783573E+03  0.12509000000E+03 0.  0.
         25    1    4    4    0    0 -0.31972459759E+02 -0.23302092576E+02 -0.35871340566E+03  0.38195293061E+03  0.12509000000E+03 0.  0.
<mgrwt>
<rscale>  2 0.44002343E+03</rscale>
<asrwt>0</asrwt>
<pdfrwt beam="1">  1       21 0.76707469E-02 0.44002343E+03</pdfrwt>
<pdfrwt beam="2">  1       21 0.13646967E+00 0.44002343E+03</pdfrwt>
<totfact> 0.44982810E+04</totfact>
</mgrwt>
</event>
<event>
 7    0  0.4685107E-002  0.4571303E+03  0.7546771E-02  0.1025617E+00
         21   -1    0    0  502  501  0.00000000000E+00  0.00000000000E+00  0.15746147811E+03  0.15746147811E+03  0.00000000000E+00 0. -1.
         21   -1    0    0  501  502 -0.00000000000E+00 -0.00000000000E+00 -0.33177650623E+03  0.33177650623E+03  0.00000000000E+00 0. -1.
      99926    2    1    2    0    0  0.00000000000E+00  0.00000000000E+00 -0.17431502812E+03  0.48923798434E+03  0.45713026184E+03 0.  0.
      99925    2    3    3    0    0 -0.21120053229E+02  0.64725429239E+02 -0.20895565481E+03  0.34266745880E+03  0.26291269237E+03 0.  0.
         25    1    3    3    0    0  0.21120053229E+02 -0.64725429239E+02  0.34640626683E+02  0.14657052553E+03  0.12509000000E+03 0.  0.
         25    1    4    4    0    0 -0.38557549501E+02  0.46474214839E+02 -0.14166574890E+03  0.19840168795E+03  0.12509000000E+03 0.  0.
         25    1    4    4    0    0  0.17437496273E+02  0.18251214400E+02 -0.67289905904E+02  0.14426577085E+03  0.12509000000E+03 0.  0.
<mgrwt>
<rscale>  2 0.45713026E+03</rscale>
<asrwt>0</asrwt>
<pdfrwt beam="1">  1       21 0.23156100E-01 0.45713026E+03</pdfrwt>
<pdfrwt beam="2">  1       21 0.48790662E-01 0.45713026E+03</pdfrwt>
<totfact> 0.64928549E+04</totfact>
</mgrwt>
</event>
<event>
 7    0  0.4685107E-002  0.4809925E+03  0.7546771E-02  0.1018863E+00
         21   -1    0    0  502  501  0.00000000000E+00  0.00000000000E+00  0.51278210086E+03  0.51278210086E+03  0.00000000000E+00 0.  1.
         21   -1    0    0  501  502 -0.00000000000E+00 -0.00000000000E+00 -0.11279342036E+03  0.11279342036E+03  0.00000000000E+00 0.  1.
      99926    2    1    2    0    0  0.00000000000E+00 -0.14210854715E-13  0.39998868050E+03  0.62557552122E+03  0.48099250329E+03 0.  0.
      99925    2    3    3    0    0 -0.76115491508E+02 -0.97397211845E+02  0.32033074003E+03  0.43251418252E+03  0.26301511391E+03 0.  0.
         25    1    3    3    0    0  0.76115491508E+02  0.97397211845E+02  0.79657940464E+02  0.19306133870E+03  0.12509000000E+03 0.  0.
         25    1    4    4    0    0 -0.24687482849E+02 -0.79419884933E+02  0.20319660437E+03  0.25269222002E+03  0.12509000000E+03 0.  0.
         25    1    4    4    0    0 -0.51428008659E+02 -0.17977326912E+02  0.11713413566E+03  0.17982196249E+03  0.12509000000E+03 0.  0.
<mgrwt>
<rscale>  2 0.48099250E+03</rscale>
<asrwt>0</asrwt>
<pdfrwt beam="1">  1       21 0.75409131E-01 0.48099250E+03</pdfrwt>
<pdfrwt beam="2">  1       21 0.16587268E-01 0.48099250E+03</pdfrwt>
<totfact> 0.46767029E+04</totfact>
</mgrwt>
</event>
<event>
 7    0  0.4685107E-002  0.4475424E+03  0.7546771E-02  0.1028457E+00
         21   -1    0    0  502  501  0.00000000000E+00  0.00000000000E+00  0.29467378195E+03  0.29467378195E+03  0.00000000000E+00 0.  1.
         21   -1    0    0  501  502 -0.00000000000E+00 -0.00000000000E+00 -0.16992873514E+03  0.16992873514E+03  0.00000000000E+00 0.  1.
      99926    2    1    2    0    0 -0.71054273576E-14 -0.14210854715E-13  0.12474504681E+03  0.46460251709E+03  0.44754236915E+03 0.  0.
      99925    2    3    3    0    0  0.55064785399E+02  0.89045985941E+02  0.61760330322E+02  0.28974285675E+03  0.26301191311E+03 0.  0.
         25    1    4    4    0    0  0.17187470894E+02  0.80052136823E+02  0.13433988434E+02  0.15010574243E+03  0.12509000000E+03 0.  0.
         25    1    4    4    0    0  0.37877314505E+02  0.89938491183E+01  0.48326341888E+02  0.13963711432E+03  0.12509000000E+03 0.  0.
         25    1    3    3    0    0 -0.55064785399E+02 -0.89045985941E+02  0.62984716485E+02  0.17485966034E+03  0.12509000000E+03 0.  0.
<mgrwt>
<rscale>  2 0.44754237E+03</rscale>
<asrwt>0</asrwt>
<pdfrwt beam="1">  1       21 0.43334380E-01 0.44754237E+03</pdfrwt>
<pdfrwt beam="2">  1       21 0.24989520E-01 0.44754237E+03</pdfrwt>
<totfact> 0.72005925E+04</totfact>
</mgrwt>
</event>
<event>
 7    0  0.4685107E-002  0.4562711E+03  0.7546771E-02  0.1025868E+00
         21   -1    0    0  502  501  0.00000000000E+00  0.00000000000E+00  0.21719207714E+03  0.21719207714E+03  0.00000000000E+00 0.  1.
         21   -1    0    0  501  502 -0.00000000000E+00 -0.00000000000E+00 -0.23963042825E+03  0.23963042825E+03  0.00000000000E+00 0.  1.
      99926    2    1    2    0    0  0.00000000000E+00  0.00000000000E+00 -0.22438351113E+02  0.45682250540E+03  0.45627110563E+03 0.  0.
      99925    2    3    3    0    0 -0.63069641974E+02 -0.73606633781E+02 -0.75015900619E+02  0.29006632684E+03  0.26289802651E+03 0.  0.
         25    1    4    4    0    0 -0.13404354612E+02  0.13854826753E+01 -0.26908682365E+02  0.12865916824E+03  0.12509000000E+03 0.  0.
         25    1    3    3    0    0  0.63069641974E+02  0.73606633781E+02  0.52577549506E+02  0.16675617856E+03  0.12509000000E+03 0.  0.
         25    1    4    4    0    0 -0.49665287363E+02 -0.74992116456E+02 -0.48107218254E+02  0.16140715860E+03  0.12509000000E+03 0.  0.
<mgrwt>
<rscale>  2 0.45627111E+03</rscale>
<asrwt>0</asrwt>
<pdfrwt beam="1">  1       21 0.31940012E-01 0.45627111E+03</pdfrwt>
<pdfrwt beam="2">  1       21 0.35239768E-01 0.45627111E+03</pdfrwt>
<totfact> 0.67723053E+04</totfact>
</mgrwt>
</event>
<event>
 7    0  0.4685107E-002  0.4493484E+03  0.7546771E-02  0.1027917E+00
         21   -1    0    0  502  501  0.00000000000E+00  0.00000000000E+00  0.35370838467E+02  0.35370838467E+02  0.00000000000E+00 0.  1.
         21   -1    0    0  501  502 -0.00000000000E+00 -0.00000000000E+00 -0.14271218922E+04  0.14271218922E+04  0.00000000000E+00 0.  1.
      99926    2    1    2    0    0  0.00000000000E+00  0.00000000000E+00 -0.13917510538E+04  0.14624927307E+04  0.44934840791E+03 0.  0.
      99925    2    3    3    0    0 -0.12952565739E+02  0.97221591310E+02 -0.10259357158E+04  0.10636341387E+04  0.26297087558E+03 0.  0.
         25    1    3    3    0    0  0.12952565739E+02 -0.97221591310E+02 -0.36581533799E+03  0.39885859196E+03  0.12509000000E+03 0.  0.
         25    1    4    4    0    0 -0.35468542711E+02  0.78848119730E+02 -0.53697447813E+03  0.55808972555E+03  0.12509000000E+03 0.  0.
         25    1    4    4    0    0  0.22515976972E+02  0.18373471580E+02 -0.48896123765E+03  0.50554441319E+03  0.12509000000E+03 0.  0.
<mgrwt>
<rscale>  2 0.44934841E+03</rscale>
<asrwt>0</asrwt>
<pdfrwt beam="1">  1       21 0.52015928E-02 0.44934841E+03</pdfrwt>
<pdfrwt beam="2">  1       21 0.20987091E+00 0.44934841E+03</pdfrwt>
<totfact> 0.25828692E+04</totfact>
</mgrwt>
</event>
<event>
 7    0  0.4685107E-002  0.4642533E+03  0.7546771E-02  0.1023555E+00
         21   -1    0    0  502  501  0.00000000000E+00  0.00000000000E+00  0.17262159228E+03  0.17262159228E+03  0.00000000000E+00 0. -1.
         21   -1    0    0  501  502 -0.00000000000E+00 -0.00000000000E+00 -0.31214394160E+03  0.31214394160E+03  0.00000000000E+00 0. -1.
      99926    2    1    2    0    0  0.00000000000E+00  0.00000000000E+00 -0.13952234932E+03  0.48476553389E+03  0.46425331112E+03 0.  0.
      99925    2    3    3    0    0 -0.61505743300E+02  0.64348898590E+01  0.22385376595E+02  0.27102273500E+03  0.26292176314E+03 0.  0.
         25    1    4    4    0    0 -0.23127531633E+02  0.14671880810E+01 -0.28794812167E+02  0.13043651585E+03  0.12509000000E+03 0.  0.
         25    1    4    4    0    0 -0.38378211667E+02  0.49677017780E+01  0.51180188762E+02  0.14058621914E+03  0.12509000000E+03 0.  0.
         25    1    3    3    0    0  0.61505743300E+02 -0.64348898590E+01 -0.16190772592E+03  0.21374279889E+03  0.12509000000E+03 0.  0.
<mgrwt>
<rscale>  2 0.46425331E+03</rscale>
<asrwt>0</asrwt>
<pdfrwt beam="1">  1       21 0.25385528E-01 0.46425331E+03</pdfrwt>
<pdfrwt beam="2">  1       21 0.45903520E-01 0.46425331E+03</pdfrwt>
<totfact> 0.61697361E+04</totfact>
</mgrwt>
</event>
<event>
 7    0  0.4685107E-002  0.4938020E+03  0.7546771E-02  0.1015409E+00
         21   -1    0    0  502  501  0.00000000000E+00  0.00000000000E+00  0.17463337836E+03  0.17463337836E+03  0.00000000000E+00 0.  1.
         21   -1    0    0  501  502 -0.00000000000E+00 -0.00000000000E+00 -0.34907471696E+03  0.34907471696E+03  0.00000000000E+00 0.  1.
      99926    2    1    2    0    0 -0.14210854715E-13  0.35527136788E-14 -0.17444133860E+03  0.52370809532E+03  0.49380197295E+03 0.  0.
      99925    2    3    3    0    0 -0.11773104001E+03  0.24224837221E+02 -0.19551600223E+03  0.34895372466E+03  0.26285881059E+03 0.  0.
         25    1    4    4    0    0 -0.48940409424E+02  0.13889116583E+02 -0.47751190113E+02  0.14323322063E+03  0.12509000000E+03 0.  0.
         25    1    3    3    0    0  0.11773104001E+03 -0.24224837221E+02  0.21074663630E+02  0.17475437066E+03  0.12509000000E+03 0.  0.
         25    1    4    4    0    0 -0.68790630582E+02  0.10335720638E+02 -0.14776481212E+03  0.20572050403E+03  0.12509000000E+03 0.  0.
<mgrwt>
<rscale>  2 0.49380197E+03</rscale>
<asrwt>0</asrwt>
<pdfrwt beam="1">  1       21 0.25681379E-01 0.49380197E+03</pdfrwt>
<pdfrwt beam="2">  1       21 0.51334517E-01 0.49380197E+03</pdfrwt>
<totfact> 0.47300843E+04</totfact>
</mgrwt>
</event>
<event>
 7    0  0.4685107E-002  0.4584606E+03  0.7546771E-02  0.1025229E+00
         21   -1    0    0  502  501  0.00000000000E+00  0.00000000000E+00  0.74926489937E+02  0.74926489937E+02  0.00000000000E+00 0. -1.
         21   -1    0    0  501  502 -0.00000000000E+00 -0.00000000000E+00 -0.70130766444E+03  0.70130766444E+03  0.00000000000E+00 0. -1.
      99926    2    1    2    0    0  0.00000000000E+00  0.00000000000E+00 -0.62638117450E+03  0.77623415438E+03  0.45846056172E+03 0.  0.
      99925    2    3    3    0    0 -0.24105973562E+02 -0.77534109475E+02 -0.25193768501E+03  0.37318568209E+03  0.26306333856E+03 0.  0.
         25    1    4    4    0    0  0.27005404542E+02 -0.27584103585E+02 -0.11080246343E+03  0.17150763437E+03  0.12509000000E+03 0.  0.
         25    1    3    3    0    0  0.24105973562E+02  0.77534109475E+02 -0.37444348949E+03  0.40304847229E+03  0.12509000000E+03 0.  0.
         25    1    4    4    0    0 -0.51111378104E+02 -0.49950005889E+02 -0.14113522158E+03  0.20167804772E+03  0.12509000000E+03 0.  0.
<mgrwt>
<rscale>  2 0.45846056E+03</rscale>
<asrwt>0</asrwt>
<pdfrwt beam="1">  1       21 0.11018601E-01 0.45846056E+03</pdfrwt>
<pdfrwt beam="2">  1       21 0.10313348E+00 0.45846056E+03</pdfrwt>
<totfact> 0.47628831E+04</totfact>
</mgrwt>
</event>
<event>
 7    0  0.4685107E-002  0.4529007E+03  0.7546771E-02  0.1026861E+00
         21   -1    0    0  502  501  0.00000000000E+00  0.00000000000E+00  0.51874558749E+02  0.51874558749E+02  0.00000000000E+00 0.  1.
         21   -1    0    0  501  502 -0.00000000000E+00 -0.00000000000E+00 -0.98853406457E+03  0.98853406457E+03  0.00000000000E+00 0.  1.
      99926    2    1    2    0    0  0.71054273576E-14  0.00000000000E+00 -0.93665950582E+03  0.10404086233E+04  0.45290073265E+03 0.  0.
      99925    2    3    3    0    0 -0.37161154736E+02 -0.23158880509E+02 -0.35576657835E+03  0.44458869544E+03  0.26300563621E+03 0.  0.
         25    1    3    3    0    0  0.37161154736E+02  0.23158880509E+02 -0.58089292747E+03  0.59581992788E+03  0.12509000000E+03 0.  0.
         25    1    4    4    0    0 -0.45539997522E+02 -0.74368554048E+01 -0.23280234732E+03  0.26827903237E+03  0.12509000000E+03 0.  0.
         25    1    4    4    0    0  0.83788427858E+01 -0.15722025104E+02 -0.12296423103E+03  0.17630966307E+03  0.12509000000E+03 0.  0.
<mgrwt>
<rscale>  2 0.45290073E+03</rscale>
<asrwt>0</asrwt>
<pdfrwt beam="1">  1       21 0.76286118E-02 0.45290073E+03</pdfrwt>
<pdfrwt beam="2">  1       21 0.14537265E+00 0.45290073E+03</pdfrwt>
<totfact> 0.38254346E+04</totfact>
</mgrwt>
</event>
<event>
 7    0  0.4685107E-002  0.4641417E+03  0.7546771E-02  0.1023587E+00
         21   -1    0    0  502  501  0.00000000000E+00  0.00000000000E+00  0.14040442853E+03  0.14040442853E+03  0.00000000000E+00 0.  1.
         21   -1    0    0  501  502 -0.00000000000E+00 -0.00000000000E+00 -0.38358386651E+03  0.38358386651E+03  0.00000000000E+00 0.  1.
      99926    2    1    2    0    0 -0.71054273576E-14  0.00000000000E+00 -0.24317943798E+03  0.52398829504E+03  0.46414167480E+03 0.  0.
      99925    2    3    3    0    0 -0.45366164204E+02  0.11277635548E+03 -0.15130097650E+03  0.32684429947E+03  0.26298025666E+03 0.  0.
         25    1    4    4    0    0  0.97347092716E+01  0.57559339052E+02 -0.10112852062E+03  0.17112079902E+03  0.12509000000E+03 0.  0.
         25    1    3    3    0    0  0.45366164204E+02 -0.11277635548E+03 -0.91878461473E+02  0.19714399558E+03  0.12509000000E+03 0.  0.
         25    1    4    4    0    0 -0.55100873475E+02  0.55217016423E+02 -0.50172455886E+02  0.15572350044E+03  0.12509000000E+03 0.  0.
<mgrwt>
<rscale>  2 0.46414167E+03</rscale>
<asrwt>0</asrwt>
<pdfrwt beam="1">  1       21 0.20647710E-01 0.46414167E+03</pdfrwt>
<pdfrwt beam="2">  1       21 0.56409392E-01 0.46414167E+03</pdfrwt>
<totfact> 0.59204203E+04</totfact>
</mgrwt>
</event>
<event>
 7    0  0.4685107E-002  0.4586812E+03  0.7546771E-02  0.1025164E+00
         21   -1    0    0  502  501  0.00000000000E+00  0.00000000000E+00  0.58444690298E+02  0.58444690298E+02  0.00000000000E+00 0.  1.
         21   -1    0    0  501  502 -0.00000000000E+00 -0.00000000000E+00 -0.89994660273E+03  0.89994660273E+03  0.00000000000E+00 0.  1.
      99926    2    1    2    0    0  0.00000000000E+00  0.00000000000E+00 -0.84150191243E+03  0.95839129302E+03  0.45868115497E+03 0.  0.
      99925    2    3    3    0    0 -0.25053529326E+02  0.70313250318E+02 -0.34000949426E+03  0.43617123780E+03  0.26280650675E+03 0.  0.
         25    1    4    4    0    0  0.12959745835E+02  0.34812469196E+02 -0.11712138933E+03  0.17534192585E+03  0.12509000000E+03 0.  0.
         25    1    3    3    0    0  0.25053529326E+02 -0.70313250318E+02 -0.50149241816E+03  0.52222005522E+03  0.12509000000E+03 0.  0.
         25    1    4    4    0    0 -0.38013275161E+02  0.35500781121E+02 -0.22288810494E+03  0.26082931195E+03  0.12509000000E+03 0.  0.
<mgrwt>
<rscale>  2 0.45868115E+03</rscale>
<asrwt>0</asrwt>
<pdfrwt beam="1">  1       21 0.85948082E-02 0.45868115E+03</pdfrwt>
<pdfrwt beam="2">  1       21 0.13234508E+00 0.45868115E+03</pdfrwt>
<totfact> 0.39649299E+04</totfact>
</mgrwt>
</event>
<event>
 7    0  0.4685107E-002  0.4020117E+03  0.7546771E-02  0.1043085E+00
         21   -1    0    0  502  501  0.00000000000E+00  0.00000000000E+00  0.60720748104E+02  0.60720748104E+02  0.00000000000E+00 0.  1.
         21   -1    0    0  501  502 -0.00000000000E+00 -0.00000000000E+00 -0.66539619258E+03  0.66539619258E+03  0.00000000000E+00 0.  1.
      99926    2    1    2    0    0 -0.35527136788E-14  0.00000000000E+00 -0.60467544447E+03  0.72611694068E+03  0.40201171425E+03 0.  0.
      99925    2    3    3    0    0  0.31634066206E+02 -0.22589220620E+02 -0.34819637712E+03  0.43812387284E+03  0.26306049472E+03 0.  0.
         25    1    4    4    0    0 -0.10152404086E+01 -0.43488958011E+02 -0.14497192043E+03  0.19635856487E+03  0.12509000000E+03 0.  0.
         25    1    4    4    0    0  0.32649306614E+02  0.20899737391E+02 -0.20322445669E+03  0.24176530798E+03  0.12509000000E+03 0.  0.
         25    1    3    3    0    0 -0.31634066206E+02  0.22589220620E+02 -0.25647906735E+03  0.28799306784E+03  0.12509000000E+03 0.  0.
<mgrwt>
<rscale>  2 0.40201171E+03</rscale>
<asrwt>0</asrwt>
<pdfrwt beam="1">  1       21 0.89295218E-02 0.40201171E+03</pdfrwt>
<pdfrwt beam="2">  1       21 0.97852381E-01 0.40201171E+03</pdfrwt>
<totfact> 0.79984926E+04</totfact>
</mgrwt>
</event>
<event>
 7    0  0.4685107E-002  0.4599982E+03  0.7546771E-02  0.1024782E+00
         21   -1    0    0  502  501  0.00000000000E+00  0.00000000000E+00  0.16413646952E+04  0.16413646952E+04  0.00000000000E+00 0.  1.
         21   -1    0    0  501  502 -0.00000000000E+00 -0.00000000000E+00 -0.32229031016E+02  0.32229031016E+02  0.00000000000E+00 0.  1.
      99926    2    1    2    0    0  0.00000000000E+00  0.00000000000E+00  0.16091356642E+04  0.16735937262E+04  0.45999823334E+03 0.  0.
      99925    2    3    3    0    0 -0.66463909801E+02  0.85139578334E+02  0.11790226473E+04  0.12128216410E+04  0.26301279620E+03 0.  0.
         25    1    4    4    0    0 -0.73794187558E+02  0.48908661888E+02  0.67726855002E+03  0.69439026222E+03  0.12509000000E+03 0.  0.
         25    1    4    4    0    0  0.73302777572E+01  0.36230916447E+02  0.50175409728E+03  0.51843137879E+03  0.12509000000E+03 0.  0.
         25    1    3    3    0    0  0.66463909801E+02 -0.85139578334E+02  0.43011301685E+03  0.46077208517E+03  0.12509000000E+03 0.  0.
<mgrwt>
<rscale>  2 0.45999823E+03</rscale>
<asrwt>0</asrwt>
<pdfrwt beam="1">  1       21 0.24137710E+00 0.45999823E+03</pdfrwt>
<pdfrwt beam="2">  1       21 0.47395645E-02 0.45999823E+03</pdfrwt>
<totfact> 0.19066051E+04</totfact>
</mgrwt>
</event>
<event>
 7    0  0.4685107E-002  0.4592430E+03  0.7546771E-02  0.1025001E+00
         21   -1    0    0  502  501  0.00000000000E+00  0.00000000000E+00  0.79678322454E+02  0.79678322454E+02  0.00000000000E+00 0.  1.
         21   -1    0    0  501  502 -0.00000000000E+00 -0.00000000000E+00 -0.66173626478E+03  0.66173626478E+03  0.00000000000E+00 0.  1.
      99926    2    1    2    0    0  0.00000000000E+00  0.00000000000E+00 -0.58205794232E+03  0.74141458723E+03  0.45924300968E+03 0.  0.
      99925    2    3    3    0    0 -0.10027528393E+03  0.21676477940E+02 -0.45627026143E+03  0.53648764653E+03  0.26289054974E+03 0.  0.
         25    1    3    3    0    0  0.10027528393E+03 -0.21676477940E+02 -0.12578768089E+03  0.20492694071E+03  0.12509000000E+03 0.  0.
         25    1    4    4    0    0 -0.36611589222E+02  0.45058997598E+02 -0.25648685694E+03  0.29121081301E+03  0.12509000000E+03 0.  0.
         25    1    4    4    0    0 -0.63663694707E+02 -0.23382519658E+02 -0.19978340449E+03  0.24527683352E+03  0.12509000000E+03 0.  0.
<mgrwt>
<rscale>  2 0.45924301E+03</rscale>
<asrwt>0</asrwt>
<pdfrwt beam="1">  1       21 0.11717400E-01 0.45924301E+03</pdfrwt>
<pdfrwt beam="2">  1       21 0.97314157E-01 0.45924301E+03</pdfrwt>
<totfact> 0.49054594E+04</totfact>
</mgrwt>
</event>
<event>
 7    0  0.4685107E-002  0.4552819E+03  0.7546771E-02  0.1026159E+00
         21   -1    0    0  502  501  0.00000000000E+00  0.00000000000E+00  0.15876889615E+03  0.15876889615E+03  0.00000000000E+00 0. -1.
         21   -1    0    0  501  502 -0.00000000000E+00 -0.00000000000E+00 -0.32638892795E+03  0.32638892795E+03  0.00000000000E+00 0. -1.
      99926    2    1    2    0    0  0.00000000000E+00  0.00000000000E+00 -0.16762003181E+03  0.48515782410E+03  0.45528193377E+03 0.  0.
      99925    2    3    3    0    0  0.47909530042E+02 -0.96097762147E+02 -0.14464698382E+03  0.31870851652E+03  0.26291113635E+03 0.  0.
         25    1    4    4    0    0  0.31097086878E+02 -0.90486002387E+02 -0.85679633733E+02  0.17928539588E+03  0.12509000000E+03 0.  0.
         25    1    4    4    0    0  0.16812443164E+02 -0.56117597592E+01 -0.58967350086E+02  0.13942312064E+03  0.12509000000E+03 0.  0.
         25    1    3    3    0    0 -0.47909530042E+02  0.96097762147E+02 -0.22973047988E+02  0.16644930758E+03  0.12509000000E+03 0.  0.
<mgrwt>
<rscale>  2 0.45528193E+03</rscale>
<asrwt>0</asrwt>
<pdfrwt beam="1">  1       21 0.23348367E-01 0.45528193E+03</pdfrwt>
<pdfrwt beam="2">  1       21 0.47998372E-01 0.45528193E+03</pdfrwt>
<totfact> 0.66178289E+04</totfact>
</mgrwt>
</event>
<event>
 7    0  0.4685107E-002  0.4221732E+03  0.7546771E-02  0.1036361E+00
         21   -1    0    0  502  501  0.00000000000E+00  0.00000000000E+00  0.22988066307E+03  0.22988066307E+03  0.00000000000E+00 0. -1.
         21   -1    0    0  501  502 -0.00000000000E+00 -0.00000000000E+00 -0.19382907787E+03  0.19382907787E+03  0.00000000000E+00 0. -1.
      99926    2    1    2    0    0  0.35527136788E-14  0.00000000000E+00  0.36051585195E+02  0.42370974094E+03  0.42217322010E+03 0.  0.
      99925    2    3    3    0    0  0.19568388934E+02 -0.33658525764E+02  0.91976335461E+02  0.28126359675E+03  0.26293296935E+03 0.  0.
         25    1    3    3    0    0 -0.19568388934E+02  0.33658525764E+02 -0.55924750266E+02  0.14244614419E+03  0.12509000000E+03 0.  0.
         25    1    4    4    0    0  0.19601184928E+02 -0.17981841289E+02  0.47765920942E+01  0.12797607979E+03  0.12509000000E+03 0.  0.
         25    1    4    4    0    0 -0.32795994042E-01 -0.15676684475E+02  0.87199743367E+02  0.15328751696E+03  0.12509000000E+03 0.  0.
<mgrwt>
<rscale>  2 0.42217322E+03</rscale>
<asrwt>0</asrwt>
<pdfrwt beam="1">  1       21 0.33805980E-01 0.42217322E+03</pdfrwt>
<pdfrwt beam="2">  1       21 0.28504276E-01 0.42217322E+03</pdfrwt>
<totfact> 0.92967669E+04</totfact>
</mgrwt>
</event>
<event>
 6    0  0.4685107E-002  0.4547069E+03  0.7546771E-02  0.1026328E+00
         21   -1    0    0  502  501  0.00000000000E+00  0.00000000000E+00  0.68889417213E+03  0.68889417213E+03  0.00000000000E+00 0.  1.
         21   -1    0    0  501  502 -0.00000000000E+00 -0.00000000000E+00 -0.75032693956E+02  0.75032693956E+02  0.00000000000E+00 0.  1.
      99926    2    1    2    0    0  0.14210854715E-13  0.00000000000E+00  0.61386147818E+03  0.76392686609E+03  0.45470687519E+03 0.  0.
         25    1    3    3    0    0 -0.10556059673E+03 -0.21435208967E+02  0.22840887157E+03  0.28181665756E+03  0.12509000000E+03 0.  0.
         25    1    3    3    0    0  0.18140272167E+02 -0.27332544671E+02  0.17650058510E+03  0.21880608336E+03  0.12509000000E+03 0.  0.
         25    1    3    3    0    0  0.87420324567E+02  0.48767753637E+02  0.20895202150E+03  0.26330412517E+03  0.12509000000E+03 0.  0.
<mgrwt>
<rscale>  2 0.45470688E+03</rscale>
<asrwt>0</asrwt>
<pdfrwt beam="1">  1       21 0.10130796E+00 0.45470688E+03</pdfrwt>
<pdfrwt beam="2">  1       21 0.11034220E-01 0.45470688E+03</pdfrwt>
<totfact> 0.49673085E+04</totfact>
</mgrwt>
</event>
<event>
 7    0  0.4685107E-002  0.4583460E+03  0.7546771E-02  0.1025262E+00
         21   -1    0    0  502  501  0.00000000000E+00  0.00000000000E+00  0.10489040070E+03  0.10489040070E+03  0.00000000000E+00 0. -1.
         21   -1    0    0  501  502 -0.00000000000E+00 -0.00000000000E+00 -0.50071556790E+03  0.50071556790E+03  0.00000000000E+00 0. -1.
      99926    2    1    2    0    0  0.00000000000E+00  0.00000000000E+00 -0.39582516720E+03  0.60560596860E+03  0.45834596783E+03 0.  0.
      99925    2    3    3    0    0  0.57736649639E+01  0.22820517356E+02 -0.39875002999E+03  0.47828678646E+03  0.26306378023E+03 0.  0.
         25    1    4    4    0    0  0.39880596436E+01  0.21469859602E+02 -0.12939330381E+03  0.18129256649E+03  0.12509000000E+03 0.  0.
         25    1    3    3    0    0 -0.57736649639E+01 -0.22820517356E+02  0.29248627923E+01  0.12731918214E+03  0.12509000000E+03 0.  0.
         25    1    4    4    0    0  0.17856053203E+01  0.13506577543E+01 -0.26935672618E+03  0.29699421997E+03  0.12509000000E+03 0.  0.
<mgrwt>
<rscale>  2 0.45834597E+03</rscale>
<asrwt>0</asrwt>
<pdfrwt beam="1">  1       21 0.15425059E-01 0.45834597E+03</pdfrwt>
<pdfrwt beam="2">  1       21 0.73634642E-01 0.45834597E+03</pdfrwt>
<totfact> 0.56817677E+04</totfact>
</mgrwt>
</event>
<event>
 7    0  0.4685107E-002  0.4597600E+03  0.7546771E-02  0.1024851E+00
         21   -1    0    0  502  501  0.00000000000E+00  0.00000000000E+00  0.22460557302E+03  0.22460557302E+03  0.00000000000E+00 0.  1.
         21   -1    0    0  501  502 -0.00000000000E+00 -0.00000000000E+00 -0.23527832314E+03  0.23527832314E+03  0.00000000000E+00 0.  1.
      99926    2    1    2    0    0 -0.14210854715E-13  0.35527136788E-14 -0.10672750128E+02  0.45988389616E+03  0.45976003562E+03 0.  0.
      99925    2    3    3    0    0  0.11483837708E+03 -0.91503128893E+01  0.18108725377E+02  0.28740936903E+03  0.26268733962E+03 0.  0.
         25    1    3    3    0    0 -0.11483837708E+03  0.91503128893E+01 -0.28781475505E+02  0.17247452713E+03  0.12509000000E+03 0.  0.
         25    1    4    4    0    0  0.43106998303E+02  0.33150418500E+02  0.13491189408E+02  0.13706452437E+03  0.12509000000E+03 0.  0.
         25    1    4    4    0    0  0.71731378776E+02 -0.42300731390E+02  0.46175359695E+01  0.15034484466E+03  0.12509000000E+03 0.  0.
<mgrwt>
<rscale>  2 0.45976004E+03</rscale>
<asrwt>0</asrwt>
<pdfrwt beam="1">  1       21 0.33030231E-01 0.45976004E+03</pdfrwt>
<pdfrwt beam="2">  1       21 0.34599753E-01 0.45976004E+03</pdfrwt>
<totfact> 0.65660048E+04</totfact>
</mgrwt>
</event>
<event>
 7    0  0.4685107E-002  0.4542088E+03  0.7546771E-02  0.1026474E+00
         21   -1    0    0  502  501  0.00000000000E+00  0.00000000000E+00  0.15187473819E+03  0.15187473819E+03  0.00000000000E+00 0. -1.
         21   -1    0    0  501  502 -0.00000000000E+00 -0.00000000000E+00 -0.33959839565E+03  0.33959839565E+03  0.00000000000E+00 0. -1.
      99926    2    1    2    0    0  0.00000000000E+00  0.71054273576E-14 -0.18772365746E+03  0.49147313384E+03  0.45420883932E+03 0.  0.
      99925    2    3    3    0    0 -0.32786661149E+02 -0.56114321862E+02 -0.21762024542E+03  0.34737214030E+03  0.26284035149E+03 0.  0.
         25    1    4    4    0    0 -0.45646264481E+02 -0.17882273942E+02 -0.76839160124E+02  0.15477442234E+03  0.12509000000E+03 0.  0.
         25    1    3    3    0    0  0.32786661149E+02  0.56114321862E+02  0.29896587956E+02  0.14410099354E+03  0.12509000000E+03 0.  0.
         25    1    4    4    0    0  0.12859603332E+02 -0.38232047920E+02 -0.14078108529E+03  0.19259771796E+03  0.12509000000E+03 0.  0.
<mgrwt>
<rscale>  2 0.45420884E+03</rscale>
<asrwt>0</asrwt>
<pdfrwt beam="1">  1       21 0.22334521E-01 0.45420884E+03</pdfrwt>
<pdfrwt beam="2">  1       21 0.49940939E-01 0.45420884E+03</pdfrwt>
<totfact> 0.66289315E+04</totfact>
</mgrwt>
</event>
<event>
 7    0  0.4685107E-002  0.4588489E+03  0.7546771E-02  0.1025116E+00
         21   -1    0    0  502  501  0.00000000000E+00  0.00000000000E+00  0.18546187533E+03  0.18546187533E+03  0.00000000000E+00 0. -1.
         21   -1    0    0  501  502 -0.00000000000E+00 -0.00000000000E+00 -0.28380809517E+03  0.28380809517E+03  0.00000000000E+00 0. -1.
      99926    2    1    2    0    0  0.00000000000E+00  0.00000000000E+00 -0.98346219840E+02  0.46926997050E+03  0.45884891441E+03 0.  0.
      99925    2    3    3    0    0  0.31793847936E+02  0.17761581369E+02 -0.17509861513E+03  0.31805898934E+03  0.26301268628E+03 0.  0.
         25    1    4    4    0    0 -0.32076941188E+01 -0.18659114156E+02 -0.11266254651E+03  0.16940722927E+03  0.12509000000E+03 0.  0.
         25    1    4    4    0    0  0.35001542054E+02  0.36420695525E+02 -0.62436068618E+02  0.14865176007E+03  0.12509000000E+03 0.  0.
         25    1    3    3    0    0 -0.31793847936E+02 -0.17761581369E+02  0.76752395288E+02  0.15121098115E+03  0.12509000000E+03 0.  0.
<mgrwt>
<rscale>  2 0.45884891E+03</rscale>
<asrwt>0</asrwt>
<pdfrwt beam="1">  1       21 0.27273806E-01 0.45884891E+03</pdfrwt>
<pdfrwt beam="2">  1       21 0.41736484E-01 0.45884891E+03</pdfrwt>
<totfact> 0.65468476E+04</totfact>
</mgrwt>
</event>
<event>
 7    0  0.4685107E-002  0.4770837E+03  0.7546771E-02  0.1019940E+00
         21   -1    0    0  502  501  0.00000000000E+00  0.00000000000E+00  0.31512718048E+03  0.31512718048E+03  0.00000000000E+00 0.  1.
         21   -1    0    0  501  502 -0.00000000000E+00 -0.00000000000E+00 -0.18056903723E+03  0.18056903723E+03  0.00000000000E+00 0.  1.
      99926    2    1    2    0    0  0.00000000000E+00  0.14210854715E-13  0.13455814325E+03  0.49569621771E+03  0.47708368903E+03 0.  0.
      99925    2    3    3    0    0 -0.80157294765E+02 -0.10420094192E+03  0.10266837778E+03  0.31144776197E+03  0.26301308796E+03 0.  0.
         25    1    4    4    0    0 -0.94030552962E+01 -0.18969618442E+02  0.40652005767E+02  0.13322296178E+03  0.12509000000E+03 0.  0.
         25    1    3    3    0    0  0.80157294765E+02  0.10420094192E+03  0.31889765471E+02  0.18424845574E+03  0.12509000000E+03 0.  0.
         25    1    4    4    0    0 -0.70754239468E+02 -0.85231323478E+02  0.62016372012E+02  0.17822480019E+03  0.12509000000E+03 0.  0.
<mgrwt>
<rscale>  2 0.47708369E+03</rscale>
<asrwt>0</asrwt>
<pdfrwt beam="1">  1       21 0.46342233E-01 0.47708369E+03</pdfrwt>
<pdfrwt beam="2">  1       21 0.26554270E-01 0.47708369E+03</pdfrwt>
<totfact> 0.55237518E+04</totfact>
</mgrwt>
</event>
<event>
 7    0  0.4685107E-002  0.4550333E+03  0.7546771E-02  0.1026232E+00
         21   -1    0    0  502  501  0.00000000000E+00  0.00000000000E+00  0.61634243035E+03  0.61634243035E+03  0.00000000000E+00 0. -1.
         21   -1    0    0  501  502 -0.00000000000E+00 -0.00000000000E+00 -0.83985480163E+02  0.83985480163E+02  0.00000000000E+00 0. -1.
      99926    2    1    2    0    0  0.00000000000E+00  0.00000000000E+00  0.53235695019E+03  0.70032791051E+03  0.45503325135E+03 0.  0.
      99925    2    3    3    0    0  0.91797508716E+02 -0.10052412255E+02  0.43593392297E+03  0.51737233701E+03  0.26288384566E+03 0.  0.
         25    1    3    3    0    0 -0.91797508716E+02  0.10052412255E+02  0.96423027220E+02  0.18295557351E+03  0.12509000000E+03 0.  0.
         25    1    4    4    0    0  0.18928631434E+02  0.12488527351E+02  0.15444669705E+03  0.20003886305E+03  0.12509000000E+03 0.  0.
         25    1    4    4    0    0  0.72868877282E+02 -0.22540939606E+02  0.28148722592E+03  0.31733347395E+03  0.12509000000E+03 0.  0.
<mgrwt>
<rscale>  2 0.45503325E+03</rscale>
<asrwt>0</asrwt>
<pdfrwt beam="1">  1       21 0.90638591E-01 0.45503325E+03</pdfrwt>
<pdfrwt beam="2">  1       21 0.12350806E-01 0.45503325E+03</pdfrwt>
<totfact> 0.52871320E+04</totfact>
</mgrwt>
</event>
<event>
 7    0  0.4685107E-002  0.4601320E+03  0.7546771E-02  0.1024743E+00
         21   -1    0    0  502  501  0.00000000000E+00  0.00000000000E+00  0.62205534714E+03  0.62205534714E+03  0.00000000000E+00 0. -1.
         21   -1    0    0  501  502 -0.00000000000E+00 -0.00000000000E+00 -0.85089476862E+02  0.85089476862E+02  0.00000000000E+00 0. -1.
      99926    2    1    2    0    0  0.00000000000E+00  0.00000000000E+00  0.53696587028E+03  0.70714482401E+03  0.46013199875E+03 0.  0.
      99925    2    3    3    0    0  0.24305133165E+02 -0.98633869720E+02  0.24270755974E+03  0.37165288495E+03  0.26248719507E+03 0.  0.
         25    1    4    4    0    0 -0.99357777976E+01 -0.33425206856E+02  0.75451156558E+02  0.15018771341E+03  0.12509000000E+03 0.  0.
         25    1    3    3    0    0 -0.24305133165E+02  0.98633869720E+02  0.29425831054E+03  0.33549193906E+03  0.12509000000E+03 0.  0.
         25    1    4    4    0    0  0.34240910963E+02 -0.65208662864E+02  0.16725640319E+03  0.22146517154E+03  0.12509000000E+03 0.  0.
<mgrwt>
<rscale>  2 0.46013200E+03</rscale>
<asrwt>0</asrwt>
<pdfrwt beam="1">  1       21 0.91478725E-01 0.46013200E+03</pdfrwt>
<pdfrwt beam="2">  1       21 0.12513159E-01 0.46013200E+03</pdfrwt>
<totfact> 0.50448544E+04</totfact>
</mgrwt>
</event>
<event>
 7    0  0.4685107E-002  0.4451365E+03  0.7546771E-02  0.1029182E+00
         21   -1    0    0  502  501  0.00000000000E+00  0.00000000000E+00  0.74309276910E+03  0.74309276910E+03  0.00000000000E+00 0. -1.
         21   -1    0    0  501  502 -0.00000000000E+00 -0.00000000000E+00 -0.66662764336E+02  0.66662764336E+02  0.00000000000E+00 0. -1.
      99926    2    1    2    0    0  0.00000000000E+00  0.00000000000E+00  0.67643000476E+03  0.80975553343E+03  0.44513646513E+03 0.  0.
      99925    2    3    3    0    0  0.45914445488E+02 -0.68463910951E+02  0.31564863288E+03  0.41910716238E+03  0.26309943123E+03 0.  0.
         25    1    4    4    0    0  0.21194770447E+02 -0.59242469298E+02  0.21418704969E+03  0.25589546463E+03  0.12509000000E+03 0.  0.
         25    1    3    3    0    0 -0.45914445488E+02  0.68463910951E+02  0.36078137189E+03  0.39064837105E+03  0.12509000000E+03 0.  0.
         25    1    4    4    0    0  0.24719675041E+02 -0.92214416528E+01  0.10146158319E+03  0.16321169775E+03  0.12509000000E+03 0.  0.
<mgrwt>
<rscale>  2 0.44513647E+03</rscale>
<asrwt>0</asrwt>
<pdfrwt beam="1">  1       21 0.10927834E+00 0.44513647E+03</pdfrwt>
<pdfrwt beam="2">  1       21 0.98033481E-02 0.44513647E+03</pdfrwt>
<totfact> 0.51141604E+04</totfact>
</mgrwt>
</event>
<event>
 7    0  0.4685107E-002  0.4368999E+03  0.7546771E-02  0.1031702E+00
         21   -1    0    0  502  501  0.00000000000E+00  0.00000000000E+00  0.30388171682E+02  0.30388171682E+02  0.00000000000E+00 0.  1.
         21   -1    0    0  501  502 -0.00000000000E+00 -0.00000000000E+00 -0.15703604809E+04  0.15703604809E+04  0.00000000000E+00 0.  1.
      99926    2    1    2    0    0  0.14210854715E-13 -0.35527136788E-14 -0.15399723092E+04  0.16007486525E+04  0.43689991483E+03 0.  0.
      99925    2    3    3    0    0 -0.93392072032E+02  0.17587377472E+02 -0.10023512822E+04  0.10406457408E+04  0.26306666456E+03 0.  0.
         25    1    4    4    0    0 -0.42914374283E+02  0.43139011669E+02 -0.42455825463E+03  0.44676597623E+03  0.12509000000E+03 0.  0.
         25    1    4    4    0    0 -0.50477697749E+02 -0.25551634197E+02 -0.57779302754E+03  0.59387976456E+03  0.12509000000E+03 0.  0.
         25    1    3    3    0    0  0.93392072032E+02 -0.17587377472E+02 -0.53762102702E+03  0.56010291176E+03  0.12509000000E+03 0.  0.
<mgrwt>
<rscale>  2 0.43689991E+03</rscale>
<asrwt>0</asrwt>
<pdfrwt beam="1">  1       21 0.44688485E-02 0.43689991E+03</pdfrwt>
<pdfrwt beam="2">  1       21 0.23093538E+00 0.43689991E+03</pdfrwt>
<totfact> 0.24707338E+04</totfact>
</mgrwt>
</event>
<event>
 7    0  0.4685107E-002  0.4564816E+03  0.7546771E-02  0.1025807E+00
         21   -1    0    0  502  501  0.00000000000E+00  0.00000000000E+00  0.28356354501E+03  0.28356354501E+03  0.00000000000E+00 0. -1.
         21   -1    0    0  501  502 -0.00000000000E+00 -0.00000000000E+00 -0.18371142537E+03  0.18371142537E+03  0.00000000000E+00 0. -1.
      99926    2    1    2    0    0  0.00000000000E+00  0.00000000000E+00  0.99852119637E+02  0.46727497038E+03  0.45648160110E+03 0.  0.
      99925    2    3    3    0    0  0.65150507429E+02 -0.65206370337E+02 -0.72197428562E+01  0.27857321843E+03  0.26278214168E+03 0.  0.
         25    1    3    3    0    0 -0.65150507429E+02  0.65206370337E+02  0.10707186249E+03  0.18870175195E+03  0.12509000000E+03 0.  0.
         25    1    4    4    0    0  0.11971955868E+02 -0.63083511812E+01 -0.28247275291E+02  0.12895169515E+03  0.12509000000E+03 0.  0.
         25    1    4    4    0    0  0.53178551561E+02 -0.58898019155E+02  0.21027532435E+02  0.14962152327E+03  0.12509000000E+03 0.  0.
<mgrwt>
<rscale>  2 0.45648160E+03</rscale>
<asrwt>0</asrwt>
<pdfrwt beam="1">  1       21 0.41700522E-01 0.45648160E+03</pdfrwt>
<pdfrwt beam="2">  1       21 0.27016386E-01 0.45648160E+03</pdfrwt>
<totfact> 0.66850299E+04</totfact>
</mgrwt>
</event>
<event>
 7    0  0.4685107E-002  0.4748552E+03  0.7546771E-02  0.1020559E+00
         21   -1    0    0  502  501  0.00000000000E+00  0.00000000000E+00  0.18757132839E+03  0.18757132839E+03  0.00000000000E+00 0.  1.
         21   -1    0    0  501  502 -0.00000000000E+00 -0.00000000000E+00 -0.30053564241E+03  0.30053564241E+03  0.00000000000E+00 0.  1.
      99926    2    1    2    0    0  0.14210854715E-13  0.00000000000E+00 -0.11296431402E+03  0.48810697080E+03  0.47485521867E+03 0.  0.
      99925    2    3    3    0    0 -0.63358843152E+02 -0.74117105158E+02  0.19840549911E+02  0.28124390433E+03  0.26305284264E+03 0.  0.
         25    1    3    3    0    0  0.63358843152E+02  0.74117105158E+02 -0.13280486393E+03  0.20686306646E+03  0.12509000000E+03 0.  0.
         25    1    4    4    0    0 -0.49787388379E+02 -0.30206871641E+02  0.45976539795E+02  0.14543929815E+03  0.12509000000E+03 0.  0.
         25    1    4    4    0    0 -0.13571454773E+02 -0.43910233518E+02 -0.26135989884E+02  0.13580460618E+03  0.12509000000E+03 0.  0.
<mgrwt>
<rscale>  2 0.47485522E+03</rscale>
<asrwt>0</asrwt>
<pdfrwt beam="1">  1       21 0.27584019E-01 0.47485522E+03</pdfrwt>
<pdfrwt beam="2">  1       21 0.44196417E-01 0.47485522E+03</pdfrwt>
<totfact> 0.56646713E+04</totfact>
</mgrwt>
</event>
<event>
 7    0  0.4685107E-002  0.4417683E+03  0.7546771E-02  0.1030206E+00
         21   -1    0    0  502  501  0.00000000000E+00  0.00000000000E+00  0.32458184253E+02  0.32458184253E+02  0.00000000000E+00 0. -1.
         21   -1    0    0  501  502 -0.00000000000E+00 -0.00000000000E+00 -0.15031588083E+04  0.15031588083E+04  0.00000000000E+00 0. -1.
      99926    2    1    2    0    0  0.00000000000E+00  0.14210854715E-13 -0.14707006241E+04  0.15356169926E+04  0.44176829022E+03 0.  0.
      99925    2    3    3    0    0  0.58206068777E+02  0.74399085116E+02 -0.10537089680E+04  0.10901366679E+04  0.26300607451E+03 0.  0.
         25    1    4    4    0    0  0.65913796689E+02  0.37596633395E+02 -0.62922215666E+03  0.64600786835E+03  0.12509000000E+03 0.  0.
         25    1    4    4    0    0 -0.77077279120E+01  0.36802451722E+02 -0.42448681131E+03  0.44412879956E+03  0.12509000000E+03 0.  0.
         25    1    3    3    0    0 -0.58206068777E+02 -0.74399085116E+02 -0.41699165609E+03  0.44548032466E+03  0.12509000000E+03 0.  0.
<mgrwt>
<rscale>  2 0.44176829E+03</rscale>
<asrwt>0</asrwt>
<pdfrwt beam="1">  1       21 0.47732633E-02 0.44176829E+03</pdfrwt>
<pdfrwt beam="2">  1       21 0.22105273E+00 0.44176829E+03</pdfrwt>
<totfact> 0.25434767E+04</totfact>
</mgrwt>
</event>
<event>
 7    0  0.4685107E-002  0.4536920E+03  0.7546771E-02  0.1026627E+00
         21   -1    0    0  502  501  0.00000000000E+00  0.00000000000E+00  0.26307032875E+03  0.26307032875E+03  0.00000000000E+00 0.  1.
         21   -1    0    0  501  502 -0.00000000000E+00 -0.00000000000E+00 -0.19560972630E+03  0.19560972630E+03  0.00000000000E+00 0.  1.
      99926    2    1    2    0    0  0.00000000000E+00 -0.14210854715E-13  0.67460602442E+02  0.45868005505E+03  0.45369203213E+03 0.  0.
      99925    2    3    3    0    0 -0.13274665085E+02 -0.98860708785E+02 -0.95715276977E+01  0.28111003042E+03  0.26264344382E+03 0.  0.
         25    1    3    3    0    0  0.13274665085E+02  0.98860708785E+02  0.77032130139E+02  0.17757002463E+03  0.12509000000E+03 0.  0.
         25    1    4    4    0    0 -0.80640010793E+01 -0.90349594638E+02 -0.16719345945E+02  0.15541918155E+03  0.12509000000E+03 0.  0.
         25    1    4    4    0    0 -0.52106640054E+01 -0.85111141468E+01  0.71478182474E+01  0.12569084887E+03  0.12509000000E+03 0.  0.
<mgrwt>
<rscale>  2 0.45369203E+03</rscale>
<asrwt>0</asrwt>
<pdfrwt beam="1">  1       21 0.38686813E-01 0.45369203E+03</pdfrwt>
<pdfrwt beam="2">  1       21 0.28766136E-01 0.45369203E+03</pdfrwt>
<totfact> 0.68993714E+04</totfact>
</mgrwt>
</event>
<event>
 7    0  0.4685107E-002  0.4489534E+03  0.7546771E-02  0.1028035E+00
         21   -1    0    0  502  501  0.00000000000E+00  0.00000000000E+00  0.49691345989E+02  0.49691345989E+02  0.00000000000E+00 0. -1.
         21   -1    0    0  501  502 -0.00000000000E+00 -0.00000000000E+00 -0.10140556221E+04  0.10140556221E+04  0.00000000000E+00 0. -1.
      99926    2    1    2    0    0 -0.35527136788E-14  0.00000000000E+00 -0.96436427611E+03  0.10637469681E+04  0.44895339967E+03 0.  0.
      99925    2    3    3    0    0  0.22743820640E+02 -0.81293657664E+02 -0.76741081065E+03  0.81562579646E+03  0.26305920891E+03 0.  0.
         25    1    4    4    0    0  0.33325781960E+02 -0.54135203527E+01 -0.36454526290E+03  0.38688586269E+03  0.12509000000E+03 0.  0.
         25    1    4    4    0    0 -0.10581961321E+02 -0.75880137312E+02 -0.40286554776E+03  0.42873993378E+03  0.12509000000E+03 0.  0.
         25    1    3    3    0    0 -0.22743820640E+02  0.81293657664E+02 -0.19695346545E+03  0.24812117162E+03  0.12509000000E+03 0.  0.
<mgrwt>
<rscale>  2 0.44895340E+03</rscale>
<asrwt>0</asrwt>
<pdfrwt beam="1">  1       21 0.73075509E-02 0.44895340E+03</pdfrwt>
<pdfrwt beam="2">  1       21 0.14912583E+00 0.44895340E+03</pdfrwt>
<totfact> 0.38564899E+04</totfact>
</mgrwt>
</event>
<event>
 7    0  0.4685107E-002  0.4520080E+03  0.7546771E-02  0.1027125E+00
         21   -1    0    0  502  501  0.00000000000E+00  0.00000000000E+00  0.11170610598E+03  0.11170610598E+03  0.00000000000E+00 0.  1.
         21   -1    0    0  501  502 -0.00000000000E+00 -0.00000000000E+00 -0.45725173757E+03  0.45725173757E+03  0.00000000000E+00 0.  1.
      99926    2    1    2    0    0  0.00000000000E+00  0.00000000000E+00 -0.34554563159E+03  0.56895784356E+03  0.45200801346E+03 0.  0.
      99925    2    3    3    0    0 -0.49439847490E+02  0.85143407239E+02 -0.15537064074E+03  0.32095031633E+03  0.26301211233E+03 0.  0.
         25    1    3    3    0    0  0.49439847490E+02 -0.85143407239E+02 -0.19017499085E+03  0.24800752723E+03  0.12509000000E+03 0.  0.
         25    1    4    4    0    0  0.53580351241E+01  0.35110524048E+02 -0.42350961897E+02  0.13675733806E+03  0.12509000000E+03 0.  0.
         25    1    4    4    0    0 -0.54797882614E+02  0.50032883191E+02 -0.11301967884E+03  0.18419297827E+03  0.12509000000E+03 0.  0.
<mgrwt>
<rscale>  2 0.45200801E+03</rscale>
<asrwt>0</asrwt>
<pdfrwt beam="1">  1       21 0.16427369E-01 0.45200801E+03</pdfrwt>
<pdfrwt beam="2">  1       21 0.67242901E-01 0.45200801E+03</pdfrwt>
<totfact> 0.62086895E+04</totfact>
</mgrwt>
</event>
<event>
 7    0  0.4685107E-002  0.4532322E+03  0.7546771E-02  0.1026763E+00
         21   -1    0    0  502  501  0.00000000000E+00  0.00000000000E+00  0.17598770301E+03  0.17598770301E+03  0.00000000000E+00 0. -1.
         21   -1    0    0  501  502 -0.00000000000E+00 -0.00000000000E+00 -0.29180938796E+03  0.29180938796E+03  0.00000000000E+00 0. -1.
      99926    2    1    2    0    0  0.00000000000E+00  0.00000000000E+00 -0.11582168495E+03  0.46779709097E+03  0.45323223143E+03 0.  0.
      99925    2    3    3    0    0  0.94791678144E+01 -0.10896745410E+03 -0.85530996581E+02  0.29889240016E+03  0.26468349934E+03 0.  0.
         25    1    4    4    0    0 -0.99439224648E+01 -0.69197568564E+02 -0.84181645293E+02  0.16619639765E+03  0.12509000000E+03 0.  0.
         25    1    4    4    0    0  0.19423090279E+02 -0.39769885532E+02 -0.13493512879E+01  0.13269600250E+03  0.12509000000E+03 0.  0.
         25    1    3    3    0    0 -0.94791678144E+01  0.10896745410E+03 -0.30290688373E+02  0.16890469081E+03  0.12509000000E+03 0.  0.
<mgrwt>
<rscale>  2 0.45323223E+03</rscale>
<asrwt>0</asrwt>
<pdfrwt beam="1">  1       21 0.25880545E-01 0.45323223E+03</pdfrwt>
<pdfrwt beam="2">  1       21 0.42913145E-01 0.45323223E+03</pdfrwt>
<totfact> 0.68556284E+04</totfact>
</mgrwt>
</event>
<event>
 7    0  0.4685107E-002  0.4581679E+03  0.7546771E-02  0.1025314E+00
         21   -1    0    0  502  501  0.00000000000E+00  0.00000000000E+00  0.30049677529E+03  0.30049677529E+03  0.00000000000E+00 0.  1.
         21   -1    0    0  501  502 -0.00000000000E+00 -0.00000000000E+00 -0.17464235155E+03  0.17464235155E+03  0.00000000000E+00 0.  1.
      99926    2    1    2    0    0  0.00000000000E+00  0.00000000000E+00  0.12585442374E+03  0.47513912683E+03  0.45816793196E+03 0.  0.
      99925    2    3    3    0    0  0.45042117253E+02 -0.92932797410E+02  0.23895060196E+02  0.28354445813E+03  0.26298514915E+03 0.  0.
         25    1    4    4    0    0  0.52305875733E+02 -0.21897834749E+02  0.24484173420E+02  0.13950771538E+03  0.12509000000E+03 0.  0.
         25    1    4    4    0    0 -0.72637584798E+01 -0.71034962661E+02 -0.58911322341E+00  0.14403674275E+03  0.12509000000E+03 0.  0.
         25    1    3    3    0    0 -0.45042117253E+02  0.92932797410E+02  0.10195936354E+03  0.19159466870E+03  0.12509000000E+03 0.  0.
<mgrwt>
<rscale>  2 0.45816793E+03</rscale>
<asrwt>0</asrwt>
<pdfrwt beam="1">  1       21 0.44190702E-01 0.45816793E+03</pdfrwt>
<pdfrwt beam="2">  1       21 0.25682699E-01 0.45816793E+03</pdfrwt>
<totfact> 0.65396269E+04</totfact>
</mgrwt>
</event>
<event>
 7    0  0.4685107E-002  0.4544705E+03  0.7546771E-02  0.1026397E+00
         21   -1    0    0  502  501  0.00000000000E+00  0.00000000000E+00  0.18549875892E+03  0.18549875892E+03  0.00000000000E+00 0. -1.
         21   -1    0    0  501  502 -0.00000000000E+00 -0.00000000000E+00 -0.27836231147E+03  0.27836231147E+03  0.00000000000E+00 0. -1.
      99926    2    1    2    0    0  0.14210854715E-13 -0.71054273576E-14 -0.92863552555E+02  0.46386107039E+03  0.45447051964E+03 0.  0.
      99925    2    3    3    0    0  0.80079368062E+02 -0.51690827044E+02 -0.11850147408E+03  0.30452037279E+03  0.26382837470E+03 0.  0.
         25    1    3    3    0    0 -0.80079368062E+02  0.51690827044E+02  0.25637921523E+02  0.15934069759E+03  0.12509000000E+03 0.  0.
         25    1    4    4    0    0  0.18631855494E+02  0.12422784237E+02 -0.51423947346E+02  0.13708902971E+03  0.12509000000E+03 0.  0.
         25    1    4    4    0    0  0.61447512568E+02 -0.64113611280E+02 -0.67077526732E+02  0.16743134308E+03  0.12509000000E+03 0.  0.
<mgrwt>
<rscale>  2 0.45447052E+03</rscale>
<asrwt>0</asrwt>
<pdfrwt beam="1">  1       21 0.27279229E-01 0.45447052E+03</pdfrwt>
<pdfrwt beam="2">  1       21 0.40935634E-01 0.45447052E+03</pdfrwt>
<totfact> 0.68181413E+04</totfact>
</mgrwt>
</event>
<event>
 7    0  0.4685107E-002  0.4564762E+03  0.7546771E-02  0.1025808E+00
         21   -1    0    0  502  501  0.00000000000E+00  0.00000000000E+00  0.29746645947E+02  0.29746645947E+02  0.00000000000E+00 0.  1.
         21   -1    0    0  501  502 -0.00000000000E+00 -0.00000000000E+00 -0.17512098628E+04  0.17512098628E+04  0.00000000000E+00 0.  1.
      99926    2    1    2    0    0 -0.14210854715E-13  0.00000000000E+00 -0.17214632168E+04  0.17809565087E+04  0.45647615389E+03 0.  0.
      99925    2    3    3    0    0 -0.77782441422E+02 -0.18437693671E+02 -0.76294615626E+03  0.81101191225E+03  0.26317945913E+03 0.  0.
         25    1    3    3    0    0  0.77782441422E+02  0.18437693671E+02 -0.95851706058E+03  0.96994459649E+03  0.12509000000E+03 0.  0.
         25    1    4    4    0    0 -0.75806167806E+02 -0.25497836702E+01 -0.35316646981E+03  0.38226579754E+03  0.12509000000E+03 0.  0.
         25    1    4    4    0    0 -0.19762736161E+01 -0.15887910001E+02 -0.40977968646E+03  0.42874611470E+03  0.12509000000E+03 0.  0.
<mgrwt>
<rscale>  2 0.45647615E+03</rscale>
<asrwt>0</asrwt>
<pdfrwt beam="1">  1       21 0.43745066E-02 0.45647615E+03</pdfrwt>
<pdfrwt beam="2">  1       21 0.25753087E+00 0.45647615E+03</pdfrwt>
<totfact> 0.17427661E+04</totfact>
</mgrwt>
</event>
<event>
 7    0  0.4685107E-002  0.4517448E+03  0.7546771E-02  0.1027203E+00
         21   -1    0    0  502  501  0.00000000000E+00  0.00000000000E+00  0.77683447876E+02  0.77683447876E+02  0.00000000000E+00 0. -1.
         21   -1    0    0  501  502 -0.00000000000E+00 -0.00000000000E+00 -0.65674653755E+03  0.65674653755E+03  0.00000000000E+00 0. -1.
      99926    2    1    2    0    0 -0.35527136788E-14  0.00000000000E+00 -0.57906308968E+03  0.73442998543E+03  0.45174477492E+03 0.  0.
      99925    2    3    3    0    0  0.27883918094E+02 -0.10045794137E+03 -0.30790265931E+03  0.41813139553E+03  0.26298385017E+03 0.  0.
         25    1    4    4    0    0  0.15057817918E+02 -0.64785419363E+02 -0.10327238873E+03  0.17531851818E+03  0.12509000000E+03 0.  0.
         25    1    4    4    0    0  0.12826100176E+02 -0.35672522008E+02 -0.20463027058E+03  0.24281287736E+03  0.12509000000E+03 0.  0.
         25    1    3    3    0    0 -0.27883918094E+02  0.10045794137E+03 -0.27116043037E+03  0.31629858990E+03  0.12509000000E+03 0.  0.
<mgrwt>
<rscale>  2 0.45174477E+03</rscale>
<asrwt>0</asrwt>
<pdfrwt beam="1">  1       21 0.11424037E-01 0.45174477E+03</pdfrwt>
<pdfrwt beam="2">  1       21 0.96580368E-01 0.45174477E+03</pdfrwt>
<totfact> 0.52401567E+04</totfact>
</mgrwt>
</event>
<event>
 7    0  0.4685107E-002  0.4453745E+03  0.7546771E-02  0.1029110E+00
         21   -1    0    0  502  501  0.00000000000E+00  0.00000000000E+00  0.21314337252E+03  0.21314337252E+03  0.00000000000E+00 0. -1.
         21   -1    0    0  501  502 -0.00000000000E+00 -0.00000000000E+00 -0.23265851252E+03  0.23265851252E+03  0.00000000000E+00 0. -1.
      99926    2    1    2    0    0  0.00000000000E+00  0.35527136788E-14 -0.19515140000E+02  0.44580188504E+03  0.44537453903E+03 0.  0.
      99925    2    3    3    0    0  0.59235616557E+02 -0.19088539916E+02 -0.95713295644E+02  0.28665761827E+03  0.26294167513E+03 0.  0.
         25    1    4    4    0    0  0.48440575929E+02  0.21578137943E+02 -0.67454454248E+02  0.15168954127E+03  0.12509000000E+03 0.  0.
         25    1    4    4    0    0  0.10795040628E+02 -0.40666677859E+02 -0.28258841396E+02  0.13496807699E+03  0.12509000000E+03 0.  0.
         25    1    3    3    0    0 -0.59235616557E+02  0.19088539916E+02  0.76198155644E+02  0.15914426678E+03  0.12509000000E+03 0.  0.
<mgrwt>
<rscale>  2 0.44537454E+03</rscale>
<asrwt>0</asrwt>
<pdfrwt beam="1">  1       21 0.31344614E-01 0.44537454E+03</pdfrwt>
<pdfrwt beam="2">  1       21 0.34214487E-01 0.44537454E+03</pdfrwt>
<totfact> 0.74807233E+04</totfact>
</mgrwt>
</event>
<event>
 7    0  0.4685107E-002  0.4518912E+03  0.7546771E-02  0.1027160E+00
         21   -1    0    0  502  501  0.00000000000E+00  0.00000000000E+00  0.10518867066E+03  0.10518867066E+03  0.00000000000E+00 0. -1.
         21   -1    0    0  501  502 -0.00000000000E+00 -0.00000000000E+00 -0.48533177301E+03  0.48533177301E+03  0.00000000000E+00 0. -1.
      99926    2    1    2    0    0  0.00000000000E+00  0.00000000000E+00 -0.38014310235E+03  0.59052044367E+03  0.45189115518E+03 0.  0.
      99925    2    3    3    0    0 -0.70306708029E+01 -0.26404714481E+02 -0.37941764663E+03  0.46247875646E+03  0.26302511347E+03 0.  0.
         25    1    3    3    0    0  0.70306708029E+01  0.26404714481E+02 -0.72545571449E+00  0.12804168721E+03  0.12509000000E+03 0.  0.
         25    1    4    4    0    0 -0.14221321688E+02  0.42257484456E+01 -0.12623925351E+03  0.17833664842E+03  0.12509000000E+03 0.  0.
         25    1    4    4    0    0  0.71906508855E+01 -0.30630462926E+02 -0.25317839312E+03  0.28414210804E+03  0.12509000000E+03 0.  0.
<mgrwt>
<rscale>  2 0.45189116E+03</rscale>
<asrwt>0</asrwt>
<pdfrwt beam="1">  1       21 0.15468922E-01 0.45189116E+03</pdfrwt>
<pdfrwt beam="2">  1       21 0.71372320E-01 0.45189116E+03</pdfrwt>
<totfact> 0.60744380E+04</totfact>
</mgrwt>
</event>
<event>
 7    0  0.4685107E-002  0.4542692E+03  0.7546771E-02  0.1026457E+00
         21   -1    0    0  502  501  0.00000000000E+00  0.00000000000E+00  0.39899141347E+03  0.39899141347E+03  0.00000000000E+00 0. -1.
         21   -1    0    0  501  502 -0.00000000000E+00 -0.00000000000E+00 -0.12930133824E+03  0.12930133824E+03  0.00000000000E+00 0. -1.
      99926    2    1    2    0    0  0.00000000000E+00  0.00000000000E+00  0.26969007523E+03  0.52829275171E+03  0.45426918763E+03 0.  0.
      99925    2    3    3    0    0  0.78970038690E+02  0.49713353532E+02  0.24295641262E+03  0.36995803869E+03  0.26293240087E+03 0.  0.
         25    1    4    4    0    0  0.10624056808E+02  0.53336128497E+02  0.12034961573E+03  0.18190423660E+03  0.12509000000E+03 0.  0.
         25    1    4    4    0    0  0.68345981882E+02 -0.36227749656E+01  0.12260679688E+03  0.18805380209E+03  0.12509000000E+03 0.  0.
         25    1    3    3    0    0 -0.78970038690E+02 -0.49713353532E+02  0.26733662616E+02  0.15833471302E+03  0.12509000000E+03 0.  0.
<mgrwt>
<rscale>  2 0.45426919E+03</rscale>
<asrwt>0</asrwt>
<pdfrwt beam="1">  1       21 0.58675208E-01 0.45426919E+03</pdfrwt>
<pdfrwt beam="2">  1       21 0.19014903E-01 0.45426919E+03</pdfrwt>
<totfact> 0.63690394E+04</totfact>
</mgrwt>
</event>
<event>
 7    0  0.4685107E-002  0.4349963E+03  0.7546771E-02  0.1032293E+00
         21   -1    0    0  502  501  0.00000000000E+00  0.00000000000E+00  0.71548653598E+02  0.71548653598E+02  0.00000000000E+00 0.  1.
         21   -1    0    0  501  502 -0.00000000000E+00 -0.00000000000E+00 -0.66116472924E+03  0.66116472924E+03  0.00000000000E+00 0.  1.
      99926    2    1    2    0    0  0.71054273576E-14 -0.35527136788E-14 -0.58961607564E+03  0.73271338284E+03  0.43499630428E+03 0.  0.
      99925    2    3    3    0    0 -0.30491517231E+02  0.31860182434E+02 -0.24015662428E+03  0.35892972871E+03  0.26307896556E+03 0.  0.
         25    1    4    4    0    0 -0.31114518832E+02  0.27860009398E+02 -0.75014278041E+02  0.15171995062E+03  0.12509000000E+03 0.  0.
         25    1    3    3    0    0  0.30491517231E+02 -0.31860182434E+02 -0.34945945136E+03  0.37378365413E+03  0.12509000000E+03 0.  0.
         25    1    4    4    0    0  0.62300160034E+00  0.40001730365E+01 -0.16514234624E+03  0.20720977809E+03  0.12509000000E+03 0.  0.
<mgrwt>
<rscale>  2 0.43499630E+03</rscale>
<asrwt>0</asrwt>
<pdfrwt beam="1">  1       21 0.10521861E-01 0.43499630E+03</pdfrwt>
<pdfrwt beam="2">  1       21 0.97230108E-01 0.43499630E+03</pdfrwt>
<totfact> 0.60067427E+04</totfact>
</mgrwt>
</event>
<event>
 7    0  0.4685107E-002  0.4578840E+03  0.7546771E-02  0.1025397E+00
         21   -1    0    0  502  501  0.00000000000E+00  0.00000000000E+00  0.18088111612E+04  0.18088111612E+04  0.00000000000E+00 0. -1.
         21   -1    0    0  501  502 -0.00000000000E+00 -0.00000000000E+00 -0.28977288626E+02  0.28977288626E+02  0.00000000000E+00 0. -1.
      99926    2    1    2    0    0 -0.17763568394E-14  0.00000000000E+00  0.17798338726E+04  0.18377884498E+04  0.45788401626E+03 0.  0.
      99925    2    3    3    0    0 -0.75701724359E+01 -0.15120517890E+02  0.65724535504E+03  0.70812548001E+03  0.26302908803E+03 0.  0.
         25    1    4    4    0    0 -0.30800931328E+02 -0.65136176500E+01  0.41181497334E+03  0.43154397800E+03  0.12509000000E+03 0.  0.
         25    1    3    3    0    0  0.75701724359E+01  0.15120517890E+02  0.11225885175E+04  0.11296629698E+04  0.12509000000E+03 0.  0.
         25    1    4    4    0    0  0.23230758892E+02 -0.86069002400E+01  0.24543038170E+03  0.27658150201E+03  0.12509000000E+03 0.  0.
<mgrwt>
<rscale>  2 0.45788402E+03</rscale>
<asrwt>0</asrwt>
<pdfrwt beam="1">  1       21 0.26600156E+00 0.45788402E+03</pdfrwt>
<pdfrwt beam="2">  1       21 0.42613672E-02 0.45788402E+03</pdfrwt>
<totfact> 0.16179108E+04</totfact>
</mgrwt>
</event>
<event>
 7    0  0.4685107E-002  0.4476422E+03  0.7546771E-02  0.1028428E+00
         21   -1    0    0  502  501  0.00000000000E+00  0.00000000000E+00  0.93885448239E+02  0.93885448239E+02  0.00000000000E+00 0. -1.
         21   -1    0    0  501  502 -0.00000000000E+00 -0.00000000000E+00 -0.53358514693E+03  0.53358514693E+03  0.00000000000E+00 0. -1.
      99926    2    1    2    0    0  0.35527136788E-14  0.00000000000E+00 -0.43969969869E+03  0.62747059517E+03  0.44764218163E+03 0.  0.
      99925    2    3    3    0    0  0.16783086352E+02  0.85327349593E+02 -0.36383004906E+03  0.45727617572E+03  0.26299575606E+03 0.  0.
         25    1    4    4    0    0 -0.15269116496E+02  0.10926765409E+02 -0.19069939142E+03  0.22883685478E+03  0.12509000000E+03 0.  0.
         25    1    3    3    0    0 -0.16783086352E+02 -0.85327349593E+02 -0.75869649631E+02  0.17019441945E+03  0.12509000000E+03 0.  0.
         25    1    4    4    0    0  0.32052202848E+02  0.74400584184E+02 -0.17313065765E+03  0.22843932094E+03  0.12509000000E+03 0.  0.
<mgrwt>
<rscale>  2 0.44764218E+03</rscale>
<asrwt>0</asrwt>
<pdfrwt beam="1">  1       21 0.13806684E-01 0.44764218E+03</pdfrwt>
<pdfrwt beam="2">  1       21 0.78468402E-01 0.44764218E+03</pdfrwt>
<totfact> 0.60454133E+04</totfact>
</mgrwt>
</event>
<event>
 7    0  0.4685107E-002  0.4753274E+03  0.7546771E-02  0.1020427E+00
         21   -1    0    0  502  501  0.00000000000E+00  0.00000000000E+00  0.49567910071E+03  0.49567910071E+03  0.00000000000E+00 0. -1.
         21   -1    0    0  501  502 -0.00000000000E+00 -0.00000000000E+00 -0.11395284949E+03  0.11395284949E+03  0.00000000000E+00 0. -1.
      99926    2    1    2    0    0 -0.14210854715E-13  0.00000000000E+00  0.38172625122E+03  0.60963195020E+03  0.47532744906E+03 0.  0.
      99925    2    3    3    0    0 -0.11115046185E+03  0.16208683335E+02  0.32357532389E+03  0.43173820372E+03  0.26283024890E+03 0.  0.
         25    1    4    4    0    0 -0.18821001896E+02  0.24583023544E+02  0.16684308641E+03  0.21081432291E+03  0.12509000000E+03 0.  0.
         25    1    4    4    0    0 -0.92329459956E+02 -0.83743402095E+01  0.15673223748E+03  0.22092388081E+03  0.12509000000E+03 0.  0.
         25    1    3    3    0    0  0.11115046185E+03 -0.16208683335E+02  0.58150927328E+02  0.17789374647E+03  0.12509000000E+03 0.  0.
<mgrwt>
<rscale>  2 0.47532745E+03</rscale>
<asrwt>0</asrwt>
<pdfrwt beam="1">  1       21 0.72893985E-01 0.47532745E+03</pdfrwt>
<pdfrwt beam="2">  1       21 0.16757772E-01 0.47532745E+03</pdfrwt>
<totfact> 0.49626742E+04</totfact>
</mgrwt>
</event>
<event>
 7    0  0.4685107E-002  0.4555765E+03  0.7546771E-02  0.1026072E+00
         21   -1    0    0  502  501  0.00000000000E+00  0.00000000000E+00  0.51670451477E+02  0.51670451477E+02  0.00000000000E+00 0. -1.
         21   -1    0    0  501  502 -0.00000000000E+00 -0.00000000000E+00 -0.10042001728E+04  0.10042001728E+04  0.00000000000E+00 0. -1.
      99926    2    1    2    0    0  0.00000000000E+00  0.00000000000E+00 -0.95252972134E+03  0.10558706243E+04  0.45557645375E+03 0.  0.
      99925    2    3    3    0    0 -0.83208885543E+02 -0.66782606592E+02 -0.69024009312E+03  0.74631127239E+03  0.26299333447E+03 0.  0.
         25    1    3    3    0    0  0.83208885543E+02  0.66782606592E+02 -0.26228962822E+03  0.30955935190E+03  0.12509000000E+03 0.  0.
         25    1    4    4    0    0 -0.24170413328E+02  0.56831338179E+01 -0.32141110079E+03  0.34578766707E+03  0.12509000000E+03 0.  0.
         25    1    4    4    0    0 -0.59038472215E+02 -0.72465740410E+02 -0.36882899233E+03  0.40052360532E+03  0.12509000000E+03 0.  0.
<mgrwt>
<rscale>  2 0.45557645E+03</rscale>
<asrwt>0</asrwt>
<pdfrwt beam="1">  1       21 0.75985959E-02 0.45557645E+03</pdfrwt>
<pdfrwt beam="2">  1       21 0.14767649E+00 0.45557645E+03</pdfrwt>
<totfact> 0.36896431E+04</totfact>
</mgrwt>
</event>
<event>
 7    0  0.4685107E-002  0.4860289E+03  0.7546771E-02  0.1017491E+00
         21   -1    0    0  502  501  0.00000000000E+00  0.00000000000E+00  0.81286472495E+03  0.81286472495E+03  0.00000000000E+00 0. -1.
         21   -1    0    0  501  502 -0.00000000000E+00 -0.00000000000E+00 -0.72651728451E+02  0.72651728451E+02  0.00000000000E+00 0. -1.
      99926    2    1    2    0    0  0.00000000000E+00  0.00000000000E+00  0.74021299649E+03  0.88551645340E+03  0.48602891792E+03 0.  0.
      99925    2    3    3    0    0  0.47646157276E+02 -0.12453652272E+03  0.37446305014E+03  0.47661544685E+03  0.26298328172E+03 0.  0.
         25    1    3    3    0    0 -0.47646157276E+02  0.12453652272E+03  0.36574994635E+03  0.40890100654E+03  0.12509000000E+03 0.  0.
         25    1    4    4    0    0  0.55091800488E+02 -0.92570346878E+02  0.22296093677E+03  0.27742289565E+03  0.12509000000E+03 0.  0.
         25    1    4    4    0    0 -0.74456432115E+01 -0.31966175846E+02  0.15150211337E+03  0.19919255121E+03  0.12509000000E+03 0.  0.
<mgrwt>
<rscale>  2 0.48602892E+03</rscale>
<asrwt>0</asrwt>
<pdfrwt beam="1">  1       21 0.11953892E+00 0.48602892E+03</pdfrwt>
<pdfrwt beam="2">  1       21 0.10684078E-01 0.48602892E+03</pdfrwt>
<totfact> 0.34647298E+04</totfact>
</mgrwt>
</event>
<event>
 7    0  0.4685107E-002  0.4459299E+03  0.7546771E-02  0.1028943E+00
         21   -1    0    0  502  501  0.00000000000E+00  0.00000000000E+00  0.20909145156E+03  0.20909145156E+03  0.00000000000E+00 0. -1.
         21   -1    0    0  501  502 -0.00000000000E+00 -0.00000000000E+00 -0.23775895965E+03  0.23775895965E+03  0.00000000000E+00 0. -1.
      99926    2    1    2    0    0 -0.14210854715E-13  0.16653345369E-14 -0.28667508093E+02  0.44685041121E+03  0.44592988684E+03 0.  0.
      99925    2    3    3    0    0  0.76861189377E+02 -0.86783964801E+00  0.52296528386E+02  0.27918682279E+03  0.26325265347E+03 0.  0.
         25    1    3    3    0    0 -0.76861189377E+02  0.86783964801E+00 -0.80964036479E+02  0.16766358842E+03  0.12509000000E+03 0.  0.
         25    1    4    4    0    0  0.65166498525E+02  0.17184052445E+02  0.47696586564E+00  0.14209046338E+03  0.12509000000E+03 0.  0.
         25    1    4    4    0    0  0.11694690852E+02 -0.18051892093E+02  0.51819562520E+02  0.13709635940E+03  0.12509000000E+03 0.  0.
<mgrwt>
<rscale>  2 0.44592989E+03</rscale>
<asrwt>0</asrwt>
<pdfrwt beam="1">  1       21 0.30748743E-01 0.44592989E+03</pdfrwt>
<pdfrwt beam="2">  1       21 0.34964553E-01 0.44592989E+03</pdfrwt>
<totfact> 0.74386252E+04</totfact>
</mgrwt>
</event>
<event>
 7    0  0.4685107E-002  0.4518087E+03  0.7546771E-02  0.1027184E+00
         21   -1    0    0  502  501  0.00000000000E+00  0.00000000000E+00  0.10895947392E+03  0.10895947392E+03  0.00000000000E+00 0. -1.
         21   -1    0    0  501  502 -0.00000000000E+00 -0.00000000000E+00 -0.46836471674E+03  0.46836471674E+03  0.00000000000E+00 0. -1.
      99926    2    1    2    0    0  0.00000000000E+00  0.00000000000E+00 -0.35940524282E+03  0.57732419066E+03  0.45180869022E+03 0.  0.
      99925    2    3    3    0    0 -0.80078292053E+02 -0.16652442682E+02 -0.13251264910E+03  0.30563025644E+03  0.26298367778E+03 0.  0.
         25    1    4    4    0    0 -0.12171341431E+02  0.21400330157E+02 -0.71438926995E+02  0.14614083643E+03  0.12509000000E+03 0.  0.
         25    1    4    4    0    0 -0.67906950622E+02 -0.38052772838E+02 -0.61073722102E+02  0.15948942001E+03  0.12509000000E+03 0.  0.
         25    1    3    3    0    0  0.80078292053E+02  0.16652442682E+02 -0.22689259372E+03  0.27169393422E+03  0.12509000000E+03 0.  0.
<mgrwt>
<rscale>  2 0.45180869E+03</rscale>
<asrwt>0</asrwt>
<pdfrwt beam="1">  1       21 0.16023452E-01 0.45180869E+03</pdfrwt>
<pdfrwt beam="2">  1       21 0.68877164E-01 0.45180869E+03</pdfrwt>
<totfact> 0.61636697E+04</totfact>
</mgrwt>
</event>
<event>
 6    0  0.4685107E-002  0.4531349E+03  0.7546771E-02  0.1026791E+00
         21   -1    0    0  502  501  0.00000000000E+00  0.00000000000E+00  0.17875161726E+04  0.17875161726E+04  0.00000000000E+00 0.  1.
         21   -1    0    0  501  502 -0.00000000000E+00 -0.00000000000E+00 -0.28717390631E+02  0.28717390631E+02  0.00000000000E+00 0.  1.
      99926    2    1    2    0    0  0.00000000000E+00  0.00000000000E+00  0.17587987820E+04  0.18162335632E+04  0.45313485934E+03 0.  0.
         25    1    3    3    0    0  0.67262459532E+02 -0.32298239404E+02  0.92490052786E+03  0.93629904906E+03  0.12509000000E+03 0.  0.
         25    1    3    3    0    0  0.14310816533E+02  0.10273098568E+01  0.32054790098E+03  0.34438977883E+03  0.12509000000E+03 0.  0.
         25    1    3    3    0    0 -0.81573276066E+02  0.31270929547E+02  0.51335035312E+03  0.53554473534E+03  0.12509000000E+03 0.  0.
<mgrwt>
<rscale>  2 0.45313486E+03</rscale>
<asrwt>0</asrwt>
<pdfrwt beam="1">  1       21 0.26286995E+00 0.45313486E+03</pdfrwt>
<pdfrwt beam="2">  1       21 0.42231469E-02 0.45313486E+03</pdfrwt>
<totfact> 0.17197296E+04</totfact>
</mgrwt>
</event>
<event>
 7    0  0.4685107E-002  0.4584503E+03  0.7546771E-02  0.1025232E+00
         21   -1    0    0  502  501  0.00000000000E+00  0.00000000000E+00  0.23282724017E+03  0.23282724017E+03  0.00000000000E+00 0. -1.
         21   -1    0    0  501  502 -0.00000000000E+00 -0.00000000000E+00 -0.22567879041E+03  0.22567879041E+03  0.00000000000E+00 0. -1.
      99926    2    1    2    0    0  0.14210854715E-13  0.00000000000E+00  0.71484497541E+01  0.45850603058E+03  0.45845030237E+03 0.  0.
      99925    2    3    3    0    0  0.67240576603E+02 -0.74601533263E+02  0.62742552521E+02  0.28872706761E+03  0.26332490912E+03 0.  0.
         25    1    4    4    0    0  0.66875228750E+02 -0.65779283258E+02  0.38052432385E+02  0.16091832101E+03  0.12509000000E+03 0.  0.
         25    1    3    3    0    0 -0.67240576603E+02  0.74601533263E+02 -0.55594102766E+02  0.16977896298E+03  0.12509000000E+03 0.  0.
         25    1    4    4    0    0  0.36534785269E+00 -0.88222500054E+01  0.24690120136E+02  0.12780874660E+03  0.12509000000E+03 0.  0.
<mgrwt>
<rscale>  2 0.45845030E+03</rscale>
<asrwt>0</asrwt>
<pdfrwt beam="1">  1       21 0.34239300E-01 0.45845030E+03</pdfrwt>
<pdfrwt beam="2">  1       21 0.33188057E-01 0.45845030E+03</pdfrwt>
<totfact> 0.66441653E+04</totfact>
</mgrwt>
</event>
<event>
 7    0  0.4685107E-002  0.4787840E+03  0.7546771E-02  0.1019470E+00
         21   -1    0    0  502  501  0.00000000000E+00  0.00000000000E+00  0.51728969681E+02  0.51728969681E+02  0.00000000000E+00 0. -1.
         21   -1    0    0  501  502 -0.00000000000E+00 -0.00000000000E+00 -0.11078613797E+04  0.11078613797E+04  0.00000000000E+00 0. -1.
      99926    2    1    2    0    0  0.00000000000E+00  0.35527136788E-14 -0.10561324100E+04  0.11595903493E+04  0.47878399188E+03 0.  0.
      99925    2    3    3    0    0  0.13096109635E+03  0.15570828925E+02 -0.59151452050E+03  0.66068098804E+03  0.26309063177E+03 0.  0.
         25    1    4    4    0    0  0.86810492270E+02  0.32113476840E+02 -0.25693214650E+03  0.30038137920E+03  0.12509000000E+03 0.  0.
         25    1    3    3    0    0 -0.13096109635E+03 -0.15570828925E+02 -0.46461788949E+03  0.49890936131E+03  0.12509000000E+03 0.  0.
         25    1    4    4    0    0  0.44150604082E+02 -0.16542647915E+02 -0.33458237399E+03  0.36029960884E+03  0.12509000000E+03 0.  0.
<mgrwt>
<rscale>  2 0.47878399E+03</rscale>
<asrwt>0</asrwt>
<pdfrwt beam="1">  1       21 0.76072016E-02 0.47878399E+03</pdfrwt>
<pdfrwt beam="2">  1       21 0.16292079E+00 0.47878399E+03</pdfrwt>
<totfact> 0.27918760E+04</totfact>
</mgrwt>
</event>
<event>
 7    0  0.4685107E-002  0.4536260E+03  0.7546771E-02  0.1026646E+00
         21   -1    0    0  502  501  0.00000000000E+00  0.00000000000E+00  0.73471443343E+03  0.73471443343E+03  0.00000000000E+00 0. -1.
         21   -1    0    0  501  502 -0.00000000000E+00 -0.00000000000E+00 -0.70019213500E+02  0.70019213500E+02  0.00000000000E+00 0. -1.
      99926    2    1    2    0    0  0.00000000000E+00  0.00000000000E+00  0.66469521993E+03  0.80473364693E+03  0.45362595506E+03 0.  0.
      99925    2    3    3    0    0 -0.10058678162E+03 -0.33866885903E+02  0.48099800501E+03  0.55844755015E+03  0.26313479217E+03 0.  0.
         25    1    3    3    0    0  0.10058678162E+03  0.33866885903E+02  0.18369721492E+03  0.24628609677E+03  0.12509000000E+03 0.  0.
         25    1    4    4    0    0 -0.18840515714E+02 -0.11107199996E+01  0.17047170645E+03  0.21228355926E+03  0.12509000000E+03 0.  0.
         25    1    4    4    0    0 -0.81746265902E+02 -0.32756165904E+02  0.31052629856E+03  0.34616399090E+03  0.12509000000E+03 0.  0.
<mgrwt>
<rscale>  2 0.45362596E+03</rscale>
<asrwt>0</asrwt>
<pdfrwt beam="1">  1       21 0.10804624E+00 0.45362596E+03</pdfrwt>
<pdfrwt beam="2">  1       21 0.10296944E-01 0.45362596E+03</pdfrwt>
<totfact> 0.48052753E+04</totfact>
</mgrwt>
</event>
<event>
 7    0  0.4685107E-002  0.4856882E+03  0.7546771E-02  0.1017584E+00
         21   -1    0    0  502  501  0.00000000000E+00  0.00000000000E+00  0.64108411118E+02  0.64108411118E+02  0.00000000000E+00 0. -1.
         21   -1    0    0  501  502 -0.00000000000E+00 -0.00000000000E+00 -0.91989874368E+03  0.91989874368E+03  0.00000000000E+00 0. -1.
      99926    2    1    2    0    0  0.00000000000E+00  0.00000000000E+00 -0.85579033257E+03  0.98400715480E+03  0.48568815858E+03 0.  0.
      99925    2    3    3    0    0 -0.72872219108E+02  0.67285305191E+02 -0.72516462055E+03  0.77773486546E+03  0.26300213200E+03 0.  0.
         25    1    4    4    0    0 -0.11174660593E+02  0.26743747271E+02 -0.43007666081E+03  0.44883576432E+03  0.12509000000E+03 0.  0.
         25    1    4    4    0    0 -0.61697558515E+02  0.40541557921E+02 -0.29508795974E+03  0.32889910114E+03  0.12509000000E+03 0.  0.
         25    1    3    3    0    0  0.72872219108E+02 -0.67285305191E+02 -0.13062571201E+03  0.20627228934E+03  0.12509000000E+03 0.  0.
<mgrwt>
<rscale>  2 0.48568816E+03</rscale>
<asrwt>0</asrwt>
<pdfrwt beam="1">  1       21 0.94277074E-02 0.48568816E+03</pdfrwt>
<pdfrwt beam="2">  1       21 0.13527923E+00 0.48568816E+03</pdfrwt>
<totfact> 0.31521469E+04</totfact>
</mgrwt>
</event>
<event>
 7    0  0.4685107E-002  0.4501153E+03  0.7546771E-02  0.1027688E+00
         21   -1    0    0  502  501  0.00000000000E+00  0.00000000000E+00  0.77119015567E+03  0.77119015567E+03  0.00000000000E+00 0.  1.
         21   -1    0    0  501  502 -0.00000000000E+00 -0.00000000000E+00 -0.65678942019E+02  0.65678942019E+02  0.00000000000E+00 0.  1.
      99926    2    1    2    0    0  0.71054273576E-14 -0.35527136788E-14  0.70551121365E+03  0.83686909769E+03  0.45011533420E+03 0.  0.
      99925    2    3    3    0    0 -0.49855479995E+02  0.21068253525E+02  0.27104025815E+03  0.38152092380E+03  0.26299420823E+03 0.  0.
         25    1    4    4    0    0 -0.12777323814E+02  0.83797803043E+01  0.78085052941E+02  0.14825068065E+03  0.12509000000E+03 0.  0.
         25    1    3    3    0    0  0.49855479995E+02 -0.21068253525E+02  0.43447095550E+03  0.45534817390E+03  0.12509000000E+03 0.  0.
         25    1    4    4    0    0 -0.37078156181E+02  0.12688473221E+02  0.19295520521E+03  0.23327024314E+03  0.12509000000E+03 0.  0.
<mgrwt>
<rscale>  2 0.45011533E+03</rscale>
<asrwt>0</asrwt>
<pdfrwt beam="1">  1       21 0.11341031E+00 0.45011533E+03</pdfrwt>
<pdfrwt beam="2">  1       21 0.96586684E-02 0.45011533E+03</pdfrwt>
<totfact> 0.47839779E+04</totfact>
</mgrwt>
</event>
<event>
 7    0  0.4685107E-002  0.4544934E+03  0.7546771E-02  0.1026390E+00
         21   -1    0    0  502  501  0.00000000000E+00  0.00000000000E+00  0.41745891161E+03  0.41745891161E+03  0.00000000000E+00 0. -1.
         21   -1    0    0  501  502 -0.00000000000E+00 -0.00000000000E+00 -0.12370334026E+03  0.12370334026E+03  0.00000000000E+00 0. -1.
      99926    2    1    2    0    0  0.17763568394E-14  0.14210854715E-13  0.29375557135E+03  0.54116225187E+03  0.45449339615E+03 0.  0.
      99925    2    3    3    0    0  0.11323982163E+02 -0.11014628881E+03  0.15962823683E+03  0.32692386250E+03  0.26294029811E+03 0.  0.
         25    1    4    4    0    0 -0.30039207180E+01 -0.43439579586E+02  0.12074012117E+03  0.17922529279E+03  0.12509000000E+03 0.  0.
         25    1    3    3    0    0 -0.11323982163E+02  0.11014628881E+03  0.13412733452E+03  0.21423838936E+03  0.12509000000E+03 0.  0.
         25    1    4    4    0    0  0.14327902881E+02 -0.66706709226E+02  0.38888115658E+02  0.14769856972E+03  0.12509000000E+03 0.  0.
<mgrwt>
<rscale>  2 0.45449340E+03</rscale>
<asrwt>0</asrwt>
<pdfrwt beam="1">  1       21 0.61391016E-01 0.45449340E+03</pdfrwt>
<pdfrwt beam="2">  1       21 0.18191668E-01 0.45449340E+03</pdfrwt>
<totfact> 0.62705337E+04</totfact>
</mgrwt>
</event>
<event>
 7    0  0.4685107E-002  0.4284406E+03  0.7546771E-02  0.1034354E+00
         21   -1    0    0  502  501  0.00000000000E+00  0.00000000000E+00  0.22215775557E+03  0.22215775557E+03  0.00000000000E+00 0. -1.
         21   -1    0    0  501  502 -0.00000000000E+00 -0.00000000000E+00 -0.20656640174E+03  0.20656640174E+03  0.00000000000E+00 0. -1.
      99926    2    1    2    0    0  0.17763568394E-14  0.00000000000E+00  0.15591353826E+02  0.42872415731E+03  0.42844055918E+03 0.  0.
      99925    2    3    3    0    0 -0.96265824193E+01 -0.79773203003E+02 -0.20441442193E+02  0.27574603634E+03  0.26298591026E+03 0.  0.
         25    1    4    4    0    0  0.13148047343E+02 -0.39189494512E+02 -0.46597674733E+02  0.13974097116E+03  0.12509000000E+03 0.  0.
         25    1    3    3    0    0  0.96265824193E+01  0.79773203003E+02  0.36032796019E+02  0.15297812097E+03  0.12509000000E+03 0.  0.
         25    1    4    4    0    0 -0.22774629763E+02 -0.40583708491E+02  0.26156232541E+02  0.13600506519E+03  0.12509000000E+03 0.  0.
<mgrwt>
<rscale>  2 0.42844056E+03</rscale>
<asrwt>0</asrwt>
<pdfrwt beam="1">  1       21 0.32670258E-01 0.42844056E+03</pdfrwt>
<pdfrwt beam="2">  1       21 0.30377412E-01 0.42844056E+03</pdfrwt>
<totfact> 0.87672830E+04</totfact>
</mgrwt>
</event>
<event>
 7    0  0.4685107E-002  0.4467643E+03  0.7546771E-02  0.1028691E+00
         21   -1    0    0  502  501  0.00000000000E+00  0.00000000000E+00  0.14391459368E+03  0.14391459368E+03  0.00000000000E+00 0. -1.
         21   -1    0    0  501  502 -0.00000000000E+00 -0.00000000000E+00 -0.34673057291E+03  0.34673057291E+03  0.00000000000E+00 0. -1.
      99926    2    1    2    0    0  0.00000000000E+00  0.00000000000E+00 -0.20281597923E+03  0.49064516658E+03  0.44676432049E+03 0.  0.
      99925    2    3    3    0    0  0.77378951391E+02 -0.54757633926E+02 -0.17820396434E+03  0.33177679349E+03  0.26331214784E+03 0.  0.
         25    1    4    4    0    0  0.10602472781E+02 -0.49095129456E+02 -0.11166543919E+03  0.17504120251E+03  0.12509000000E+03 0.  0.
         25    1    3    3    0    0 -0.77378951391E+02  0.54757633926E+02 -0.24612014888E+02  0.15886837309E+03  0.12509000000E+03 0.  0.
         25    1    4    4    0    0  0.66776478610E+02 -0.56625044704E+01 -0.66538525150E+02  0.15673559099E+03  0.12509000000E+03 0.  0.
<mgrwt>
<rscale>  2 0.44676432E+03</rscale>
<asrwt>0</asrwt>
<pdfrwt beam="1">  1       21 0.21163911E-01 0.44676432E+03</pdfrwt>
<pdfrwt beam="2">  1       21 0.50989789E-01 0.44676432E+03</pdfrwt>
<totfact> 0.70425960E+04</totfact>
</mgrwt>
</event>
<event>
 7    0  0.4685107E-002  0.4712752E+03  0.7546771E-02  0.1021561E+00
         21   -1    0    0  502  501  0.00000000000E+00  0.00000000000E+00  0.23778960013E+03  0.23778960013E+03  0.00000000000E+00 0. -1.
         21   -1    0    0  501  502 -0.00000000000E+00 -0.00000000000E+00 -0.23350510222E+03  0.23350510222E+03  0.00000000000E+00 0. -1.
      99926    2    1    2    0    0  0.00000000000E+00  0.00000000000E+00  0.42844979108E+01  0.47129470234E+03  0.47127522695E+03 0.  0.
      99925    2    3    3    0    0  0.16223015329E+02 -0.44991270113E+02  0.12117920119E+03  0.29353283813E+03  0.26303940322E+03 0.  0.
         25    1    3    3    0    0 -0.16223015329E+02  0.44991270113E+02 -0.11689470328E+03  0.17776186421E+03  0.12509000000E+03 0.  0.
         25    1    4    4    0    0 -0.45962494009E+01 -0.60466479889E+02  0.72846810439E+02  0.15694421490E+03  0.12509000000E+03 0.  0.
         25    1    4    4    0    0  0.20819264730E+02  0.15475209776E+02  0.48332390751E+02  0.13658862323E+03  0.12509000000E+03 0.  0.
<mgrwt>
<rscale>  2 0.47127523E+03</rscale>
<asrwt>0</asrwt>
<pdfrwt beam="1">  1       21 0.34969059E-01 0.47127523E+03</pdfrwt>
<pdfrwt beam="2">  1       21 0.34338985E-01 0.47127523E+03</pdfrwt>
<totfact> 0.59286985E+04</totfact>
</mgrwt>
</event>
<event>
 7    0  0.4685107E-002  0.4341373E+03  0.7546771E-02  0.1032561E+00
         21   -1    0    0  502  501  0.00000000000E+00  0.00000000000E+00  0.15837484037E+03  0.15837484037E+03  0.00000000000E+00 0.  1.
         21   -1    0    0  501  502 -0.00000000000E+00 -0.00000000000E+00 -0.29751438630E+03  0.29751438630E+03  0.00000000000E+00 0.  1.
      99926    2    1    2    0    0  0.00000000000E+00  0.00000000000E+00 -0.13913954594E+03  0.45588922667E+03  0.43413727524E+03 0.  0.
      99925    2    3    3    0    0  0.51083998433E+02  0.63206699539E+02 -0.13513169336E+03  0.30666378399E+03  0.26301604532E+03 0.  0.
         25    1    4    4    0    0  0.56252566256E+01  0.63920565582E+02 -0.85903661642E+02  0.16475566576E+03  0.12509000000E+03 0.  0.
         25    1    3    3    0    0 -0.51083998433E+02 -0.63206699539E+02 -0.40078525776E+01  0.14922544269E+03  0.12509000000E+03 0.  0.
         25    1    4    4    0    0  0.45458741808E+02 -0.71386604346E+00 -0.49228031718E+02  0.14190811823E+03  0.12509000000E+03 0.  0.
<mgrwt>
<rscale>  2 0.43413728E+03</rscale>
<asrwt>0</asrwt>
<pdfrwt beam="1">  1       21 0.23290418E-01 0.43413728E+03</pdfrwt>
<pdfrwt beam="2">  1       21 0.43752116E-01 0.43413728E+03</pdfrwt>
<totfact> 0.81117419E+04</totfact>
</mgrwt>
</event>
<event>
 7    0  0.4685107E-002  0.4489707E+03  0.7546771E-02  0.1028029E+00
         21   -1    0    0  502  501  0.00000000000E+00  0.00000000000E+00  0.88331262774E+03  0.88331262774E+03  0.00000000000E+00 0.  1.
         21   -1    0    0  501  502 -0.00000000000E+00 -0.00000000000E+00 -0.57050781060E+02  0.57050781060E+02  0.00000000000E+00 0.  1.
      99926    2    1    2    0    0  0.00000000000E+00  0.00000000000E+00  0.82626184668E+03  0.94036340880E+03  0.44897071322E+03 0.  0.
      99925    2    3    3    0    0 -0.10184859612E+03 -0.12507543963E+02  0.57962456735E+03  0.64539386657E+03  0.26464887822E+03 0.  0.
         25    1    3    3    0    0  0.10184859612E+03  0.12507543963E+02  0.24663727933E+03  0.29496954223E+03  0.12509000000E+03 0.  0.
         25    1    4    4    0    0 -0.71488006300E+02 -0.18237799473E+02  0.38975659852E+03  0.41593372857E+03  0.12509000000E+03 0.  0.
         25    1    4    4    0    0 -0.30360589819E+02  0.57302555101E+01  0.18986796884E+03  0.22946013800E+03  0.12509000000E+03 0.  0.
<mgrwt>
<rscale>  2 0.44897071E+03</rscale>
<asrwt>0</asrwt>
<pdfrwt beam="1">  1       21 0.12989891E+00 0.44897071E+03</pdfrwt>
<pdfrwt beam="2">  1       21 0.83898213E-02 0.44897071E+03</pdfrwt>
<totfact> 0.43551049E+04</totfact>
</mgrwt>
</event>
<event>
 7    0  0.4685107E-002  0.4577940E+03  0.7546771E-02  0.1025423E+00
         21   -1    0    0  502  501  0.00000000000E+00  0.00000000000E+00  0.31009026209E+03  0.31009026209E+03  0.00000000000E+00 0.  1.
         21   -1    0    0  501  502 -0.00000000000E+00 -0.00000000000E+00 -0.16896314320E+03  0.16896314320E+03  0.00000000000E+00 0.  1.
      99926    2    1    2    0    0  0.00000000000E+00  0.17763568394E-14  0.14112711889E+03  0.47905340529E+03  0.45779395085E+03 0.  0.
      99925    2    3    3    0    0  0.77868288408E+02  0.43848345393E+01 -0.96771118097E+00  0.27430686455E+03  0.26298407244E+03 0.  0.
         25    1    4    4    0    0  0.75499470438E+02  0.22573009594E+02  0.16850021011E+01  0.14785147321E+03  0.12509000000E+03 0.  0.
         25    1    3    3    0    0 -0.77868288408E+02 -0.43848345393E+01  0.14209483007E+03  0.20474654074E+03  0.12509000000E+03 0.  0.
         25    1    4    4    0    0  0.23688179700E+01 -0.18188175054E+02 -0.26527132820E+01  0.12645539134E+03  0.12509000000E+03 0.  0.
<mgrwt>
<rscale>  2 0.45779395E+03</rscale>
<asrwt>0</asrwt>
<pdfrwt beam="1">  1       21 0.45601509E-01 0.45779395E+03</pdfrwt>
<pdfrwt beam="2">  1       21 0.24847521E-01 0.45779395E+03</pdfrwt>
<totfact> 0.65308800E+04</totfact>
</mgrwt>
</event>
<event>
 7    0  0.4685107E-002  0.4604192E+03  0.7546771E-02  0.1024660E+00
         21   -1    0    0  502  501  0.00000000000E+00  0.00000000000E+00  0.44952294806E+03  0.44952294806E+03  0.00000000000E+00 0.  1.
         21   -1    0    0  501  502 -0.00000000000E+00 -0.00000000000E+00 -0.11789491511E+03  0.11789491511E+03  0.00000000000E+00 0.  1.
      99926    2    1    2    0    0  0.00000000000E+00 -0.71054273576E-14  0.33162803295E+03  0.56741786317E+03  0.46041924287E+03 0.  0.
      99925    2    3    3    0    0 -0.10320915317E+03  0.34427342409E+02  0.15074398750E+03  0.32205299771E+03  0.26297720883E+03 0.  0.
         25    1    4    4    0    0 -0.51460029110E+02  0.51819340385E+02  0.53257859647E+02  0.15432850141E+03  0.12509000000E+03 0.  0.
         25    1    3    3    0    0  0.10320915317E+03 -0.34427342409E+02  0.18088404545E+03  0.24536486546E+03  0.12509000000E+03 0.  0.
         25    1    4    4    0    0 -0.51749124056E+02 -0.17391997975E+02  0.97486127850E+02  0.16772449629E+03  0.12509000000E+03 0.  0.
<mgrwt>
<rscale>  2 0.46041924E+03</rscale>
<asrwt>0</asrwt>
<pdfrwt beam="1">  1       21 0.66106316E-01 0.46041924E+03</pdfrwt>
<pdfrwt beam="2">  1       21 0.17337488E-01 0.46041924E+03</pdfrwt>
<totfact> 0.58195456E+04</totfact>
</mgrwt>
</event>
<event>
 7    0  0.4685107E-002  0.4514558E+03  0.7546771E-02  0.1027289E+00
         21   -1    0    0  502  501  0.00000000000E+00  0.00000000000E+00  0.34795306778E+03  0.34795306778E+03  0.00000000000E+00 0. -1.
         21   -1    0    0  501  502 -0.00000000000E+00 -0.00000000000E+00 -0.14643663892E+03  0.14643663892E+03  0.00000000000E+00 0. -1.
      99926    2    1    2    0    0  0.00000000000E+00  0.00000000000E+00  0.20151642886E+03  0.49438970670E+03  0.45145576858E+03 0.  0.
      99925    2    3    3    0    0 -0.30474796578E+02  0.10502705659E+03  0.13837727713E+03  0.31664422455E+03  0.26297509059E+03 0.  0.
         25    1    4    4    0    0 -0.81224663601E+01  0.16063701223E+02  0.86235886493E+02  0.15299723258E+03  0.12509000000E+03 0.  0.
         25    1    4    4    0    0 -0.22352330218E+02  0.88963355368E+02  0.52141390642E+02  0.16364699198E+03  0.12509000000E+03 0.  0.
         25    1    3    3    0    0  0.30474796578E+02 -0.10502705659E+03  0.63139151724E+02  0.17774548215E+03  0.12509000000E+03 0.  0.
<mgrwt>
<rscale>  2 0.45145577E+03</rscale>
<asrwt>0</asrwt>
<pdfrwt beam="1">  1       21 0.51169569E-01 0.45145577E+03</pdfrwt>
<pdfrwt beam="2">  1       21 0.21534800E-01 0.45145577E+03</pdfrwt>
<totfact> 0.67547192E+04</totfact>
</mgrwt>
</event>
<event>
 7    0  0.4685107E-002  0.4518322E+03  0.7546771E-02  0.1027177E+00
         21   -1    0    0  502  501  0.00000000000E+00  0.00000000000E+00  0.97891195063E+03  0.97891195063E+03  0.00000000000E+00 0. -1.
         21   -1    0    0  501  502 -0.00000000000E+00 -0.00000000000E+00 -0.52137569380E+02  0.52137569380E+02  0.00000000000E+00 0. -1.
      99926    2    1    2    0    0  0.35527136788E-14  0.00000000000E+00  0.92677438125E+03  0.10310495200E+04  0.45183222436E+03 0.  0.
      99925    2    3    3    0    0 -0.22024586742E+02  0.78514405768E+02  0.75384366925E+03  0.80257165766E+03  0.26304257006E+03 0.  0.
         25    1    4    4    0    0 -0.15787550859E+02  0.46710472053E+02  0.49956094764E+03  0.51733911844E+03  0.12509000000E+03 0.  0.
         25    1    4    4    0    0 -0.62370358832E+01  0.31803933715E+02  0.25428272161E+03  0.28523253921E+03  0.12509000000E+03 0.  0.
         25    1    3    3    0    0  0.22024586742E+02 -0.78514405768E+02  0.17293071200E+03  0.22847786236E+03  0.12509000000E+03 0.  0.
<mgrwt>
<rscale>  2 0.45183222E+03</rscale>
<asrwt>0</asrwt>
<pdfrwt beam="1">  1       21 0.14395763E+00 0.45183222E+03</pdfrwt>
<pdfrwt beam="2">  1       21 0.76672902E-02 0.45183222E+03</pdfrwt>
<totfact> 0.38934509E+04</totfact>
</mgrwt>
</event>
<event>
 7    0  0.4685107E-002  0.4656316E+03  0.7546771E-02  0.1023160E+00
         21   -1    0    0  502  501  0.00000000000E+00  0.00000000000E+00  0.14176054319E+03  0.14176054319E+03  0.00000000000E+00 0. -1.
         21   -1    0    0  501  502 -0.00000000000E+00 -0.00000000000E+00 -0.38235741978E+03  0.38235741978E+03  0.00000000000E+00 0. -1.
      99926    2    1    2    0    0  0.00000000000E+00  0.00000000000E+00 -0.24059687659E+03  0.52411796297E+03  0.46563159481E+03 0.  0.
      99925    2    3    3    0    0  0.13260531858E+02  0.11013434655E+03 -0.90352736383E+02  0.29933756845E+03  0.26293335072E+03 0.  0.
         25    1    3    3    0    0 -0.13260531858E+02 -0.11013434655E+03 -0.15024414021E+03  0.22478039452E+03  0.12509000000E+03 0.  0.
         25    1    4    4    0    0  0.39298322165E+02  0.77486340520E+02 -0.34736554378E+02  0.15621340340E+03  0.12509000000E+03 0.  0.
         25    1    4    4    0    0 -0.26037790307E+02  0.32648006026E+02 -0.55616182004E+02  0.14312416505E+03  0.12509000000E+03 0.  0.
<mgrwt>
<rscale>  2 0.46563159E+03</rscale>
<asrwt>0</asrwt>
<pdfrwt beam="1">  1       21 0.20847139E-01 0.46563159E+03</pdfrwt>
<pdfrwt beam="2">  1       21 0.56229032E-01 0.46563159E+03</pdfrwt>
<totfact> 0.58513647E+04</totfact>
</mgrwt>
</event>
<event>
 7    0  0.4685107E-002  0.4188146E+03  0.7546771E-02  0.1037453E+00
         21   -1    0    0  502  501  0.00000000000E+00  0.00000000000E+00  0.44067200342E+03  0.44067200342E+03  0.00000000000E+00 0.  1.
         21   -1    0    0  501  502 -0.00000000000E+00 -0.00000000000E+00 -0.99510317194E+02  0.99510317194E+02  0.00000000000E+00 0.  1.
      99926    2    1    2    0    0  0.00000000000E+00  0.00000000000E+00  0.34116168622E+03  0.54018232061E+03  0.41881456918E+03 0.  0.
      99925    2    3    3    0    0  0.39906829659E+02  0.52923213156E+02  0.17970222953E+03  0.32544972923E+03  0.26311824987E+03 0.  0.
         25    1    4    4    0    0  0.45488954238E+02  0.39919158621E+02  0.12941061641E+03  0.18988786144E+03  0.12509000000E+03 0.  0.
         25    1    3    3    0    0 -0.39906829659E+02 -0.52923213156E+02  0.16145945669E+03  0.21473259138E+03  0.12509000000E+03 0.  0.
         25    1    4    4    0    0 -0.55821245785E+01  0.13004054535E+02  0.50291613117E+02  0.13556186779E+03  0.12509000000E+03 0.  0.
<mgrwt>
<rscale>  2 0.41881457E+03</rscale>
<asrwt>0</asrwt>
<pdfrwt beam="1">  1       21 0.64804706E-01 0.41881457E+03</pdfrwt>
<pdfrwt beam="2">  1       21 0.14633870E-01 0.41881457E+03</pdfrwt>
<totfact> 0.84150846E+04</totfact>
</mgrwt>
</event>
<event>
 7    0  0.4685107E-002  0.4564960E+03  0.7546771E-02  0.1025802E+00
         21   -1    0    0  502  501  0.00000000000E+00  0.00000000000E+00  0.15467110239E+03  0.15467110239E+03  0.00000000000E+00 0.  1.
         21   -1    0    0  501  502 -0.00000000000E+00 -0.00000000000E+00 -0.33682534731E+03  0.33682534731E+03  0.00000000000E+00 0.  1.
      99926    2    1    2    0    0  0.71054273576E-14 -0.17763568394E-14 -0.18215424492E+03  0.49149644969E+03  0.45649599245E+03 0.  0.
      99925    2    3    3    0    0 -0.54311869660E+02  0.15944230433E+02 -0.71527504976E+01  0.26906212496E+03  0.26294346841E+03 0.  0.
         25    1    3    3    0    0  0.54311869660E+02 -0.15944230433E+02 -0.17500149442E+03  0.22243432474E+03  0.12509000000E+03 0.  0.
         25    1    4    4    0    0 -0.21063266117E+02 -0.31482767915E+02  0.40204694394E+01  0.13076122564E+03  0.12509000000E+03 0.  0.
         25    1    4    4    0    0 -0.33248603543E+02  0.47426998348E+02 -0.11173219937E+02  0.13830089932E+03  0.12509000000E+03 0.  0.
<mgrwt>
<rscale>  2 0.45649599E+03</rscale>
<asrwt>0</asrwt>
<pdfrwt beam="1">  1       21 0.22745750E-01 0.45649599E+03</pdfrwt>
<pdfrwt beam="2">  1       21 0.49533139E-01 0.45649599E+03</pdfrwt>
<totfact> 0.65095752E+04</totfact>
</mgrwt>
</event>
<event>
 7    0  0.4685107E-002  0.4233314E+03  0.7546771E-02  0.1035987E+00
         21   -1    0    0  502  501  0.00000000000E+00  0.00000000000E+00  0.51636856372E+02  0.51636856372E+02  0.00000000000E+00 0. -1.
         21   -1    0    0  501  502 -0.00000000000E+00 -0.00000000000E+00 -0.86764334477E+03  0.86764334477E+03  0.00000000000E+00 0. -1.
      99926    2    1    2    0    0  0.00000000000E+00  0.26645352591E-14 -0.81600648840E+03  0.91928020114E+03  0.42333142938E+03 0.  0.
      99925    2    3    3    0    0  0.30960973049E+02 -0.76419224133E+01 -0.37073079483E+03  0.45566944607E+03  0.26301395594E+03 0.  0.
         25    1    4    4    0    0  0.30026120500E+02 -0.34641265781E+02 -0.15084603761E+03  0.20125511265E+03  0.12509000000E+03 0.  0.
         25    1    4    4    0    0  0.93485254821E+00  0.26999343368E+02 -0.21988475722E+03  0.25441433342E+03  0.12509000000E+03 0.  0.
         25    1    3    3    0    0 -0.30960973049E+02  0.76419224133E+01 -0.44527569357E+03  0.46361075507E+03  0.12509000000E+03 0.  0.
<mgrwt>
<rscale>  2 0.42333143E+03</rscale>
<asrwt>0</asrwt>
<pdfrwt beam="1">  1       21 0.75936561E-02 0.42333143E+03</pdfrwt>
<pdfrwt beam="2">  1       21 0.12759460E+00 0.42333143E+03</pdfrwt>
<totfact> 0.54771266E+04</totfact>
</mgrwt>
</event>
<event>
 7    0  0.4685107E-002  0.4577456E+03  0.7546771E-02  0.1025437E+00
         21   -1    0    0  502  501  0.00000000000E+00  0.00000000000E+00  0.73102066859E+02  0.73102066859E+02  0.00000000000E+00 0. -1.
         21   -1    0    0  501  502 -0.00000000000E+00 -0.00000000000E+00 -0.71657018259E+03  0.71657018259E+03  0.00000000000E+00 0. -1.
      99926    2    1    2    0    0 -0.71054273576E-14 -0.14210854715E-13 -0.64346811573E+03  0.78967224945E+03  0.45774561231E+03 0.  0.
      99925    2    3    3    0    0 -0.57035253577E+02 -0.10051754047E+03 -0.38894922804E+03  0.48343023994E+03  0.26280505857E+03 0.  0.
         25    1    3    3    0    0  0.57035253577E+02  0.10051754047E+03 -0.25451888770E+03  0.30624200951E+03  0.12509000000E+03 0.  0.
         25    1    4    4    0    0 -0.42374281556E+02 -0.46554459016E+02 -0.13309431547E+03  0.19319550280E+03  0.12509000000E+03 0.  0.
         25    1    4    4    0    0 -0.14660972021E+02 -0.53963081453E+02 -0.25585491257E+03  0.29023473714E+03  0.12509000000E+03 0.  0.
<mgrwt>
<rscale>  2 0.45774561E+03</rscale>
<asrwt>0</asrwt>
<pdfrwt beam="1">  1       21 0.10750305E-01 0.45774561E+03</pdfrwt>
<pdfrwt beam="2">  1       21 0.10537796E+00 0.45774561E+03</pdfrwt>
<totfact> 0.47242164E+04</totfact>
</mgrwt>
</event>
<event>
 7    0  0.4685107E-002  0.4579367E+03  0.7546771E-02  0.1025381E+00
         21   -1    0    0  502  501  0.00000000000E+00  0.00000000000E+00  0.38388935137E+02  0.38388935137E+02  0.00000000000E+00 0. -1.
         21   -1    0    0  501  502 -0.00000000000E+00 -0.00000000000E+00 -0.13656672525E+04  0.13656672525E+04  0.00000000000E+00 0. -1.
      99926    2    1    2    0    0  0.00000000000E+00 -0.17763568394E-14 -0.13272783173E+04  0.14040561876E+04  0.45793672739E+03 0.  0.
      99925    2    3    3    0    0  0.57088704183E+02  0.15949768481E+02 -0.11395414548E+04  0.11708049220E+04  0.26213722144E+03 0.  0.
         25    1    3    3    0    0 -0.57088704183E+02 -0.15949768481E+02 -0.18773686250E+03  0.23325126559E+03  0.12509000000E+03 0.  0.
         25    1    4    4    0    0  0.53436731334E+02 -0.92968082981E+01 -0.69733656437E+03  0.71054043305E+03  0.12509000000E+03 0.  0.
         25    1    4    4    0    0  0.36519728488E+01  0.25246576779E+02 -0.44220489046E+03  0.46026448895E+03  0.12509000000E+03 0.  0.
<mgrwt>
<rscale>  2 0.45793673E+03</rscale>
<asrwt>0</asrwt>
<pdfrwt beam="1">  1       21 0.56454327E-02 0.45793673E+03</pdfrwt>
<pdfrwt beam="2">  1       21 0.20083338E+00 0.45793673E+03</pdfrwt>
<totfact> 0.25634102E+04</totfact>
</mgrwt>
</event>
<event>
 7    0  0.4685107E-002  0.4422069E+03  0.7546771E-02  0.1030072E+00
         21   -1    0    0  502  501  0.00000000000E+00  0.00000000000E+00  0.21395080991E+03  0.21395080991E+03  0.00000000000E+00 0. -1.
         21   -1    0    0  501  502 -0.00000000000E+00 -0.00000000000E+00 -0.22849517370E+03  0.22849517370E+03  0.00000000000E+00 0. -1.
      99926    2    1    2    0    0  0.00000000000E+00 -0.14210854715E-13 -0.14544363793E+02  0.44244598361E+03  0.44220686324E+03 0.  0.
      99925    2    3    3    0    0 -0.48877776591E+02  0.87562597787E+02 -0.18954435702E+02  0.28206143819E+03  0.26295082945E+03 0.  0.
         25    1    4    4    0    0 -0.32165954347E+02  0.61874568388E+02  0.26187732324E+02  0.14558989064E+03  0.12509000000E+03 0.  0.
         25    1    3    3    0    0  0.48877776591E+02 -0.87562597787E+02  0.44100719092E+01  0.16038454542E+03  0.12509000000E+03 0.  0.
         25    1    4    4    0    0 -0.16711822244E+02  0.25688029399E+02 -0.45142168027E+02  0.13647154755E+03  0.12509000000E+03 0.  0.
<mgrwt>
<rscale>  2 0.44220686E+03</rscale>
<asrwt>0</asrwt>
<pdfrwt beam="1">  1       21 0.31463355E-01 0.44220686E+03</pdfrwt>
<pdfrwt beam="2">  1       21 0.33602231E-01 0.44220686E+03</pdfrwt>
<totfact> 0.77044561E+04</totfact>
</mgrwt>
</event>
<event>
 7    0  0.4685107E-002  0.4396830E+03  0.7546771E-02  0.1030844E+00
         21   -1    0    0  502  501  0.00000000000E+00  0.00000000000E+00  0.27704699436E+03  0.27704699436E+03  0.00000000000E+00 0. -1.
         21   -1    0    0  501  502 -0.00000000000E+00 -0.00000000000E+00 -0.17444794796E+03  0.17444794796E+03  0.00000000000E+00 0. -1.
      99926    2    1    2    0    0 -0.71054273576E-14  0.14210854715E-13  0.10259904641E+03  0.45149494232E+03  0.43968297513E+03 0.  0.
      99925    2    3    3    0    0 -0.53063440242E+02  0.79362618321E+02  0.89581736010E+02  0.29359905147E+03  0.26279528482E+03 0.  0.
         25    1    4    4    0    0 -0.48659596022E+02  0.70173409910E+02  0.28884624580E+02  0.15418785095E+03  0.12509000000E+03 0.  0.
         25    1    3    3    0    0  0.53063440242E+02 -0.79362618321E+02  0.13017310398E+02  0.15789589085E+03  0.12509000000E+03 0.  0.
         25    1    4    4    0    0 -0.44038442204E+01  0.91892084115E+01  0.60697111430E+02  0.13941120052E+03  0.12509000000E+03 0.  0.
<mgrwt>
<rscale>  2 0.43968298E+03</rscale>
<asrwt>0</asrwt>
<pdfrwt beam="1">  1       21 0.40742205E-01 0.43968298E+03</pdfrwt>
<pdfrwt beam="2">  1       21 0.25654110E-01 0.43968298E+03</pdfrwt>
<totfact> 0.77877237E+04</totfact>
</mgrwt>
</event>
<event>
 7    0  0.4685107E-002  0.4710752E+03  0.7546771E-02  0.1021617E+00
         21   -1    0    0  502  501  0.00000000000E+00  0.00000000000E+00  0.37921244350E+03  0.37921244350E+03  0.00000000000E+00 0.  1.
         21   -1    0    0  501  502 -0.00000000000E+00 -0.00000000000E+00 -0.14629785810E+03  0.14629785810E+03  0.00000000000E+00 0.  1.
      99926    2    1    2    0    0  0.00000000000E+00 -0.35527136788E-14  0.23291458540E+03  0.52551030160E+03  0.47107523072E+03 0.  0.
      99925    2    3    3    0    0  0.84569147575E+02 -0.42625310755E+01  0.25113928615E+03  0.37335985727E+03  0.26297629566E+03 0.  0.
         25    1    4    4    0    0  0.60765182930E+02 -0.33529287080E+02  0.10579850821E+03  0.17792541412E+03  0.12509000000E+03 0.  0.
         25    1    4    4    0    0  0.23803964645E+02  0.29266756005E+02  0.14534077793E+03  0.19543444315E+03  0.12509000000E+03 0.  0.
         25    1    3    3    0    0 -0.84569147575E+02  0.42625310755E+01 -0.18224700743E+02  0.15215044433E+03  0.12509000000E+03 0.  0.
<mgrwt>
<rscale>  2 0.47107523E+03</rscale>
<asrwt>0</asrwt>
<pdfrwt beam="1">  1       21 0.55766536E-01 0.47107523E+03</pdfrwt>
<pdfrwt beam="2">  1       21 0.21514391E-01 0.47107523E+03</pdfrwt>
<totfact> 0.56019527E+04</totfact>
</mgrwt>
</event>
<event>
 7    0  0.4685107E-002  0.4521226E+03  0.7546771E-02  0.1027091E+00
         21   -1    0    0  502  501  0.00000000000E+00  0.00000000000E+00  0.30085167146E+03  0.30085167146E+03  0.00000000000E+00 0.  1.
         21   -1    0    0  501  502 -0.00000000000E+00 -0.00000000000E+00 -0.16986345257E+03  0.16986345257E+03  0.00000000000E+00 0.  1.
      99926    2    1    2    0    0  0.00000000000E+00  0.71054273576E-14  0.13098821889E+03  0.47071512404E+03  0.45212256580E+03 0.  0.
      99925    2    3    3    0    0 -0.90500111359E+02  0.62525823370E+02  0.95675919083E+02  0.30043824551E+03  0.26269661042E+03 0.  0.
         25    1    4    4    0    0 -0.61514572497E+02  0.54575934578E+02  0.19599459974E+02  0.15097755527E+03  0.12509000000E+03 0.  0.
         25    1    3    3    0    0  0.90500111359E+02 -0.62525823370E+02  0.35312299809E+02  0.17027687853E+03  0.12509000000E+03 0.  0.
         25    1    4    4    0    0 -0.28985538862E+02  0.79498887921E+01  0.76076459109E+02  0.14946069023E+03  0.12509000000E+03 0.  0.
<mgrwt>
<rscale>  2 0.45212257E+03</rscale>
<asrwt>0</asrwt>
<pdfrwt beam="1">  1       21 0.44242893E-01 0.45212257E+03</pdfrwt>
<pdfrwt beam="2">  1       21 0.24979919E-01 0.45212257E+03</pdfrwt>
<totfact> 0.68943173E+04</totfact>
</mgrwt>
</event>
<event>
 7    0  0.4685107E-002  0.4475457E+03  0.7546771E-02  0.1028456E+00
         21   -1    0    0  502  501  0.00000000000E+00  0.00000000000E+00  0.16283487373E+04  0.16283487373E+04  0.00000000000E+00 0.  1.
         21   -1    0    0  501  502 -0.00000000000E+00 -0.00000000000E+00 -0.30751568952E+02  0.30751568952E+02  0.00000000000E+00 0.  1.
      99926    2    1    2    0    0  0.00000000000E+00  0.17763568394E-14  0.15975971684E+04  0.16591003063E+04  0.44754565565E+03 0.  0.
      99925    2    3    3    0    0  0.80559514436E+02 -0.15746500651E+02  0.76345357388E+03  0.81164480185E+03  0.26299835979E+03 0.  0.
         25    1    3    3    0    0 -0.80559514436E+02  0.15746500651E+02  0.83414359448E+03  0.84745550442E+03  0.12509000000E+03 0.  0.
         25    1    4    4    0    0  0.25755152304E+02 -0.87324477050E+00  0.47931966091E+03  0.49604328023E+03  0.12509000000E+03 0.  0.
         25    1    4    4    0    0  0.54804362132E+02 -0.14873255880E+02  0.28413391298E+03  0.31560152162E+03  0.12509000000E+03 0.  0.
<mgrwt>
<rscale>  2 0.44754566E+03</rscale>
<asrwt>0</asrwt>
<pdfrwt beam="1">  1       21 0.23946299E+00 0.44754566E+03</pdfrwt>
<pdfrwt beam="2">  1       21 0.45222907E-02 0.44754566E+03</pdfrwt>
<totfact> 0.21335026E+04</totfact>
</mgrwt>
</event>
<event>
 7    0  0.4685107E-002  0.4356271E+03  0.7546771E-02  0.1032097E+00
         21   -1    0    0  502  501  0.00000000000E+00  0.00000000000E+00  0.14643783903E+03  0.14643783903E+03  0.00000000000E+00 0. -1.
         21   -1    0    0  501  502 -0.00000000000E+00 -0.00000000000E+00 -0.32397874538E+03  0.32397874538E+03  0.00000000000E+00 0. -1.
      99926    2    1    2    0    0  0.00000000000E+00  0.00000000000E+00 -0.17754090635E+03  0.47041658441E+03  0.43562712205E+03 0.  0.
      99925    2    3    3    0    0 -0.63126395316E+02  0.62777539747E+02 -0.14601560288E+03  0.31367694635E+03  0.26295761845E+03 0.  0.
         25    1    4    4    0    0 -0.34842398040E+02  0.10952899197E+02 -0.31410582571E+02  0.13404510994E+03  0.12509000000E+03 0.  0.
         25    1    4    4    0    0 -0.28283997277E+02  0.51824640550E+02 -0.11460502031E+03  0.17963183640E+03  0.12509000000E+03 0.  0.
         25    1    3    3    0    0  0.63126395316E+02 -0.62777539747E+02 -0.31525303477E+02  0.15673963807E+03  0.12509000000E+03 0.  0.
<mgrwt>
<rscale>  2 0.43562712E+03</rscale>
<asrwt>0</asrwt>
<pdfrwt beam="1">  1       21 0.21534977E-01 0.43562712E+03</pdfrwt>
<pdfrwt beam="2">  1       21 0.47643932E-01 0.43562712E+03</pdfrwt>
<totfact> 0.78849629E+04</totfact>
</mgrwt>
</event>
<event>
 7    0  0.4685107E-002  0.4640817E+03  0.7546771E-02  0.1023604E+00
         21   -1    0    0  502  501  0.00000000000E+00  0.00000000000E+00  0.19367594466E+03  0.19367594466E+03  0.00000000000E+00 0.  1.
         21   -1    0    0  501  502 -0.00000000000E+00 -0.00000000000E+00 -0.27800535444E+03  0.27800535444E+03  0.00000000000E+00 0.  1.
      99926    2    1    2    0    0  0.00000000000E+00  0.00000000000E+00 -0.84329409781E+02  0.47168129910E+03  0.46408167230E+03 0.  0.
      99925    2    3    3    0    0  0.10116429199E+03  0.47395016644E+02 -0.41316400060E+01  0.28577892700E+03  0.26300574726E+03 0.  0.
         25    1    3    3    0    0 -0.10116429199E+03 -0.47395016644E+02 -0.80197769775E+02  0.18590237210E+03  0.12509000000E+03 0.  0.
         25    1    4    4    0    0  0.18080664618E+02  0.44151969828E+02  0.13434991085E+02  0.13455227221E+03  0.12509000000E+03 0.  0.
         25    1    4    4    0    0  0.83083627367E+02  0.32430468156E+01 -0.17566631091E+02  0.15122665478E+03  0.12509000000E+03 0.  0.
<mgrwt>
<rscale>  2 0.46408167E+03</rscale>
<asrwt>0</asrwt>
<pdfrwt beam="1">  1       21 0.28481756E-01 0.46408167E+03</pdfrwt>
<pdfrwt beam="2">  1       21 0.40883140E-01 0.46408167E+03</pdfrwt>
<totfact> 0.62669109E+04</totfact>
</mgrwt>
</event>
<event>
 7    0  0.4685107E-002  0.4595504E+03  0.7546771E-02  0.1024912E+00
         21   -1    0    0  502  501  0.00000000000E+00  0.00000000000E+00  0.26015432389E+03  0.26015432389E+03  0.00000000000E+00 0. -1.
         21   -1    0    0  501  502 -0.00000000000E+00 -0.00000000000E+00 -0.20294355472E+03  0.20294355472E+03  0.00000000000E+00 0. -1.
      99926    2    1    2    0    0  0.71054273576E-14  0.00000000000E+00  0.57210769172E+02  0.46309787861E+03  0.45955040318E+03 0.  0.
      99925    2    3    3    0    0  0.45441522484E+02 -0.10445945839E+03  0.64453655144E+02  0.29375598211E+03  0.26298591778E+03 0.  0.
         25    1    4    4    0    0  0.56608415879E+02 -0.61630712723E+02  0.11666306342E+02  0.15095187413E+03  0.12509000000E+03 0.  0.
         25    1    4    4    0    0 -0.11166893394E+02 -0.42828745662E+02  0.52787348802E+02  0.14280410798E+03  0.12509000000E+03 0.  0.
         25    1    3    3    0    0 -0.45441522484E+02  0.10445945839E+03 -0.72428859727E+01  0.16934189650E+03  0.12509000000E+03 0.  0.
<mgrwt>
<rscale>  2 0.45955040E+03</rscale>
<asrwt>0</asrwt>
<pdfrwt beam="1">  1       21 0.38257989E-01 0.45955040E+03</pdfrwt>
<pdfrwt beam="2">  1       21 0.29844641E-01 0.45955040E+03</pdfrwt>
<totfact> 0.65544327E+04</totfact>
</mgrwt>
</event>
<event>
 7    0  0.4685107E-002  0.4452339E+03  0.7546771E-02  0.1029153E+00
         21   -1    0    0  502  501  0.00000000000E+00  0.00000000000E+00  0.15996060581E+03  0.15996060581E+03  0.00000000000E+00 0.  1.
         21   -1    0    0  501  502 -0.00000000000E+00 -0.00000000000E+00 -0.30981564169E+03  0.30981564169E+03  0.00000000000E+00 0.  1.
      99926    2    1    2    0    0  0.35527136788E-14 -0.14210854715E-13 -0.14985503588E+03  0.46977624750E+03  0.44523386095E+03 0.  0.
      99925    2    3    3    0    0 -0.13249955637E+02  0.92825871032E+02 -0.14184087784E+03  0.31323890854E+03  0.26307332731E+03 0.  0.
         25    1    4    4    0    0 -0.41588143843E+02  0.44705800312E+02 -0.48210712267E+02  0.14730907361E+03  0.12509000000E+03 0.  0.
         25    1    3    3    0    0  0.13249955637E+02 -0.92825871032E+02 -0.80141580419E+01  0.15653733895E+03  0.12509000000E+03 0.  0.
         25    1    4    4    0    0  0.28338188206E+02  0.48120070720E+02 -0.93630165573E+02  0.16592983494E+03  0.12509000000E+03 0.  0.
<mgrwt>
<rscale>  2 0.44523386E+03</rscale>
<asrwt>0</asrwt>
<pdfrwt beam="1">  1       21 0.23523619E-01 0.44523386E+03</pdfrwt>
<pdfrwt beam="2">  1       21 0.45561123E-01 0.44523386E+03</pdfrwt>
<totfact> 0.72943776E+04</totfact>
</mgrwt>
</event>
<event>
 7    0  0.4685107E-002  0.4653941E+03  0.7546771E-02  0.1023228E+00
         21   -1    0    0  502  501  0.00000000000E+00  0.00000000000E+00  0.78336063476E+03  0.78336063476E+03  0.00000000000E+00 0.  1.
         21   -1    0    0  501  502 -0.00000000000E+00 -0.00000000000E+00 -0.69122586747E+02  0.69122586747E+02  0.00000000000E+00 0.  1.
      99926    2    1    2    0    0  0.00000000000E+00  0.00000000000E+00  0.71423804801E+03  0.85248322151E+03  0.46539408432E+03 0.  0.
      99925    2    3    3    0    0  0.56570105963E+02 -0.10231458862E+03  0.51333677322E+03  0.58851867418E+03  0.26300405925E+03 0.  0.
         25    1    4    4    0    0  0.98577986398E+01 -0.84223138863E+02  0.30529654855E+03  0.34065261480E+03  0.12509000000E+03 0.  0.
         25    1    4    4    0    0  0.46712307323E+02 -0.18091449759E+02  0.20804022467E+03  0.24786605938E+03  0.12509000000E+03 0.  0.
         25    1    3    3    0    0 -0.56570105963E+02  0.10231458862E+03  0.20090127479E+03  0.26396454733E+03  0.12509000000E+03 0.  0.
<mgrwt>
<rscale>  2 0.46539408E+03</rscale>
<asrwt>0</asrwt>
<pdfrwt beam="1">  1       21 0.11520009E+00 0.46539408E+03</pdfrwt>
<pdfrwt beam="2">  1       21 0.10165087E-01 0.46539408E+03</pdfrwt>
<totfact> 0.41813458E+04</totfact>
</mgrwt>
</event>
<event>
 7    0  0.4685107E-002  0.4555512E+03  0.7546771E-02  0.1026079E+00
         21   -1    0    0  502  501  0.00000000000E+00  0.00000000000E+00  0.86664144952E+03  0.86664144952E+03  0.00000000000E+00 0.  1.
         21   -1    0    0  501  502 -0.00000000000E+00 -0.00000000000E+00 -0.59865270138E+02  0.59865270138E+02  0.00000000000E+00 0.  1.
      99926    2    1    2    0    0  0.00000000000E+00  0.17763568394E-14  0.80677617938E+03  0.92650671966E+03  0.45555120234E+03 0.  0.
      99925    2    3    3    0    0  0.10001610196E+03  0.10703033858E+02  0.61527710427E+03  0.67663239234E+03  0.26295950970E+03 0.  0.
         25    1    3    3    0    0 -0.10001610196E+03 -0.10703033858E+02  0.19149907512E+03  0.24987432732E+03  0.12509000000E+03 0.  0.
         25    1    4    4    0    0  0.42045346190E+02  0.18962292096E+02  0.21278894747E+03  0.25110560313E+03  0.12509000000E+03 0.  0.
         25    1    4    4    0    0  0.57970755767E+02 -0.82592582385E+01  0.40248815680E+03  0.42552678921E+03  0.12509000000E+03 0.  0.
<mgrwt>
<rscale>  2 0.45555120E+03</rscale>
<asrwt>0</asrwt>
<pdfrwt beam="1">  1       21 0.12744726E+00 0.45555120E+03</pdfrwt>
<pdfrwt beam="2">  1       21 0.88037167E-02 0.45555120E+03</pdfrwt>
<totfact> 0.41926045E+04</totfact>
</mgrwt>
</event>
<event>
 7    0  0.4685107E-002  0.4601738E+03  0.7546771E-02  0.1024731E+00
         21   -1    0    0  502  501  0.00000000000E+00  0.00000000000E+00  0.17930584101E+02  0.17930584101E+02  0.00000000000E+00 0.  1.
         21   -1    0    0  501  502 -0.00000000000E+00 -0.00000000000E+00 -0.29524958192E+04  0.29524958192E+04  0.00000000000E+00 0.  1.
      99926    2    1    2    0    0  0.00000000000E+00  0.00000000000E+00 -0.29345652351E+04  0.29704264033E+04  0.46017376975E+03 0.  0.
      99925    2    3    3    0    0 -0.46243252879E+02  0.87492387547E+02 -0.14212729844E+04  0.14487515693E+04  0.26281335019E+03 0.  0.
         25    1    3    3    0    0  0.46243252879E+02 -0.87492387547E+02 -0.15132922507E+04  0.15216748340E+04  0.12509000000E+03 0.  0.
         25    1    4    4    0    0 -0.49411211348E+02  0.31065936853E+02 -0.56954651991E+03  0.58603524355E+03  0.12509000000E+03 0.  0.
         25    1    4    4    0    0  0.31679584683E+01  0.56426450693E+02 -0.85172646451E+03  0.86271632577E+03  0.12509000000E+03 0.  0.
<mgrwt>
<rscale>  2 0.46017377E+03</rscale>
<asrwt>0</asrwt>
<pdfrwt beam="1">  1       21 0.26368532E-02 0.46017377E+03</pdfrwt>
<pdfrwt beam="2">  1       21 0.43419014E+00 0.46017377E+03</pdfrwt>
<totfact> 0.32813453E+03</totfact>
</mgrwt>
</event>
<event>
 7    0  0.4685107E-002  0.4495592E+03  0.7546771E-02  0.1027854E+00
         21   -1    0    0  502  501  0.00000000000E+00  0.00000000000E+00  0.50075690245E+03  0.50075690245E+03  0.00000000000E+00 0.  1.
         21   -1    0    0  501  502 -0.00000000000E+00 -0.00000000000E+00 -0.10089900405E+03  0.10089900405E+03  0.00000000000E+00 0.  1.
      99926    2    1    2    0    0  0.14210854715E-13  0.71054273576E-14  0.39985789840E+03  0.60165590650E+03  0.44955921847E+03 0.  0.
      99925    2    3    3    0    0 -0.99957358831E+02 -0.39459685556E+02  0.23816859695E+03  0.37070249416E+03  0.26295915697E+03 0.  0.
         25    1    3    3    0    0  0.99957358831E+02  0.39459685556E+02  0.16168930146E+03  0.23095341235E+03  0.12509000000E+03 0.  0.
         25    1    4    4    0    0 -0.39669445796E+02 -0.91289024690E+01  0.65172839747E+02  0.14680602485E+03  0.12509000000E+03 0.  0.
         25    1    4    4    0    0 -0.60287913035E+02 -0.30330783087E+02  0.17299575720E+03  0.22389646931E+03  0.12509000000E+03 0.  0.
<mgrwt>
<rscale>  2 0.44955922E+03</rscale>
<asrwt>0</asrwt>
<pdfrwt beam="1">  1       21 0.73640720E-01 0.44955922E+03</pdfrwt>
<pdfrwt beam="2">  1       21 0.14838089E-01 0.44955922E+03</pdfrwt>
<totfact> 0.61163524E+04</totfact>
</mgrwt>
</event>
<event>
 7    0  0.4685107E-002  0.4540055E+03  0.7546771E-02  0.1026534E+00
         21   -1    0    0  502  501  0.00000000000E+00  0.00000000000E+00  0.74051485855E+02  0.74051485855E+02  0.00000000000E+00 0. -1.
         21   -1    0    0  501  502 -0.00000000000E+00 -0.00000000000E+00 -0.69587047761E+03  0.69587047761E+03  0.00000000000E+00 0. -1.
      99926    2    1    2    0    0  0.00000000000E+00  0.00000000000E+00 -0.62181899175E+03  0.76992196346E+03  0.45400547499E+03 0.  0.
      99925    2    3    3    0    0 -0.50864948633E+02  0.80846374188E+02 -0.28874235706E+03  0.40153231663E+03  0.26216916927E+03 0.  0.
         25    1    4    4    0    0 -0.68952112376E+01  0.38299218290E+01 -0.13991976163E+03  0.18784903522E+03  0.12509000000E+03 0.  0.
         25    1    3    3    0    0  0.50864948633E+02 -0.80846374188E+02 -0.33307663469E+03  0.36838964684E+03  0.12509000000E+03 0.  0.
         25    1    4    4    0    0 -0.43969737395E+02  0.77016452359E+02 -0.14882259543E+03  0.21368328141E+03  0.12509000000E+03 0.  0.
<mgrwt>
<rscale>  2 0.45400547E+03</rscale>
<asrwt>0</asrwt>
<pdfrwt beam="1">  1       21 0.10889925E-01 0.45400547E+03</pdfrwt>
<pdfrwt beam="2">  1       21 0.10233388E+00 0.45400547E+03</pdfrwt>
<totfact> 0.49640423E+04</totfact>
</mgrwt>
</event>
<event>
 7    0  0.4685107E-002  0.4620047E+03  0.7546771E-02  0.1024201E+00
         21   -1    0    0  502  501  0.00000000000E+00  0.00000000000E+00  0.83705440620E+03  0.83705440620E+03  0.00000000000E+00 0. -1.
         21   -1    0    0  501  502 -0.00000000000E+00 -0.00000000000E+00 -0.63749830961E+02  0.63749830961E+02  0.00000000000E+00 0. -1.
      99926    2    1    2    0    0  0.14210854715E-13 -0.35527136788E-14  0.77330457524E+03  0.90080423716E+03  0.46200466189E+03 0.  0.
      99925    2    3    3    0    0  0.10632519470E+03 -0.24905392419E+02  0.57881990459E+03  0.64507562942E+03  0.26299193928E+03 0.  0.
         25    1    3    3    0    0 -0.10632519470E+03  0.24905392419E+02  0.19448467065E+03  0.25572860774E+03  0.12509000000E+03 0.  0.
         25    1    4    4    0    0  0.60863775695E+02  0.51037543417E+01  0.37311445617E+03  0.39823655407E+03  0.12509000000E+03 0.  0.
         25    1    4    4    0    0  0.45461419006E+02 -0.30009146761E+02  0.20570544843E+03  0.24683907535E+03  0.12509000000E+03 0.  0.
<mgrwt>
<rscale>  2 0.46200466E+03</rscale>
<asrwt>0</asrwt>
<pdfrwt beam="1">  1       21 0.12309623E+00 0.46200466E+03</pdfrwt>
<pdfrwt beam="2">  1       21 0.93749756E-02 0.46200466E+03</pdfrwt>
<totfact> 0.40908811E+04</totfact>
</mgrwt>
</event>
<event>
 7    0  0.4685107E-002  0.4616596E+03  0.7546771E-02  0.1024301E+00
         21   -1    0    0  502  501  0.00000000000E+00  0.00000000000E+00  0.16161464719E+04  0.16161464719E+04  0.00000000000E+00 0. -1.
         21   -1    0    0  501  502 -0.00000000000E+00 -0.00000000000E+00 -0.32968785428E+02  0.32968785428E+02  0.00000000000E+00 0. -1.
      99926    2    1    2    0    0  0.00000000000E+00  0.00000000000E+00  0.15831776865E+04  0.16491152574E+04  0.46165955532E+03 0.  0.
      99925    2    3    3    0    0 -0.98294481358E+02 -0.42576777099E+02  0.11755960897E+04  0.12095190185E+04  0.26350617285E+03 0.  0.
         25    1    4    4    0    0 -0.46772940874E+02  0.18669260613E+02  0.61269164737E+03  0.62735541135E+03  0.12509000000E+03 0.  0.
         25    1    3    3    0    0  0.98294481358E+02  0.42576777099E+02  0.40758159682E+03  0.43959623882E+03  0.12509000000E+03 0.  0.
         25    1    4    4    0    0 -0.51521540483E+02 -0.61246037712E+02  0.56290444231E+03  0.58216360720E+03  0.12509000000E+03 0.  0.
<mgrwt>
<rscale>  2 0.46165956E+03</rscale>
<asrwt>0</asrwt>
<pdfrwt beam="1">  1       21 0.23766855E+00 0.46165956E+03</pdfrwt>
<pdfrwt beam="2">  1       21 0.48483519E-02 0.46165956E+03</pdfrwt>
<totfact> 0.19323671E+04</totfact>
</mgrwt>
</event>
<event>
 7    0  0.4685107E-002  0.4416496E+03  0.7546771E-02  0.1030242E+00
         21   -1    0    0  502  501  0.00000000000E+00  0.00000000000E+00  0.50009213036E+02  0.50009213036E+02  0.00000000000E+00 0.  1.
         21   -1    0    0  501  502 -0.00000000000E+00 -0.00000000000E+00 -0.97509200918E+03  0.97509200918E+03  0.00000000000E+00 0.  1.
      99926    2    1    2    0    0  0.00000000000E+00  0.00000000000E+00 -0.92508279615E+03  0.10251012222E+04  0.44164956251E+03 0.  0.
      99925    2    3    3    0    0  0.73737404710E+02 -0.67385906516E+02 -0.57432843118E+03  0.63954422527E+03  0.26303156459E+03 0.  0.
         25    1    4    4    0    0  0.18895721251E+02 -0.11743356493E+02 -0.19700159689E+03  0.23441862550E+03  0.12509000000E+03 0.  0.
         25    1    4    4    0    0  0.54841683460E+02 -0.55642550023E+02 -0.37732683429E+03  0.40512559977E+03  0.12509000000E+03 0.  0.
         25    1    3    3    0    0 -0.73737404710E+02  0.67385906516E+02 -0.35075436497E+03  0.38555699695E+03  0.12509000000E+03 0.  0.
<mgrwt>
<rscale>  2 0.44164956E+03</rscale>
<asrwt>0</asrwt>
<pdfrwt beam="1">  1       21 0.73542969E-02 0.44164956E+03</pdfrwt>
<pdfrwt beam="2">  1       21 0.14339587E+00 0.44164956E+03</pdfrwt>
<totfact> 0.42460507E+04</totfact>
</mgrwt>
</event>
<event>
 7    0  0.4685107E-002  0.4398815E+03  0.7546771E-02  0.1030783E+00
         21   -1    0    0  502  501  0.00000000000E+00  0.00000000000E+00  0.35374556112E+03  0.35374556112E+03  0.00000000000E+00 0. -1.
         21   -1    0    0  501  502 -0.00000000000E+00 -0.00000000000E+00 -0.13674781205E+03  0.13674781205E+03  0.00000000000E+00 0. -1.
      99926    2    1    2    0    0  0.00000000000E+00  0.17763568394E-14  0.21699774907E+03  0.49049337317E+03  0.43988149089E+03 0.  0.
      99925    2    3    3    0    0  0.84192517272E+02  0.11072079356E+02  0.83239165531E+02  0.28862748285E+03  0.26299447574E+03 0.  0.
         25    1    4    4    0    0  0.10722213584E+02 -0.20122740564E+01  0.66279951706E+02  0.14198434847E+03  0.12509000000E+03 0.  0.
         25    1    3    3    0    0 -0.84192517272E+02 -0.11072079356E+02  0.13375858354E+03  0.20186589032E+03  0.12509000000E+03 0.  0.
         25    1    4    4    0    0  0.73470303688E+02  0.13084353412E+02  0.16959213825E+02  0.14664313438E+03  0.12509000000E+03 0.  0.
<mgrwt>
<rscale>  2 0.43988149E+03</rscale>
<asrwt>0</asrwt>
<pdfrwt beam="1">  1       21 0.52021406E-01 0.43988149E+03</pdfrwt>
<pdfrwt beam="2">  1       21 0.20109972E-01 0.43988149E+03</pdfrwt>
<totfact> 0.74490079E+04</totfact>
</mgrwt>
</event>
<event>
 7    0  0.4685107E-002  0.4510306E+03  0.7546771E-02  0.1027415E+00
         21   -1    0    0  502  501  0.00000000000E+00  0.00000000000E+00  0.25343196705E+02  0.25343196705E+02  0.00000000000E+00 0. -1.
         21   -1    0    0  501  502 -0.00000000000E+00 -0.00000000000E+00 -0.20067379655E+04  0.20067379655E+04  0.00000000000E+00 0. -1.
      99926    2    1    2    0    0  0.00000000000E+00  0.00000000000E+00 -0.19813947688E+04  0.20320811622E+04  0.45103061979E+03 0.  0.
      99925    2    3    3    0    0  0.58878224762E+02  0.74078536301E+02 -0.14954327929E+04  0.15214337055E+04  0.26360388344E+03 0.  0.
         25    1    3    3    0    0 -0.58878224762E+02 -0.74078536301E+02 -0.48596197595E+03  0.51064745672E+03  0.12509000000E+03 0.  0.
         25    1    4    4    0    0 -0.29791524583E+01  0.39313870556E+02 -0.85895373672E+03  0.86890936564E+03  0.12509000000E+03 0.  0.
         25    1    4    4    0    0  0.61857377220E+02  0.34764665745E+02 -0.63647905613E+03  0.65252433985E+03  0.12509000000E+03 0.  0.
<mgrwt>
<rscale>  2 0.45103062E+03</rscale>
<asrwt>0</asrwt>
<pdfrwt beam="1">  1       21 0.37269398E-02 0.45103062E+03</pdfrwt>
<pdfrwt beam="2">  1       21 0.29510859E+00 0.45103062E+03</pdfrwt>
<totfact> 0.13607430E+04</totfact>
</mgrwt>
</event>
<event>
 7    0  0.4685107E-002  0.4421855E+03  0.7546771E-02  0.1030078E+00
         21   -1    0    0  502  501  0.00000000000E+00  0.00000000000E+00  0.20762490143E+03  0.20762490143E+03  0.00000000000E+00 0. -1.
         21   -1    0    0  501  502 -0.00000000000E+00 -0.00000000000E+00 -0.23543423811E+03  0.23543423811E+03  0.00000000000E+00 0. -1.
      99926    2    1    2    0    0  0.14210854715E-13  0.00000000000E+00 -0.27809336678E+02  0.44305913953E+03  0.44218552884E+03 0.  0.
      99925    2    3    3    0    0 -0.96002515655E+02  0.26526377222E+02 -0.33504475976E+01  0.28130043944E+03  0.26305622979E+03 0.  0.
         25    1    4    4    0    0 -0.73207306766E+01 -0.15077629775E+01 -0.50221725002E+01  0.12541370245E+03  0.12509000000E+03 0.  0.
         25    1    3    3    0    0  0.96002515655E+02 -0.26526377222E+02 -0.24458889080E+02  0.16175870009E+03  0.12509000000E+03 0.  0.
         25    1    4    4    0    0 -0.88681784978E+02  0.28034140199E+02  0.16717249025E+01  0.15588673698E+03  0.12509000000E+03 0.  0.
<mgrwt>
<rscale>  2 0.44218553E+03</rscale>
<asrwt>0</asrwt>
<pdfrwt beam="1">  1       21 0.30533074E-01 0.44218553E+03</pdfrwt>
<pdfrwt beam="2">  1       21 0.34622682E-01 0.44218553E+03</pdfrwt>
<totfact> 0.77007039E+04</totfact>
</mgrwt>
</event>
<event>
 7    0  0.4685107E-002  0.4568018E+03  0.7546771E-02  0.1025713E+00
         21   -1    0    0  502  501  0.00000000000E+00  0.00000000000E+00  0.12532944319E+03  0.12532944319E+03  0.00000000000E+00 0.  1.
         21   -1    0    0  501  502 -0.00000000000E+00 -0.00000000000E+00 -0.41623871160E+03  0.41623871160E+03  0.00000000000E+00 0.  1.
      99926    2    1    2    0    0 -0.14210854715E-13  0.00000000000E+00 -0.29090926841E+03  0.54156815479E+03  0.45680177741E+03 0.  0.
      99925    2    3    3    0    0 -0.75407769700E+02  0.81471474957E+02 -0.14791421684E+03  0.32152491851E+03  0.26301278432E+03 0.  0.
         25    1    3    3    0    0  0.75407769700E+02 -0.81471474957E+02 -0.14299505157E+03  0.22004323629E+03  0.12509000000E+03 0.  0.
         25    1    4    4    0    0 -0.46308230205E+02  0.16068610720E+01 -0.56989817525E+02  0.14505992413E+03  0.12509000000E+03 0.  0.
         25    1    4    4    0    0 -0.29099539495E+02  0.79864613885E+02 -0.90924399316E+02  0.17646499438E+03  0.12509000000E+03 0.  0.
<mgrwt>
<rscale>  2 0.45680178E+03</rscale>
<asrwt>0</asrwt>
<pdfrwt beam="1">  1       21 0.18430801E-01 0.45680178E+03</pdfrwt>
<pdfrwt beam="2">  1       21 0.61211574E-01 0.45680178E+03</pdfrwt>
<totfact> 0.61544907E+04</totfact>
</mgrwt>
</event>
<event>
 7    0  0.4685107E-002  0.4591772E+03  0.7546771E-02  0.1025020E+00
         21   -1    0    0  502  501  0.00000000000E+00  0.00000000000E+00  0.31051841121E+02  0.31051841121E+02  0.00000000000E+00 0.  1.
         21   -1    0    0  501  502 -0.00000000000E+00 -0.00000000000E+00 -0.16975138320E+04  0.16975138320E+04  0.00000000000E+00 0.  1.
      99926    2    1    2    0    0  0.17763568394E-14  0.00000000000E+00 -0.16664619909E+04  0.17285656731E+04  0.45917721987E+03 0.  0.
      99925    2    3    3    0    0  0.10541195079E+02 -0.85239303332E+02 -0.74516786649E+03  0.79485949484E+03  0.26296313746E+03 0.  0.
         25    1    4    4    0    0 -0.22211017480E+02 -0.15197585049E+02 -0.38989835304E+03  0.41035658846E+03  0.12509000000E+03 0.  0.
         25    1    4    4    0    0  0.32752212559E+02 -0.70041718283E+02 -0.35526951345E+03  0.38450290638E+03  0.12509000000E+03 0.  0.
         25    1    3    3    0    0 -0.10541195079E+02  0.85239303332E+02 -0.92129412440E+03  0.93370617829E+03  0.12509000000E+03 0.  0.
<mgrwt>
<rscale>  2 0.45917722E+03</rscale>
<asrwt>0</asrwt>
<pdfrwt beam="1">  1       21 0.45664475E-02 0.45917722E+03</pdfrwt>
<pdfrwt beam="2">  1       21 0.24963437E+00 0.45917722E+03</pdfrwt>
<totfact> 0.18079846E+04</totfact>
</mgrwt>
</event>
<event>
 7    0  0.4685107E-002  0.4600554E+03  0.7546771E-02  0.1024765E+00
         21   -1    0    0  502  501  0.00000000000E+00  0.00000000000E+00  0.61529039696E+03  0.61529039696E+03  0.00000000000E+00 0.  1.
         21   -1    0    0  501  502 -0.00000000000E+00 -0.00000000000E+00 -0.85996389461E+02  0.85996389461E+02  0.00000000000E+00 0.  1.
      99926    2    1    2    0    0  0.00000000000E+00 -0.71054273576E-14  0.52929400750E+03  0.70128678642E+03  0.46005544278E+03 0.  0.
      99925    2    3    3    0    0 -0.90393702494E+02 -0.54677151044E+02  0.25209485796E+03  0.37934348567E+03  0.26303811589E+03 0.  0.
         25    1    4    4    0    0 -0.50251477017E+01 -0.14261068389E+02  0.99023709764E+02  0.16025552526E+03  0.12509000000E+03 0.  0.
         25    1    3    3    0    0  0.90393702494E+02  0.54677151044E+02  0.27719914953E+03  0.32194330075E+03  0.12509000000E+03 0.  0.
         25    1    4    4    0    0 -0.85368554792E+02 -0.40416082655E+02  0.15307114820E+03  0.21908796041E+03  0.12509000000E+03 0.  0.
<mgrwt>
<rscale>  2 0.46005544E+03</rscale>
<asrwt>0</asrwt>
<pdfrwt beam="1">  1       21 0.90483880E-01 0.46005544E+03</pdfrwt>
<pdfrwt beam="2">  1       21 0.12646528E-01 0.46005544E+03</pdfrwt>
<totfact> 0.50782429E+04</totfact>
</mgrwt>
</event>
<event>
 7    0  0.4685107E-002  0.4421579E+03  0.7546771E-02  0.1030087E+00
         21   -1    0    0  502  501  0.00000000000E+00  0.00000000000E+00  0.72373299199E+02  0.72373299199E+02  0.00000000000E+00 0. -1.
         21   -1    0    0  501  502 -0.00000000000E+00 -0.00000000000E+00 -0.67533058772E+03  0.67533058772E+03  0.00000000000E+00 0. -1.
      99926    2    1    2    0    0  0.00000000000E+00  0.00000000000E+00 -0.60295728852E+03  0.74770388692E+03  0.44215790249E+03 0.  0.
      99925    2    3    3    0    0  0.86399527577E+02 -0.22980054150E+02 -0.30718383566E+03  0.41435361352E+03  0.26331359041E+03 0.  0.
         25    1    4    4    0    0  0.50551581006E+02  0.71247337882E+01 -0.20785097638E+03  0.24790272418E+03  0.12509000000E+03 0.  0.
         25    1    3    3    0    0 -0.86399527577E+02  0.22980054150E+02 -0.29577345286E+03  0.33335027340E+03  0.12509000000E+03 0.  0.
         25    1    4    4    0    0  0.35847946571E+02 -0.30104787938E+02 -0.99332859272E+02  0.16645088934E+03  0.12509000000E+03 0.  0.
<mgrwt>
<rscale>  2 0.44215790E+03</rscale>
<asrwt>0</asrwt>
<pdfrwt beam="1">  1       21 0.10643132E-01 0.44215790E+03</pdfrwt>
<pdfrwt beam="2">  1       21 0.99313328E-01 0.44215790E+03</pdfrwt>
<totfact> 0.55812032E+04</totfact>
</mgrwt>
</event>
<event>
 7    0  0.4685107E-002  0.4503949E+03  0.7546771E-02  0.1027604E+00
         21   -1    0    0  502  501  0.00000000000E+00  0.00000000000E+00  0.22187114116E+03  0.22187114116E+03  0.00000000000E+00 0.  1.
         21   -1    0    0  501  502 -0.00000000000E+00 -0.00000000000E+00 -0.22857361172E+03  0.22857361172E+03  0.00000000000E+00 0.  1.
      99926    2    1    2    0    0  0.00000000000E+00  0.71054273576E-14 -0.67024705648E+01  0.45044475288E+03  0.45039488483E+03 0.  0.
      99925    2    3    3    0    0  0.91756645385E+02 -0.58051632765E+02  0.15125977312E+02  0.28337212413E+03  0.26130765681E+03 0.  0.
         25    1    4    4    0    0  0.63212688929E+02 -0.61835674643E+02 -0.58865152167E+01  0.15330249137E+03  0.12509000000E+03 0.  0.
         25    1    3    3    0    0 -0.91756645385E+02  0.58051632765E+02 -0.21828447877E+02  0.16707262874E+03  0.12509000000E+03 0.  0.
         25    1    4    4    0    0  0.28543956456E+02  0.37840418773E+01  0.21012492529E+02  0.13006963276E+03  0.12509000000E+03 0.  0.
<mgrwt>
<rscale>  2 0.45039488E+03</rscale>
<asrwt>0</asrwt>
<pdfrwt beam="1">  1       21 0.32628109E-01 0.45039488E+03</pdfrwt>
<pdfrwt beam="2">  1       21 0.33613766E-01 0.45039488E+03</pdfrwt>
<totfact> 0.71471054E+04</totfact>
</mgrwt>
</event>
<event>
 7    0  0.4685107E-002  0.4484171E+03  0.7546771E-02  0.1028195E+00
         21   -1    0    0  502  501  0.00000000000E+00  0.00000000000E+00  0.11165069989E+04  0.11165069989E+04  0.00000000000E+00 0. -1.
         21   -1    0    0  501  502 -0.00000000000E+00 -0.00000000000E+00 -0.45023874151E+02  0.45023874151E+02  0.00000000000E+00 0. -1.
      99926    2    1    2    0    0  0.00000000000E+00  0.00000000000E+00  0.10714831248E+04  0.11615308731E+04  0.44841708535E+03 0.  0.
      99925    2    3    3    0    0  0.97604149983E+02  0.41304227005E+02  0.71481890137E+03  0.76898853699E+03  0.26295379633E+03 0.  0.
         25    1    4    4    0    0  0.86381613011E+02  0.36348741112E+02  0.43527368282E+03  0.46248643342E+03  0.12509000000E+03 0.  0.
         25    1    3    3    0    0 -0.97604149983E+02 -0.41304227005E+02  0.35666422341E+03  0.39254233609E+03  0.12509000000E+03 0.  0.
         25    1    4    4    0    0  0.11222536973E+02  0.49554858928E+01  0.27954521855E+03  0.30650210357E+03  0.12509000000E+03 0.  0.
<mgrwt>
<rscale>  2 0.44841709E+03</rscale>
<asrwt>0</asrwt>
<pdfrwt beam="1">  1       21 0.16419219E+00 0.44841709E+03</pdfrwt>
<pdfrwt beam="2">  1       21 0.66211587E-02 0.44841709E+03</pdfrwt>
<totfact> 0.35169527E+04</totfact>
</mgrwt>
</event>
<event>
 7    0  0.4685107E-002  0.4457659E+03  0.7546771E-02  0.1028992E+00
         21   -1    0    0  502  501  0.00000000000E+00  0.00000000000E+00  0.36717729218E+03  0.36717729218E+03  0.00000000000E+00 0.  1.
         21   -1    0    0  501  502 -0.00000000000E+00 -0.00000000000E+00 -0.13529382415E+03  0.13529382415E+03  0.00000000000E+00 0.  1.
      99926    2    1    2    0    0  0.71054273576E-14  0.00000000000E+00  0.23188346803E+03  0.50247111633E+03  0.44576594756E+03 0.  0.
      99925    2    3    3    0    0 -0.59559122782E+02 -0.74068614259E+02  0.19548932985E+03  0.34120893813E+03  0.26300952958E+03 0.  0.
         25    1    4    4    0    0 -0.46090347053E+02 -0.32402393985E+02  0.14436917345E+03  0.19915873460E+03  0.12509000000E+03 0.  0.
         25    1    3    3    0    0  0.59559122782E+02  0.74068614259E+02  0.36394138185E+02  0.16126217820E+03  0.12509000000E+03 0.  0.
         25    1    4    4    0    0 -0.13468775729E+02 -0.41666220274E+02  0.51120156403E+02  0.14205020353E+03  0.12509000000E+03 0.  0.
<mgrwt>
<rscale>  2 0.44576595E+03</rscale>
<asrwt>0</asrwt>
<pdfrwt beam="1">  1       21 0.53996661E-01 0.44576595E+03</pdfrwt>
<pdfrwt beam="2">  1       21 0.19896151E-01 0.44576595E+03</pdfrwt>
<totfact> 0.70095416E+04</totfact>
</mgrwt>
</event>
<event>
 7    0  0.4685107E-002  0.4496117E+03  0.7546771E-02  0.1027838E+00
         21   -1    0    0  502  501  0.00000000000E+00  0.00000000000E+00  0.47824070951E+02  0.47824070951E+02  0.00000000000E+00 0.  1.
         21   -1    0    0  501  502 -0.00000000000E+00 -0.00000000000E+00 -0.10567414653E+04  0.10567414653E+04  0.00000000000E+00 0.  1.
      99926    2    1    2    0    0  0.71054273576E-14  0.00000000000E+00 -0.10089173943E+04  0.11045655362E+04  0.44961173833E+03 0.  0.
      99925    2    3    3    0    0 -0.57950112231E+02  0.79174564849E+02 -0.53018983538E+03  0.60013079216E+03  0.26349360321E+03 0.  0.
         25    1    3    3    0    0  0.57950112231E+02 -0.79174564849E+02 -0.47872755892E+03  0.50443474404E+03  0.12509000000E+03 0.  0.
         25    1    4    4    0    0 -0.46289823572E+02  0.42407294491E+02 -0.19286251893E+03  0.23829516508E+03  0.12509000000E+03 0.  0.
         25    1    4    4    0    0 -0.11660288659E+02  0.36767270358E+02 -0.33732731645E+03  0.36183562708E+03  0.12509000000E+03 0.  0.
<mgrwt>
<rscale>  2 0.44961174E+03</rscale>
<asrwt>0</asrwt>
<pdfrwt beam="1">  1       21 0.70329524E-02 0.44961174E+03</pdfrwt>
<pdfrwt beam="2">  1       21 0.15540314E+00 0.44961174E+03</pdfrwt>
<totfact> 0.36860407E+04</totfact>
</mgrwt>
</event>
<event>
 7    0  0.4685107E-002  0.4456073E+03  0.7546771E-02  0.1029040E+00
         21   -1    0    0  502  501  0.00000000000E+00  0.00000000000E+00  0.12484764105E+03  0.12484764105E+03  0.00000000000E+00 0.  1.
         21   -1    0    0  501  502 -0.00000000000E+00 -0.00000000000E+00 -0.39761643812E+03  0.39761643812E+03  0.00000000000E+00 0.  1.
      99926    2    1    2    0    0  0.00000000000E+00 -0.71054273576E-14 -0.27276879707E+03  0.52246407916E+03  0.44560733540E+03 0.  0.
      99925    2    3    3    0    0 -0.82995265080E+02 -0.40712429453E+02 -0.22929975005E+03  0.36096243185E+03  0.26300149409E+03 0.  0.
         25    1    4    4    0    0 -0.74356098450E+02 -0.22109659988E+02 -0.89567949922E+02  0.17230087694E+03  0.12509000000E+03 0.  0.
         25    1    3    3    0    0  0.82995265080E+02  0.40712429453E+02 -0.43469047021E+02  0.16150164732E+03  0.12509000000E+03 0.  0.
         25    1    4    4    0    0 -0.86391666298E+01 -0.18602769465E+02 -0.13973180013E+03  0.18866155490E+03  0.12509000000E+03 0.  0.
<mgrwt>
<rscale>  2 0.44560734E+03</rscale>
<asrwt>0</asrwt>
<pdfrwt beam="1">  1       21 0.18359947E-01 0.44560734E+03</pdfrwt>
<pdfrwt beam="2">  1       21 0.58473006E-01 0.44560734E+03</pdfrwt>
<totfact> 0.68691054E+04</totfact>
</mgrwt>
</event>
<event>
 7    0  0.4685107E-002  0.4533941E+03  0.7546771E-02  0.1026715E+00
         21   -1    0    0  502  501  0.00000000000E+00  0.00000000000E+00  0.81239105505E+02  0.81239105505E+02  0.00000000000E+00 0. -1.
         21   -1    0    0  501  502 -0.00000000000E+00 -0.00000000000E+00 -0.63259626124E+03  0.63259626124E+03  0.00000000000E+00 0. -1.
      99926    2    1    2    0    0  0.00000000000E+00  0.00000000000E+00 -0.55135715573E+03  0.71383536674E+03  0.45339410851E+03 0.  0.
      99925    2    3    3    0    0 -0.82979385704E+02  0.74653058861E+02 -0.33947937690E+03  0.44365328201E+03  0.26291315990E+03 0.  0.
         25    1    4    4    0    0 -0.92692846466E+01  0.55042443721E+02 -0.19118596720E+03  0.23519177793E+03  0.12509000000E+03 0.  0.
         25    1    3    3    0    0  0.82979385704E+02 -0.74653058861E+02 -0.21187777883E+03  0.27018208473E+03  0.12509000000E+03 0.  0.
         25    1    4    4    0    0 -0.73710101058E+02  0.19610615139E+02 -0.14829340970E+03  0.20846150408E+03  0.12509000000E+03 0.  0.
<mgrwt>
<rscale>  2 0.45339411E+03</rscale>
<asrwt>0</asrwt>
<pdfrwt beam="1">  1       21 0.11946928E-01 0.45339411E+03</pdfrwt>
<pdfrwt beam="2">  1       21 0.93028858E-01 0.45339411E+03</pdfrwt>
<totfact> 0.52822405E+04</totfact>
</mgrwt>
</event>
<event>
 7    0  0.4685107E-002  0.4511196E+03  0.7546771E-02  0.1027389E+00
         21   -1    0    0  502  501  0.00000000000E+00  0.00000000000E+00  0.37785332612E+02  0.37785332612E+02  0.00000000000E+00 0. -1.
         21   -1    0    0  501  502 -0.00000000000E+00 -0.00000000000E+00 -0.13464805163E+04  0.13464805163E+04  0.00000000000E+00 0. -1.
      99926    2    1    2    0    0  0.00000000000E+00 -0.22204460493E-14 -0.13086951837E+04  0.13842658489E+04  0.45111955916E+03 0.  0.
      99925    2    3    3    0    0  0.10291189349E+03 -0.35135464982E+01 -0.72195499090E+03  0.77556660893E+03  0.26397225832E+03 0.  0.
         25    1    4    4    0    0  0.56597838003E+02 -0.43118643402E+02 -0.38462336672E+03  0.41066430939E+03  0.12509000000E+03 0.  0.
         25    1    3    3    0    0 -0.10291189349E+03  0.35135464982E+01 -0.58674019282E+03  0.60869924002E+03  0.12509000000E+03 0.  0.
         25    1    4    4    0    0  0.46314055488E+02  0.39605096904E+02 -0.33733162418E+03  0.36490229954E+03  0.12509000000E+03 0.  0.
<mgrwt>
<rscale>  2 0.45111956E+03</rscale>
<asrwt>0</asrwt>
<pdfrwt beam="1">  1       21 0.55566656E-02 0.45111956E+03</pdfrwt>
<pdfrwt beam="2">  1       21 0.19801187E+00 0.45111956E+03</pdfrwt>
<totfact> 0.27576647E+04</totfact>
</mgrwt>
</event>
<event>
 7    0  0.4685107E-002  0.4563375E+03  0.7546771E-02  0.1025849E+00
         21   -1    0    0  502  501  0.00000000000E+00  0.00000000000E+00  0.94228747492E+03  0.94228747492E+03  0.00000000000E+00 0.  1.
         21   -1    0    0  501  502 -0.00000000000E+00 -0.00000000000E+00 -0.55249562812E+02  0.55249562812E+02  0.00000000000E+00 0.  1.
      99926    2    1    2    0    0  0.00000000000E+00 -0.14210854715E-13  0.88703791211E+03  0.99753703773E+03  0.45633746737E+03 0.  0.
      99925    2    3    3    0    0 -0.30249141812E+02  0.10408839081E+03  0.63781908047E+03  0.69835993662E+03  0.26295250140E+03 0.  0.
         25    1    4    4    0    0 -0.39967012556E+02  0.41140140336E+02  0.24204899286E+03  0.27843328875E+03  0.12509000000E+03 0.  0.
         25    1    3    3    0    0  0.30249141812E+02 -0.10408839081E+03  0.24921883164E+03  0.29917710111E+03  0.12509000000E+03 0.  0.
         25    1    4    4    0    0  0.97178707435E+01  0.62948250479E+02  0.39577008761E+03  0.41992664788E+03  0.12509000000E+03 0.  0.
<mgrwt>
<rscale>  2 0.45633747E+03</rscale>
<asrwt>0</asrwt>
<pdfrwt beam="1">  1       21 0.13857168E+00 0.45633747E+03</pdfrwt>
<pdfrwt beam="2">  1       21 0.81249363E-02 0.45633747E+03</pdfrwt>
<totfact> 0.38855271E+04</totfact>
</mgrwt>
</event>
<event>
 7    0  0.4685107E-002  0.4503873E+03  0.7546771E-02  0.1027607E+00
         21   -1    0    0  502  501  0.00000000000E+00  0.00000000000E+00  0.16302438273E+03  0.16302438273E+03  0.00000000000E+00 0.  1.
         21   -1    0    0  501  502 -0.00000000000E+00 -0.00000000000E+00 -0.31107113195E+03  0.31107113195E+03  0.00000000000E+00 0.  1.
      99926    2    1    2    0    0  0.14210854715E-13 -0.11102230246E-14 -0.14804674922E+03  0.47409551467E+03  0.45038729676E+03 0.  0.
      99925    2    3    3    0    0  0.82440221838E+02  0.16151931538E+01 -0.16832401016E+03  0.32290796745E+03  0.26294026702E+03 0.  0.
         25    1    4    4    0    0  0.41864543469E+02  0.27752723175E+02 -0.11973577277E+03  0.18029702445E+03  0.12509000000E+03 0.  0.
         25    1    4    4    0    0  0.40575678369E+02 -0.26137530022E+02 -0.48588237384E+02  0.14261094300E+03  0.12509000000E+03 0.  0.
         25    1    3    3    0    0 -0.82440221838E+02 -0.16151931538E+01  0.20277260936E+02  0.15118754723E+03  0.12509000000E+03 0.  0.
<mgrwt>
<rscale>  2 0.45038730E+03</rscale>
<asrwt>0</asrwt>
<pdfrwt beam="1">  1       21 0.23974174E-01 0.45038730E+03</pdfrwt>
<pdfrwt beam="2">  1       21 0.45745754E-01 0.45038730E+03</pdfrwt>
<totfact> 0.69647463E+04</totfact>
</mgrwt>
</event>
<event>
 7    0  0.4685107E-002  0.4479004E+03  0.7546771E-02  0.1028350E+00
         21   -1    0    0  502  501  0.00000000000E+00  0.00000000000E+00  0.19156273532E+03  0.19156273532E+03  0.00000000000E+00 0.  1.
         21   -1    0    0  501  502 -0.00000000000E+00 -0.00000000000E+00 -0.26181342570E+03  0.26181342570E+03  0.00000000000E+00 0.  1.
      99926    2    1    2    0    0 -0.71054273576E-14  0.00000000000E+00 -0.70250690382E+02  0.45337616103E+03  0.44790041738E+03 0.  0.
      99925    2    3    3    0    0  0.62698651041E+02  0.12660771596E+02  0.41494871958E+02  0.27386015956E+03  0.26303259611E+03 0.  0.
         25    1    3    3    0    0 -0.62698651041E+02 -0.12660771596E+02 -0.11174556234E+03  0.17951600147E+03  0.12509000000E+03 0.  0.
         25    1    4    4    0    0 -0.15391105070E+01 -0.30999626305E+01  0.43095134532E+02  0.13235058500E+03  0.12509000000E+03 0.  0.
         25    1    4    4    0    0  0.64237761548E+02  0.15760734226E+02 -0.16002625738E+01  0.14150957456E+03  0.12509000000E+03 0.  0.
<mgrwt>
<rscale>  2 0.44790042E+03</rscale>
<asrwt>0</asrwt>
<pdfrwt beam="1">  1       21 0.28170991E-01 0.44790042E+03</pdfrwt>
<pdfrwt beam="2">  1       21 0.38501974E-01 0.44790042E+03</pdfrwt>
<totfact> 0.72695356E+04</totfact>
</mgrwt>
</event>
<event>
 7    0  0.4685107E-002  0.4521838E+03  0.7546771E-02  0.1027073E+00
         21   -1    0    0  502  501  0.00000000000E+00  0.00000000000E+00  0.16071296735E+04  0.16071296735E+04  0.00000000000E+00 0.  1.
         21   -1    0    0  501  502 -0.00000000000E+00 -0.00000000000E+00 -0.31806734391E+02  0.31806734391E+02  0.00000000000E+00 0.  1.
      99926    2    1    2    0    0 -0.71054273576E-14  0.00000000000E+00  0.15753229391E+04  0.16389364079E+04  0.45218379740E+03 0.  0.
      99925    2    3    3    0    0  0.52003176913E+02  0.16096295059E+02  0.64413334767E+03  0.69780677578E+03  0.26279860279E+03 0.  0.
         25    1    4    4    0    0  0.43335339807E+02  0.65681907175E+01  0.42460661624E+03  0.44481387058E+03  0.12509000000E+03 0.  0.
         25    1    3    3    0    0 -0.52003176913E+02 -0.16096295059E+02  0.93118959147E+03  0.94112963214E+03  0.12509000000E+03 0.  0.
         25    1    4    4    0    0  0.86678371061E+01  0.95281043415E+01  0.21952673143E+03  0.25299290521E+03  0.12509000000E+03 0.  0.
<mgrwt>
<rscale>  2 0.45218380E+03</rscale>
<asrwt>0</asrwt>
<pdfrwt beam="1">  1       21 0.23634254E+00 0.45218380E+03</pdfrwt>
<pdfrwt beam="2">  1       21 0.46774620E-02 0.45218380E+03</pdfrwt>
<totfact> 0.21019931E+04</totfact>
</mgrwt>
</event>
<event>
 7    0  0.4685107E-002  0.4564100E+03  0.7546771E-02  0.1025828E+00
         21   -1    0    0  502  501  0.00000000000E+00  0.00000000000E+00  0.86181328888E+03  0.86181328888E+03  0.00000000000E+00 0.  1.
         21   -1    0    0  501  502 -0.00000000000E+00 -0.00000000000E+00 -0.60427836011E+02  0.60427836011E+02  0.00000000000E+00 0.  1.
      99926    2    1    2    0    0  0.00000000000E+00 -0.35527136788E-14  0.80138545287E+03  0.92224112489E+03  0.45640995648E+03 0.  0.
      99925    2    3    3    0    0  0.53848041710E+02 -0.19947502424E+02  0.30310624270E+03  0.40530090220E+03  0.26286481794E+03 0.  0.
         25    1    4    4    0    0  0.52211251798E+02 -0.33289354882E+02  0.12585712134E+03  0.18794073283E+03  0.12509000000E+03 0.  0.
         25    1    4    4    0    0  0.16367899118E+01  0.13341852457E+02  0.17724912135E+03  0.21736016937E+03  0.12509000000E+03 0.  0.
         25    1    3    3    0    0 -0.53848041710E+02  0.19947502424E+02  0.49827921018E+03  0.51694022270E+03  0.12509000000E+03 0.  0.
<mgrwt>
<rscale>  2 0.45640996E+03</rscale>
<asrwt>0</asrwt>
<pdfrwt beam="1">  1       21 0.12673724E+00 0.45640996E+03</pdfrwt>
<pdfrwt beam="2">  1       21 0.88864470E-02 0.45640996E+03</pdfrwt>
<totfact> 0.41822667E+04</totfact>
</mgrwt>
</event>
<event>
 7    0  0.4685107E-002  0.4518624E+03  0.7546771E-02  0.1027168E+00
         21   -1    0    0  502  501  0.00000000000E+00  0.00000000000E+00  0.34231946653E+02  0.34231946653E+02  0.00000000000E+00 0.  1.
         21   -1    0    0  501  502 -0.00000000000E+00 -0.00000000000E+00 -0.14911482381E+04  0.14911482381E+04  0.00000000000E+00 0.  1.
      99926    2    1    2    0    0  0.71054273576E-14  0.00000000000E+00 -0.14569162914E+04  0.15253801848E+04  0.45186239914E+03 0.  0.
      99925    2    3    3    0    0 -0.55810810497E+02 -0.71594522222E+02 -0.11299151196E+04  0.11636926170E+04  0.26311918813E+03 0.  0.
         25    1    3    3    0    0  0.55810810497E+02  0.71594522222E+02 -0.32700117180E+03  0.36168756771E+03  0.12509000000E+03 0.  0.
         25    1    4    4    0    0 -0.45267477195E+02 -0.44019663329E+02 -0.43562326267E+03  0.45760464413E+03  0.12509000000E+03 0.  0.
         25    1    4    4    0    0 -0.10543333302E+02 -0.27574858893E+02 -0.69429185698E+03  0.70608797291E+03  0.12509000000E+03 0.  0.
<mgrwt>
<rscale>  2 0.45186240E+03</rscale>
<asrwt>0</asrwt>
<pdfrwt beam="1">  1       21 0.50341101E-02 0.45186240E+03</pdfrwt>
<pdfrwt beam="2">  1       21 0.21928649E+00 0.45186240E+03</pdfrwt>
<totfact> 0.23737102E+04</totfact>
</mgrwt>
</event>
<event>
 7    0  0.4685107E-002  0.4942716E+03  0.7546771E-02  0.1015285E+00
         21   -1    0    0  502  501  0.00000000000E+00  0.00000000000E+00  0.99543190147E+03  0.99543190147E+03  0.00000000000E+00 0. -1.
         21   -1    0    0  501  502 -0.00000000000E+00 -0.00000000000E+00 -0.61356383269E+02  0.61356383269E+02  0.00000000000E+00 0. -1.
      99926    2    1    2    0    0  0.14210854715E-13  0.14210854715E-13  0.93407551820E+03  0.10567882847E+04  0.49427159038E+03 0.  0.
      99925    2    3    3    0    0  0.11135351459E+03  0.74875738212E+02  0.44141118123E+03  0.53107768145E+03  0.26304693771E+03 0.  0.
         25    1    4    4    0    0  0.48798748518E+02  0.73658776333E+02  0.19763566742E+03  0.25002859502E+03  0.12509000000E+03 0.  0.
         25    1    3    3    0    0 -0.11135351459E+03 -0.74875738212E+02  0.49266433697E+03  0.52571060328E+03  0.12509000000E+03 0.  0.
         25    1    4    4    0    0  0.62554766076E+02  0.12169618797E+01  0.24377551381E+03  0.28104908644E+03  0.12509000000E+03 0.  0.
<mgrwt>
<rscale>  2 0.49427159E+03</rscale>
<asrwt>0</asrwt>
<pdfrwt beam="1">  1       21 0.14638704E+00 0.49427159E+03</pdfrwt>
<pdfrwt beam="2">  1       21 0.90229981E-02 0.49427159E+03</pdfrwt>
<totfact> 0.27560486E+04</totfact>
</mgrwt>
</event>
<event>
 7    0  0.4685107E-002  0.4412293E+03  0.7546771E-02  0.1030370E+00
         21   -1    0    0  502  501  0.00000000000E+00  0.00000000000E+00  0.74083492741E+02  0.74083492741E+02  0.00000000000E+00 0.  1.
         21   -1    0    0  501  502 -0.00000000000E+00 -0.00000000000E+00 -0.65697266017E+03  0.65697266017E+03  0.00000000000E+00 0.  1.
      99926    2    1    2    0    0  0.17763568394E-14 -0.14210854715E-13 -0.58288916743E+03  0.73105615291E+03  0.44122932496E+03 0.  0.
      99925    2    3    3    0    0 -0.12265117432E+02 -0.97151296422E+02 -0.34013476282E+03  0.44094235358E+03  0.26296329555E+03 0.  0.
         25    1    4    4    0    0 -0.30643870309E+02 -0.14701797407E+02 -0.16074526775E+03  0.20649876231E+03  0.12509000000E+03 0.  0.
         25    1    3    3    0    0  0.12265117432E+02  0.97151296422E+02 -0.24275440461E+03  0.29011379933E+03  0.12509000000E+03 0.  0.
         25    1    4    4    0    0  0.18378752877E+02 -0.82449499015E+02 -0.17938949507E+03  0.23444359127E+03  0.12509000000E+03 0.  0.
<mgrwt>
<rscale>  2 0.44122932E+03</rscale>
<asrwt>0</asrwt>
<pdfrwt beam="1">  1       21 0.10894632E-01 0.44122932E+03</pdfrwt>
<pdfrwt beam="2">  1       21 0.96613617E-01 0.44122932E+03</pdfrwt>
<totfact> 0.57195195E+04</totfact>
</mgrwt>
</event>
<event>
 7    0  0.4685107E-002  0.4575940E+03  0.7546771E-02  0.1025481E+00
         21   -1    0    0  502  501  0.00000000000E+00  0.00000000000E+00  0.11434065122E+04  0.11434065122E+04  0.00000000000E+00 0. -1.
         21   -1    0    0  501  502 -0.00000000000E+00 -0.00000000000E+00 -0.45782560228E+02  0.45782560228E+02  0.00000000000E+00 0. -1.
      99926    2    1    2    0    0  0.00000000000E+00  0.00000000000E+00  0.10976239520E+04  0.11891890724E+04  0.45759404502E+03 0.  0.
      99925    2    3    3    0    0  0.54681014483E+02  0.10008573396E+03  0.64055479424E+03  0.70178073177E+03  0.26301821911E+03 0.  0.
         25    1    4    4    0    0  0.39042930743E+02  0.41959856283E+02  0.22589847736E+03  0.26450446150E+03  0.12509000000E+03 0.  0.
         25    1    3    3    0    0 -0.54681014483E+02 -0.10008573396E+03  0.45706915774E+03  0.48740834065E+03  0.12509000000E+03 0.  0.
         25    1    4    4    0    0  0.15638083739E+02  0.58125877673E+02  0.41465631687E+03  0.43727627027E+03  0.12509000000E+03 0.  0.
<mgrwt>
<rscale>  2 0.45759405E+03</rscale>
<asrwt>0</asrwt>
<pdfrwt beam="1">  1       21 0.16814800E+00 0.45759405E+03</pdfrwt>
<pdfrwt beam="2">  1       21 0.67327302E-02 0.45759405E+03</pdfrwt>
<totfact> 0.31851885E+04</totfact>
</mgrwt>
</event>
<event>
 7    0  0.4685107E-002  0.4676867E+03  0.7546771E-02  0.1022575E+00
         21   -1    0    0  502  501  0.00000000000E+00  0.00000000000E+00  0.78442675405E+02  0.78442675405E+02  0.00000000000E+00 0. -1.
         21   -1    0    0  501  502 -0.00000000000E+00 -0.00000000000E+00 -0.69710420349E+03  0.69710420349E+03  0.00000000000E+00 0. -1.
      99926    2    1    2    0    0  0.00000000000E+00 -0.14210854715E-13 -0.61866152809E+03  0.77554687890E+03  0.46768672745E+03 0.  0.
      99925    2    3    3    0    0  0.72581783923E+02 -0.96754452334E+02 -0.43624040480E+03  0.52344667318E+03  0.26279495710E+03 0.  0.
         25    1    4    4    0    0  0.38407642475E+02 -0.79682417032E+02 -0.28440418069E+03  0.32304439428E+03  0.12509000000E+03 0.  0.
         25    1    3    3    0    0 -0.72581783923E+02  0.96754452334E+02 -0.18242112329E+03  0.25210020572E+03  0.12509000000E+03 0.  0.
         25    1    4    4    0    0  0.34174141448E+02 -0.17072035303E+02 -0.15183622411E+03  0.20040227889E+03  0.12509000000E+03 0.  0.
<mgrwt>
<rscale>  2 0.46768673E+03</rscale>
<asrwt>0</asrwt>
<pdfrwt beam="1">  1       21 0.11535688E-01 0.46768673E+03</pdfrwt>
<pdfrwt beam="2">  1       21 0.10251532E+00 0.46768673E+03</pdfrwt>
<totfact> 0.44382700E+04</totfact>
</mgrwt>
</event>
<event>
 7    0  0.4685107E-002  0.4581130E+03  0.7546771E-02  0.1025330E+00
         21   -1    0    0  502  501  0.00000000000E+00  0.00000000000E+00  0.75497422856E+02  0.75497422856E+02  0.00000000000E+00 0.  1.
         21   -1    0    0  501  502 -0.00000000000E+00 -0.00000000000E+00 -0.69494937039E+03  0.69494937039E+03  0.00000000000E+00 0.  1.
      99926    2    1    2    0    0  0.00000000000E+00 -0.14210854715E-13 -0.61945194753E+03  0.77044679325E+03  0.45811302745E+03 0.  0.
      99925    2    3    3    0    0  0.63690034058E+02  0.92150515202E+02 -0.43960675703E+03  0.52439814250E+03  0.26304215087E+03 0.  0.
         25    1    4    4    0    0  0.15160963646E+02  0.57636709330E+02 -0.15527498714E+03  0.20810976626E+03  0.12509000000E+03 0.  0.
         25    1    4    4    0    0  0.48529070413E+02  0.34513805872E+02 -0.28433176990E+03  0.31628837624E+03  0.12509000000E+03 0.  0.
         25    1    3    3    0    0 -0.63690034058E+02 -0.92150515202E+02 -0.17984519050E+03  0.24604865075E+03  0.12509000000E+03 0.  0.
<mgrwt>
<rscale>  2 0.45811303E+03</rscale>
<asrwt>0</asrwt>
<pdfrwt beam="1">  1       21 0.11102562E-01 0.45811303E+03</pdfrwt>
<pdfrwt beam="2">  1       21 0.10219844E+00 0.45811303E+03</pdfrwt>
<totfact> 0.48042594E+04</totfact>
</mgrwt>
</event>
<event>
 7    0  0.4685107E-002  0.4448218E+03  0.7546771E-02  0.1029278E+00
         21   -1    0    0  502  501  0.00000000000E+00  0.00000000000E+00  0.14010954410E+03  0.14010954410E+03  0.00000000000E+00 0.  1.
         21   -1    0    0  501  502 -0.00000000000E+00 -0.00000000000E+00 -0.35305671760E+03  0.35305671760E+03  0.00000000000E+00 0.  1.
      99926    2    1    2    0    0  0.71054273576E-14  0.00000000000E+00 -0.21294717350E+03  0.49316626171E+03  0.44482183285E+03 0.  0.
      99925    2    3    3    0    0 -0.60044612868E+02  0.32361644336E+02 -0.22024446303E+03  0.35050095375E+03  0.26398989285E+03 0.  0.
         25    1    4    4    0    0 -0.58332075260E+02  0.47806362247E+02 -0.12919576775E+03  0.19500547115E+03  0.12509000000E+03 0.  0.
         25    1    3    3    0    0  0.60044612868E+02 -0.32361644336E+02  0.72972895335E+01  0.14266530795E+03  0.12509000000E+03 0.  0.
         25    1    4    4    0    0 -0.17125376076E+01 -0.15444717911E+02 -0.91048695286E+02  0.15549548260E+03  0.12509000000E+03 0.  0.
<mgrwt>
<rscale>  2 0.44482183E+03</rscale>
<asrwt>0</asrwt>
<pdfrwt beam="1">  1       21 0.20604345E-01 0.44482183E+03</pdfrwt>
<pdfrwt beam="2">  1       21 0.51920106E-01 0.44482183E+03</pdfrwt>
<totfact> 0.71345996E+04</totfact>
</mgrwt>
</event>
<event>
 7    0  0.4685107E-002  0.4700918E+03  0.7546771E-02  0.1021894E+00
         21   -1    0    0  502  501  0.00000000000E+00  0.00000000000E+00  0.90463018581E+02  0.90463018581E+02  0.00000000000E+00 0. -1.
         21   -1    0    0  501  502 -0.00000000000E+00 -0.00000000000E+00 -0.61070886610E+03  0.61070886610E+03  0.00000000000E+00 0. -1.
      99926    2    1    2    0    0  0.71054273576E-14 -0.71054273576E-14 -0.52024584752E+03  0.70117188468E+03  0.47009176764E+03 0.  0.
      99925    2    3    3    0    0 -0.32090680225E+02  0.33048892539E+02 -0.14686049514E+03  0.30470477315E+03  0.26297329274E+03 0.  0.
         25    1    4    4    0    0 -0.25745084069E+02  0.52476922495E+02 -0.57214749395E+02  0.14945792852E+03  0.12509000000E+03 0.  0.
         25    1    4    4    0    0 -0.63455961560E+01 -0.19428029955E+02 -0.89645745748E+02  0.15524684464E+03  0.12509000000E+03 0.  0.
         25    1    3    3    0    0  0.32090680225E+02 -0.33048892539E+02 -0.37338535238E+03  0.39646711153E+03  0.12509000000E+03 0.  0.
<mgrwt>
<rscale>  2 0.47009177E+03</rscale>
<asrwt>0</asrwt>
<pdfrwt beam="1">  1       21 0.13303385E-01 0.47009177E+03</pdfrwt>
<pdfrwt beam="2">  1       21 0.89810130E-01 0.47009177E+03</pdfrwt>
<totfact> 0.47001151E+04</totfact>
</mgrwt>
</event>
<event>
 7    0  0.4685107E-002  0.4615030E+03  0.7546771E-02  0.1024346E+00
         21   -1    0    0  502  501  0.00000000000E+00  0.00000000000E+00  0.18603176631E+03  0.18603176631E+03  0.00000000000E+00 0. -1.
         21   -1    0    0  501  502 -0.00000000000E+00 -0.00000000000E+00 -0.28622128104E+03  0.28622128104E+03  0.00000000000E+00 0. -1.
      99926    2    1    2    0    0  0.00000000000E+00  0.14210854715E-13 -0.10018951473E+03  0.47225304736E+03  0.46150298144E+03 0.  0.
      99925    2    3    3    0    0 -0.46555826311E+02 -0.85774512071E+02  0.73175205412E+01  0.28060236873E+03  0.26298180801E+03 0.  0.
         25    1    3    3    0    0  0.46555826311E+02  0.85774512071E+02 -0.10750703527E+03  0.19165067862E+03  0.12509000000E+03 0.  0.
         25    1    4    4    0    0 -0.38210222245E+02 -0.40760999676E+02  0.41378219164E+02  0.14311235202E+03  0.12509000000E+03 0.  0.
         25    1    4    4    0    0 -0.83456040654E+01 -0.45013512395E+02 -0.34060698623E+02  0.13749001671E+03  0.12509000000E+03 0.  0.
<mgrwt>
<rscale>  2 0.46150298E+03</rscale>
<asrwt>0</asrwt>
<pdfrwt beam="1">  1       21 0.27357613E-01 0.46150298E+03</pdfrwt>
<pdfrwt beam="2">  1       21 0.42091365E-01 0.46150298E+03</pdfrwt>
<totfact> 0.63907364E+04</totfact>
</mgrwt>
</event>
<event>
 7    0  0.4685107E-002  0.5122942E+03  0.7546771E-02  0.1010619E+00
         21   -1    0    0  502  501  0.00000000000E+00  0.00000000000E+00  0.85709514986E+03  0.85709514986E+03  0.00000000000E+00 0. -1.
         21   -1    0    0  501  502 -0.00000000000E+00 -0.00000000000E+00 -0.76550806224E+02  0.76550806224E+02  0.00000000000E+00 0. -1.
      99926    2    1    2    0    0  0.00000000000E+00 -0.44408920985E-14  0.78054434363E+03  0.93364595608E+03  0.51229415274E+03 0.  0.
      99925    2    3    3    0    0  0.14138660966E+03  0.45031599661E+01  0.61007110003E+03  0.67924649317E+03  0.26301824948E+03 0.  0.
         25    1    3    3    0    0 -0.14138660966E+03 -0.45031599661E+01  0.17047324361E+03  0.25439946291E+03  0.12509000000E+03 0.  0.
         25    1    4    4    0    0  0.67541391063E+02 -0.36804784696E+02  0.27627331604E+03  0.31287519068E+03  0.12509000000E+03 0.  0.
         25    1    4    4    0    0  0.73845218598E+02  0.41307944662E+02  0.33379778398E+03  0.36637130250E+03  0.12509000000E+03 0.  0.
<mgrwt>
<rscale>  2 0.51229415E+03</rscale>
<asrwt>0</asrwt>
<pdfrwt beam="1">  1       21 0.12604340E+00 0.51229415E+03</pdfrwt>
<pdfrwt beam="2">  1       21 0.11257472E-01 0.51229415E+03</pdfrwt>
<totfact> 0.27335270E+04</totfact>
</mgrwt>
</event>
<event>
 7    0  0.4685107E-002  0.4525116E+03  0.7546771E-02  0.1026976E+00
         21   -1    0    0  502  501  0.00000000000E+00  0.00000000000E+00  0.13911420564E+04  0.13911420564E+04  0.00000000000E+00 0. -1.
         21   -1    0    0  501  502 -0.00000000000E+00 -0.00000000000E+00 -0.36798320450E+02  0.36798320450E+02  0.00000000000E+00 0. -1.
      99926    2    1    2    0    0  0.71054273576E-14  0.00000000000E+00  0.13543437359E+04  0.14279403768E+04  0.45251161834E+03 0.  0.
      99925    2    3    3    0    0 -0.49201787977E+02 -0.16460420637E+02  0.11631904839E+04  0.11936780554E+04  0.26298942311E+03 0.  0.
         25    1    3    3    0    0  0.49201787977E+02  0.16460420637E+02  0.19115325199E+03  0.23426232141E+03  0.12509000000E+03 0.  0.
         25    1    4    4    0    0 -0.19443056877E+02 -0.50268233679E+01  0.75518907042E+03  0.76574234675E+03  0.12509000000E+03 0.  0.
         25    1    4    4    0    0 -0.29758731100E+02 -0.11433597269E+02  0.40800141351E+03  0.42793570866E+03  0.12509000000E+03 0.  0.
<mgrwt>
<rscale>  2 0.45251162E+03</rscale>
<asrwt>0</asrwt>
<pdfrwt beam="1">  1       21 0.20457968E+00 0.45251162E+03</pdfrwt>
<pdfrwt beam="2">  1       21 0.54115186E-02 0.45251162E+03</pdfrwt>
<totfact> 0.26097865E+04</totfact>
</mgrwt>
</event>
<event>
 7    0  0.4685107E-002  0.4612302E+03  0.7546771E-02  0.1024425E+00
         21   -1    0    0  502  501  0.00000000000E+00  0.00000000000E+00  0.45518826472E+03  0.45518826472E+03  0.00000000000E+00 0.  1.
         21   -1    0    0  501  502 -0.00000000000E+00 -0.00000000000E+00 -0.11683807100E+03  0.11683807100E+03  0.00000000000E+00 0.  1.
      99926    2    1    2    0    0  0.00000000000E+00 -0.35527136788E-14  0.33835019373E+03  0.57202633572E+03  0.46123017590E+03 0.  0.
      99925    2    3    3    0    0  0.11395266385E+03 -0.25953891593E+02  0.18433090421E+03  0.34174767034E+03  0.26297295269E+03 0.  0.
         25    1    4    4    0    0  0.15949233128E+02 -0.14982479907E+02  0.99167290047E+02  0.16112266215E+03  0.12509000000E+03 0.  0.
         25    1    3    3    0    0 -0.11395266385E+03  0.25953891593E+02  0.15401928952E+03  0.23027866538E+03  0.12509000000E+03 0.  0.
         25    1    4    4    0    0  0.98003430719E+02 -0.10971411686E+02  0.85163614161E+02  0.18062500819E+03  0.12509000000E+03 0.  0.
<mgrwt>
<rscale>  2 0.46123018E+03</rscale>
<asrwt>0</asrwt>
<pdfrwt beam="1">  1       21 0.66939450E-01 0.46123018E+03</pdfrwt>
<pdfrwt beam="2">  1       21 0.17182069E-01 0.46123018E+03</pdfrwt>
<totfact> 0.57546159E+04</totfact>
</mgrwt>
</event>
<event>
 7    0  0.4685107E-002  0.4434470E+03  0.7546771E-02  0.1029694E+00
         21   -1    0    0  502  501  0.00000000000E+00  0.00000000000E+00  0.15852420990E+03  0.15852420990E+03  0.00000000000E+00 0.  1.
         21   -1    0    0  501  502 -0.00000000000E+00 -0.00000000000E+00 -0.31011859242E+03  0.31011859242E+03  0.00000000000E+00 0.  1.
      99926    2    1    2    0    0  0.71054273576E-14  0.00000000000E+00 -0.15159438253E+03  0.46864280232E+03  0.44344697468E+03 0.  0.
      99925    2    3    3    0    0 -0.39653311395E+02  0.70510187621E+02 -0.16213112592E+03  0.31930224278E+03  0.26291319592E+03 0.  0.
         25    1    3    3    0    0  0.39653311395E+02 -0.70510187621E+02  0.10536743397E+02  0.14934055954E+03  0.12509000000E+03 0.  0.
         25    1    4    4    0    0 -0.94574504706E+01  0.40430871378E+02 -0.12590881148E+03  0.18227626186E+03  0.12509000000E+03 0.  0.
         25    1    4    4    0    0 -0.30195860925E+02  0.30079316242E+02 -0.36222314439E+02  0.13702598092E+03  0.12509000000E+03 0.  0.
<mgrwt>
<rscale>  2 0.44344697E+03</rscale>
<asrwt>0</asrwt>
<pdfrwt beam="1">  1       21 0.23312384E-01 0.44344697E+03</pdfrwt>
<pdfrwt beam="2">  1       21 0.45605675E-01 0.44344697E+03</pdfrwt>
<totfact> 0.74100926E+04</totfact>
</mgrwt>
</event>
<event>
 7    0  0.4685107E-002  0.4636855E+03  0.7546771E-02  0.1023718E+00
         21   -1    0    0  502  501  0.00000000000E+00  0.00000000000E+00  0.13777460014E+03  0.13777460014E+03  0.00000000000E+00 0. -1.
         21   -1    0    0  501  502 -0.00000000000E+00 -0.00000000000E+00 -0.39013767575E+03  0.39013767575E+03  0.00000000000E+00 0. -1.
      99926    2    1    2    0    0  0.00000000000E+00  0.35527136788E-14 -0.25236307561E+03  0.52791227588E+03  0.46368550667E+03 0.  0.
      99925    2    3    3    0    0 -0.31731480229E+02  0.22218162394E+02 -0.28824249723E+03  0.39213534642E+03  0.26303204962E+03 0.  0.
         25    1    3    3    0    0  0.31731480229E+02 -0.22218162394E+02  0.35879421619E+02  0.13577692946E+03  0.12509000000E+03 0.  0.
         25    1    4    4    0    0 -0.18359957976E+02 -0.12078795811E+02 -0.93253661617E+02  0.15756503061E+03  0.12509000000E+03 0.  0.
         25    1    4    4    0    0 -0.13371522253E+02  0.34296958204E+02 -0.19498883561E+03  0.23457031582E+03  0.12509000000E+03 0.  0.
<mgrwt>
<rscale>  2 0.46368551E+03</rscale>
<asrwt>0</asrwt>
<pdfrwt beam="1">  1       21 0.20260971E-01 0.46368551E+03</pdfrwt>
<pdfrwt beam="2">  1       21 0.57373186E-01 0.46368551E+03</pdfrwt>
<totfact> 0.59167779E+04</totfact>
</mgrwt>
</event>
<event>
 7    0  0.4685107E-002  0.4499230E+03  0.7546771E-02  0.1027745E+00
         21   -1    0    0  502  501  0.00000000000E+00  0.00000000000E+00  0.13816907100E+03  0.13816907100E+03  0.00000000000E+00 0. -1.
         21   -1    0    0  501  502 -0.00000000000E+00 -0.00000000000E+00 -0.36627351639E+03  0.36627351639E+03  0.00000000000E+00 0. -1.
      99926    2    1    2    0    0  0.00000000000E+00  0.00000000000E+00 -0.22810444539E+03  0.50444258739E+03  0.44992297782E+03 0.  0.
      99925    2    3    3    0    0 -0.10667167123E+03 -0.10689972344E+02 -0.16186949224E+03  0.32688218057E+03  0.26297738783E+03 0.  0.
         25    1    3    3    0    0  0.10667167123E+03  0.10689972344E+02 -0.66234953149E+02  0.17756040682E+03  0.12509000000E+03 0.  0.
         25    1    4    4    0    0 -0.67246737914E+02 -0.21487390773E+01 -0.39801764054E+02  0.14750738748E+03  0.12509000000E+03 0.  0.
         25    1    4    4    0    0 -0.39424933312E+02 -0.85412332672E+01 -0.12206772819E+03  0.17937479309E+03  0.12509000000E+03 0.  0.
<mgrwt>
<rscale>  2 0.44992298E+03</rscale>
<asrwt>0</asrwt>
<pdfrwt beam="1">  1       21 0.20318981E-01 0.44992298E+03</pdfrwt>
<pdfrwt beam="2">  1       21 0.53863752E-01 0.44992298E+03</pdfrwt>
<totfact> 0.67644623E+04</totfact>
</mgrwt>
</event>
<event>
 7    0  0.4685107E-002  0.4451329E+03  0.7546771E-02  0.1029183E+00
         21   -1    0    0  502  501  0.00000000000E+00  0.00000000000E+00  0.69359046094E+03  0.69359046094E+03  0.00000000000E+00 0.  1.
         21   -1    0    0  501  502 -0.00000000000E+00 -0.00000000000E+00 -0.71419422050E+02  0.71419422050E+02  0.00000000000E+00 0.  1.
      99926    2    1    2    0    0 -0.35527136788E-14  0.00000000000E+00  0.62217103889E+03  0.76500988299E+03  0.44513292334E+03 0.  0.
      99925    2    3    3    0    0  0.95794618625E+01 -0.10308226754E+03  0.38574633936E+03  0.47819658724E+03  0.26297151508E+03 0.  0.
         25    1    4    4    0    0 -0.24072922948E+02 -0.52692578177E+02  0.24017594760E+03  0.27692599610E+03  0.12509000000E+03 0.  0.
         25    1    3    3    0    0 -0.95794618625E+01  0.10308226754E+03  0.23642469953E+03  0.28681329575E+03  0.12509000000E+03 0.  0.
         25    1    4    4    0    0  0.33652384810E+02 -0.50389689368E+02  0.14557039177E+03  0.20127059114E+03  0.12509000000E+03 0.  0.
<mgrwt>
<rscale>  2 0.44513292E+03</rscale>
<asrwt>0</asrwt>
<pdfrwt beam="1">  1       21 0.10199859E+00 0.44513292E+03</pdfrwt>
<pdfrwt beam="2">  1       21 0.10502857E-01 0.44513292E+03</pdfrwt>
<totfact> 0.53531509E+04</totfact>
</mgrwt>
</event>
<event>
 7    0  0.4685107E-002  0.4456820E+03  0.7546771E-02  0.1029018E+00
         21   -1    0    0  502  501  0.00000000000E+00  0.00000000000E+00  0.53682073674E+02  0.53682073674E+02  0.00000000000E+00 0.  1.
         21   -1    0    0  501  502 -0.00000000000E+00 -0.00000000000E+00 -0.92504065789E+03  0.92504065789E+03  0.00000000000E+00 0.  1.
      99926    2    1    2    0    0  0.00000000000E+00  0.35527136788E-14 -0.87135858421E+03  0.97872273156E+03  0.44568195273E+03 0.  0.
      99925    2    3    3    0    0 -0.57642349738E+02  0.25608541273E+02 -0.37059134484E+03  0.45872871813E+03  0.26289856238E+03 0.  0.
         25    1    4    4    0    0 -0.23775375824E+02 -0.27500485832E+02 -0.18253746355E+03  0.22425204328E+03  0.12509000000E+03 0.  0.
         25    1    3    3    0    0  0.57642349738E+02 -0.25608541273E+02 -0.50076723938E+03  0.51999401343E+03  0.12509000000E+03 0.  0.
         25    1    4    4    0    0 -0.33866973914E+02  0.53109027104E+02 -0.18805388129E+03  0.23447667485E+03  0.12509000000E+03 0.  0.
<mgrwt>
<rscale>  2 0.44568195E+03</rscale>
<asrwt>0</asrwt>
<pdfrwt beam="1">  1       21 0.78944227E-02 0.44568195E+03</pdfrwt>
<pdfrwt beam="2">  1       21 0.13603539E+00 0.44568195E+03</pdfrwt>
<totfact> 0.43050226E+04</totfact>
</mgrwt>
</event>
<event>
 7    0  0.4685107E-002  0.4695881E+03  0.7546771E-02  0.1022037E+00
         21   -1    0    0  502  501  0.00000000000E+00  0.00000000000E+00  0.51172845152E+02  0.51172845152E+02  0.00000000000E+00 0. -1.
         21   -1    0    0  501  502 -0.00000000000E+00 -0.00000000000E+00 -0.10772950562E+04  0.10772950562E+04  0.00000000000E+00 0. -1.
      99926    2    1    2    0    0  0.00000000000E+00  0.00000000000E+00 -0.10261222111E+04  0.11284679014E+04  0.46958813057E+03 0.  0.
      99925    2    3    3    0    0  0.48836797185E+02 -0.90889460078E+02 -0.46206721145E+03  0.54156801433E+03  0.26295223813E+03 0.  0.
         25    1    4    4    0    0  0.29336253398E+02 -0.79938829409E+02 -0.29624225035E+03  0.33265268855E+03  0.12509000000E+03 0.  0.
         25    1    3    3    0    0 -0.48836797185E+02  0.90889460078E+02 -0.56405499961E+03  0.58689988703E+03  0.12509000000E+03 0.  0.
         25    1    4    4    0    0  0.19500543787E+02 -0.10950630668E+02 -0.16582496110E+03  0.20891532577E+03  0.12509000000E+03 0.  0.
<mgrwt>
<rscale>  2 0.46958813E+03</rscale>
<asrwt>0</asrwt>
<pdfrwt beam="1">  1       21 0.75254178E-02 0.46958813E+03</pdfrwt>
<pdfrwt beam="2">  1       21 0.15842576E+00 0.46958813E+03</pdfrwt>
<totfact> 0.30849071E+04</totfact>
</mgrwt>
</event>
<event>
 7    0  0.4685107E-002  0.4557944E+03  0.7546771E-02  0.1026008E+00
         21   -1    0    0  502  501  0.00000000000E+00  0.00000000000E+00  0.17581930985E+03  0.17581930985E+03  0.00000000000E+00 0.  1.
         21   -1    0    0  501  502 -0.00000000000E+00 -0.00000000000E+00 -0.29540067204E+03  0.29540067204E+03  0.00000000000E+00 0.  1.
      99926    2    1    2    0    0  0.00000000000E+00  0.00000000000E+00 -0.11958136220E+03  0.47121998189E+03  0.45579443738E+03 0.  0.
      99925    2    3    3    0    0  0.11177876878E+03 -0.18475568748E+02 -0.63321123501E+02  0.29331955370E+03  0.26304173834E+03 0.  0.
         25    1    4    4    0    0  0.36672525708E+02 -0.44875294331E+02 -0.24200468845E+02  0.13997084330E+03  0.12509000000E+03 0.  0.
         25    1    4    4    0    0  0.75106243077E+02  0.26399725583E+02 -0.39120654656E+02  0.15334871040E+03  0.12509000000E+03 0.  0.
         25    1    3    3    0    0 -0.11177876878E+03  0.18475568748E+02 -0.56260238696E+02  0.17790042819E+03  0.12509000000E+03 0.  0.
<mgrwt>
<rscale>  2 0.45579444E+03</rscale>
<asrwt>0</asrwt>
<pdfrwt beam="1">  1       21 0.25855781E-01 0.45579444E+03</pdfrwt>
<pdfrwt beam="2">  1       21 0.43441275E-01 0.45579444E+03</pdfrwt>
<totfact> 0.66922312E+04</totfact>
</mgrwt>
</event>
<event>
 7    0  0.4685107E-002  0.4576143E+03  0.7546771E-02  0.1025475E+00
         21   -1    0    0  502  501  0.00000000000E+00  0.00000000000E+00  0.13778146002E+03  0.13778146002E+03  0.00000000000E+00 0. -1.
         21   -1    0    0  501  502 -0.00000000000E+00 -0.00000000000E+00 -0.37996923521E+03  0.37996923521E+03  0.00000000000E+00 0. -1.
      99926    2    1    2    0    0  0.00000000000E+00  0.00000000000E+00 -0.24218777519E+03  0.51775069524E+03  0.45761431792E+03 0.  0.
      99925    2    3    3    0    0  0.76615057657E+02  0.14173287572E+02 -0.55412332914E+02  0.27983616630E+03  0.26299620566E+03 0.  0.
         25    1    4    4    0    0  0.27041678472E+02 -0.29423556577E+02 -0.41461603829E+02  0.13770828134E+03  0.12509000000E+03 0.  0.
         25    1    3    3    0    0 -0.76615057657E+02 -0.14173287572E+02 -0.18677544227E+03  0.23791452893E+03  0.12509000000E+03 0.  0.
         25    1    4    4    0    0  0.49573379186E+02  0.43596844149E+02 -0.13950729085E+02  0.14212788497E+03  0.12509000000E+03 0.  0.
<mgrwt>
<rscale>  2 0.45761432E+03</rscale>
<asrwt>0</asrwt>
<pdfrwt beam="1">  1       21 0.20261980E-01 0.45761432E+03</pdfrwt>
<pdfrwt beam="2">  1       21 0.55877828E-01 0.45761432E+03</pdfrwt>
<totfact> 0.62729386E+04</totfact>
</mgrwt>
</event>
<event>
 7    0  0.4685107E-002  0.4414240E+03  0.7546771E-02  0.1030311E+00
         21   -1    0    0  502  501  0.00000000000E+00  0.00000000000E+00  0.14640180200E+03  0.14640180200E+03  0.00000000000E+00 0. -1.
         21   -1    0    0  501  502 -0.00000000000E+00 -0.00000000000E+00 -0.33274038495E+03  0.33274038495E+03  0.00000000000E+00 0. -1.
      99926    2    1    2    0    0  0.71054273576E-14  0.00000000000E+00 -0.18633858294E+03  0.47914218695E+03  0.44142402271E+03 0.  0.
      99925    2    3    3    0    0  0.63283174511E+02 -0.19271194038E+02 -0.37256433316E+02  0.27359624432E+03  0.26285114416E+03 0.  0.
         25    1    3    3    0    0 -0.63283174511E+02  0.19271194038E+02 -0.14908214963E+03  0.20554594263E+03  0.12509000000E+03 0.  0.
         25    1    4    4    0    0  0.30057238215E+02 -0.20210382157E+02 -0.57917564133E+02  0.14252666225E+03  0.12509000000E+03 0.  0.
         25    1    4    4    0    0  0.33225936295E+02  0.93918811903E+00  0.20661130817E+02  0.13106958207E+03  0.12509000000E+03 0.  0.
<mgrwt>
<rscale>  2 0.44142402E+03</rscale>
<asrwt>0</asrwt>
<pdfrwt beam="1">  1       21 0.21529677E-01 0.44142402E+03</pdfrwt>
<pdfrwt beam="2">  1       21 0.48932409E-01 0.44142402E+03</pdfrwt>
<totfact> 0.74470598E+04</totfact>
</mgrwt>
</event>
<event>
 7    0  0.4685107E-002  0.4433804E+03  0.7546771E-02  0.1029715E+00
         21   -1    0    0  502  501  0.00000000000E+00  0.00000000000E+00  0.20490421271E+03  0.20490421271E+03  0.00000000000E+00 0.  1.
         21   -1    0    0  501  502 -0.00000000000E+00 -0.00000000000E+00 -0.23985132492E+03  0.23985132492E+03  0.00000000000E+00 0.  1.
      99926    2    1    2    0    0  0.00000000000E+00  0.00000000000E+00 -0.34947112213E+02  0.44475553762E+03  0.44338040958E+03 0.  0.
      99925    2    3    3    0    0 -0.92554972032E+02 -0.37041523092E+02 -0.10579286863E+01  0.28124871165E+03  0.26298521120E+03 0.  0.
         25    1    4    4    0    0 -0.63902666693E+02 -0.48715481890E+01  0.33542432094E+02  0.14449873924E+03  0.12509000000E+03 0.  0.
         25    1    3    3    0    0  0.92554972032E+02  0.37041523092E+02 -0.33889183526E+02  0.16350682598E+03  0.12509000000E+03 0.  0.
         25    1    4    4    0    0 -0.28652305339E+02 -0.32169974903E+02 -0.34600360781E+02  0.13674997240E+03  0.12509000000E+03 0.  0.
<mgrwt>
<rscale>  2 0.44338041E+03</rscale>
<asrwt>0</asrwt>
<pdfrwt beam="1">  1       21 0.30132973E-01 0.44338041E+03</pdfrwt>
<pdfrwt beam="2">  1       21 0.35272254E-01 0.44338041E+03</pdfrwt>
<totfact> 0.76118846E+04</totfact>
</mgrwt>
</event>
<event>
 7    0  0.4685107E-002  0.4591704E+03  0.7546771E-02  0.1025022E+00
         21   -1    0    0  502  501  0.00000000000E+00  0.00000000000E+00  0.32616066024E+03  0.32616066024E+03  0.00000000000E+00 0. -1.
         21   -1    0    0  501  502 -0.00000000000E+00 -0.00000000000E+00 -0.16160555615E+03  0.16160555615E+03  0.00000000000E+00 0. -1.
      99926    2    1    2    0    0  0.17763568394E-14 -0.14210854715E-13  0.16455510410E+03  0.48776621639E+03  0.45917044718E+03 0.  0.
      99925    2    3    3    0    0  0.64042373432E+01  0.11543570615E+03  0.81773347807E+02  0.29838104330E+03  0.26263653607E+03 0.  0.
         25    1    4    4    0    0 -0.14583017055E+02  0.96570278430E+02  0.47083032158E+02  0.16553792037E+03  0.12509000000E+03 0.  0.
         25    1    3    3    0    0 -0.64042373432E+01 -0.11543570615E+03  0.82781756289E+02  0.18938517309E+03  0.12509000000E+03 0.  0.
         25    1    4    4    0    0  0.20987254398E+02  0.18865427724E+02  0.34690315649E+02  0.13284312293E+03  0.12509000000E+03 0.  0.
<mgrwt>
<rscale>  2 0.45917045E+03</rscale>
<asrwt>0</asrwt>
<pdfrwt beam="1">  1       21 0.47964803E-01 0.45917045E+03</pdfrwt>
<pdfrwt beam="2">  1       21 0.23765523E-01 0.45917045E+03</pdfrwt>
<totfact> 0.63993967E+04</totfact>
</mgrwt>
</event>
<event>
 7    0  0.4685107E-002  0.4861830E+03  0.7546771E-02  0.1017450E+00
         21   -1    0    0  502  501  0.00000000000E+00  0.00000000000E+00  0.74882463570E+03  0.74882463570E+03  0.00000000000E+00 0.  1.
         21   -1    0    0  501  502 -0.00000000000E+00 -0.00000000000E+00 -0.78914971510E+02  0.78914971510E+02  0.00000000000E+00 0.  1.
      99926    2    1    2    0    0  0.71054273576E-14  0.00000000000E+00  0.66990966419E+03  0.82773960721E+03  0.48618298939E+03 0.  0.
      99925    2    3    3    0    0  0.34441758067E+02 -0.13026400827E+02  0.17996277917E+03  0.32073726002E+03  0.26292559073E+03 0.  0.
         25    1    4    4    0    0  0.38731142015E+02 -0.24681864618E+02  0.12781708250E+03  0.18464563489E+03  0.12509000000E+03 0.  0.
         25    1    4    4    0    0 -0.42893839483E+01  0.11655463790E+02  0.52145696670E+02  0.13609162514E+03  0.12509000000E+03 0.  0.
         25    1    3    3    0    0 -0.34441758067E+02  0.13026400827E+02  0.48994688502E+03  0.50700234719E+03  0.12509000000E+03 0.  0.
<mgrwt>
<rscale>  2 0.48618299E+03</rscale>
<asrwt>0</asrwt>
<pdfrwt beam="1">  1       21 0.11012127E+00 0.48618299E+03</pdfrwt>
<pdfrwt beam="2">  1       21 0.11605143E-01 0.48618299E+03</pdfrwt>
<totfact> 0.36632243E+04</totfact>
</mgrwt>
</event>
<event>
 6    0  0.4685107E-002  0.5001479E+03  0.7546771E-02  0.1013740E+00
         21   -1    0    0  502  501  0.00000000000E+00  0.00000000000E+00  0.12089465422E+03  0.12089465422E+03  0.00000000000E+00 0.  1.
         21   -1    0    0  501  502 -0.00000000000E+00 -0.00000000000E+00 -0.51728485330E+03  0.51728485330E+03  0.00000000000E+00 0.  1.
      99926    2    1    2    0    0  0.26645352591E-14  0.14210854715E-13 -0.39639019908E+03  0.63817950751E+03  0.50014787202E+03 0.  0.
         25    1    3    3    0    0 -0.16896374677E+02  0.99887971664E+01 -0.19627816898E+03  0.23357630716E+03  0.12509000000E+03 0.  0.
         25    1    3    3    0    0 -0.27938403523E+01 -0.10531237303E+03 -0.20124631500E+02  0.16477563639E+03  0.12509000000E+03 0.  0.
         25    1    3    3    0    0  0.19690215029E+02  0.95323575859E+02 -0.17998739859E+03  0.23982756396E+03  0.12509000000E+03 0.  0.
<mgrwt>
<rscale>  2 0.50014787E+03</rscale>
<asrwt>0</asrwt>
<pdfrwt beam="1">  1       21 0.17778626E-01 0.50014787E+03</pdfrwt>
<pdfrwt beam="2">  1       21 0.76071302E-01 0.50014787E+03</pdfrwt>
<totfact> 0.40076861E+04</totfact>
</mgrwt>
</event>
<event>
 7    0  0.4685107E-002  0.4570493E+03  0.7546771E-02  0.1025640E+00
         21   -1    0    0  502  501  0.00000000000E+00  0.00000000000E+00  0.72394055143E+02  0.72394055143E+02  0.00000000000E+00 0. -1.
         21   -1    0    0  501  502 -0.00000000000E+00 -0.00000000000E+00 -0.72137852768E+03  0.72137852768E+03  0.00000000000E+00 0. -1.
      99926    2    1    2    0    0  0.00000000000E+00  0.00000000000E+00 -0.64898447254E+03  0.79377258283E+03  0.45704930549E+03 0.  0.
      99925    2    3    3    0    0 -0.51523159583E+02 -0.63258522979E+02 -0.54862476553E+03  0.61383966312E+03  0.26297095270E+03 0.  0.
         25    1    4    4    0    0 -0.50776501917E+02 -0.44743932755E+02 -0.22267238888E+03  0.26421728470E+03  0.12509000000E+03 0.  0.
         25    1    4    4    0    0 -0.74665766566E+00 -0.18514590224E+02 -0.32595237664E+03  0.34962237841E+03  0.12509000000E+03 0.  0.
         25    1    3    3    0    0  0.51523159583E+02  0.63258522979E+02 -0.10035970701E+03  0.17993291971E+03  0.12509000000E+03 0.  0.
<mgrwt>
<rscale>  2 0.45704931E+03</rscale>
<asrwt>0</asrwt>
<pdfrwt beam="1">  1       21 0.10646184E-01 0.45704931E+03</pdfrwt>
<pdfrwt beam="2">  1       21 0.10608508E+00 0.45704931E+03</pdfrwt>
<totfact> 0.47302129E+04</totfact>
</mgrwt>
</event>
<event>
 7    0  0.4685107E-002  0.4648594E+03  0.7546771E-02  0.1023381E+00
         21   -1    0    0  502  501  0.00000000000E+00  0.00000000000E+00  0.22353151200E+03  0.22353151200E+03  0.00000000000E+00 0.  1.
         21   -1    0    0  501  502 -0.00000000000E+00 -0.00000000000E+00 -0.24168206017E+03  0.24168206017E+03  0.00000000000E+00 0.  1.
      99926    2    1    2    0    0  0.88817841970E-15  0.71054273576E-14 -0.18150548175E+02  0.46521357217E+03  0.46485936081E+03 0.  0.
      99925    2    3    3    0    0 -0.49838964437E+01 -0.59740669300E+02 -0.11786413570E+03  0.29438004376E+03  0.26300925627E+03 0.  0.
         25    1    3    3    0    0  0.49838964437E+01  0.59740669300E+02  0.99713587528E+02  0.17083352841E+03  0.12509000000E+03 0.  0.
         25    1    4    4    0    0  0.72426833022E+01 -0.31946642055E+02 -0.10197632107E+03  0.16468066844E+03  0.12509000000E+03 0.  0.
         25    1    4    4    0    0 -0.12226579746E+02 -0.27794027245E+02 -0.15887814632E+02  0.12969937531E+03  0.12509000000E+03 0.  0.
<mgrwt>
<rscale>  2 0.46485936E+03</rscale>
<asrwt>0</asrwt>
<pdfrwt beam="1">  1       21 0.32872281E-01 0.46485936E+03</pdfrwt>
<pdfrwt beam="2">  1       21 0.35541479E-01 0.46485936E+03</pdfrwt>
<totfact> 0.62722629E+04</totfact>
</mgrwt>
</event>
<event>
 7    0  0.4685107E-002  0.4566434E+03  0.7546771E-02  0.1025759E+00
         21   -1    0    0  502  501  0.00000000000E+00  0.00000000000E+00  0.88209974952E+03  0.88209974952E+03  0.00000000000E+00 0. -1.
         21   -1    0    0  501  502 -0.00000000000E+00 -0.00000000000E+00 -0.59098528491E+02  0.59098528491E+02  0.00000000000E+00 0. -1.
      99926    2    1    2    0    0  0.00000000000E+00  0.00000000000E+00  0.82300122103E+03  0.94119827801E+03  0.45664339338E+03 0.  0.
      99925    2    3    3    0    0 -0.97303241178E+02  0.38842522456E+02  0.61415507407E+03  0.67616831085E+03  0.26275552762E+03 0.  0.
         25    1    4    4    0    0 -0.80100794411E+02  0.24161083462E+02  0.39667784439E+03  0.42426491200E+03  0.12509000000E+03 0.  0.
         25    1    4    4    0    0 -0.17202446767E+02  0.14681438993E+02  0.21747722967E+03  0.25190339885E+03  0.12509000000E+03 0.  0.
         25    1    3    3    0    0  0.97303241178E+02 -0.38842522456E+02  0.20884614696E+03  0.26502996717E+03  0.12509000000E+03 0.  0.
<mgrwt>
<rscale>  2 0.45664339E+03</rscale>
<asrwt>0</asrwt>
<pdfrwt beam="1">  1       21 0.12972054E+00 0.45664339E+03</pdfrwt>
<pdfrwt beam="2">  1       21 0.86909606E-02 0.45664339E+03</pdfrwt>
<totfact> 0.40970178E+04</totfact>
</mgrwt>
</event>
<event>
 7    0  0.4685107E-002  0.4518485E+03  0.7546771E-02  0.1027172E+00
         21   -1    0    0  502  501  0.00000000000E+00  0.00000000000E+00  0.53737275176E+02  0.53737275176E+02  0.00000000000E+00 0.  1.
         21   -1    0    0  501  502 -0.00000000000E+00 -0.00000000000E+00 -0.94983893083E+03  0.94983893083E+03  0.00000000000E+00 0.  1.
      99926    2    1    2    0    0 -0.35527136788E-14 -0.71054273576E-14 -0.89610165566E+03  0.10035762060E+04  0.45184845247E+03 0.  0.
      99925    2    3    3    0    0  0.23104663082E+02  0.63136292164E+02 -0.75940143544E+03  0.80646082064E+03  0.26299904605E+03 0.  0.
         25    1    4    4    0    0  0.41911294097E+02  0.59541369503E+02 -0.39085832535E+03  0.41679667687E+03  0.12509000000E+03 0.  0.
         25    1    4    4    0    0 -0.18806631015E+02  0.35949226612E+01 -0.36854311009E+03  0.38966414376E+03  0.12509000000E+03 0.  0.
         25    1    3    3    0    0 -0.23104663082E+02 -0.63136292164E+02 -0.13670022021E+03  0.19711538537E+03  0.12509000000E+03 0.  0.
<mgrwt>
<rscale>  2 0.45184845E+03</rscale>
<asrwt>0</asrwt>
<pdfrwt beam="1">  1       21 0.79025401E-02 0.45184845E+03</pdfrwt>
<pdfrwt beam="2">  1       21 0.13968220E+00 0.45184845E+03</pdfrwt>
<totfact> 0.40003502E+04</totfact>
</mgrwt>
</event>
<event>
 7    0  0.4685107E-002  0.4495001E+03  0.7546771E-02  0.1027871E+00
         21   -1    0    0  502  501  0.00000000000E+00  0.00000000000E+00  0.15734228630E+03  0.15734228630E+03  0.00000000000E+00 0. -1.
         21   -1    0    0  501  502 -0.00000000000E+00 -0.00000000000E+00 -0.32103636340E+03  0.32103636340E+03  0.00000000000E+00 0. -1.
      99926    2    1    2    0    0 -0.17763568394E-14  0.00000000000E+00 -0.16369407710E+03  0.47837864970E+03  0.44950014639E+03 0.  0.
      99925    2    3    3    0    0  0.11567420759E+02  0.10366779607E+03 -0.75508787181E+02  0.29316263899E+03  0.26336654836E+03 0.  0.
         25    1    3    3    0    0 -0.11567420759E+02 -0.10366779607E+03 -0.88185289917E+02  0.18521601071E+03  0.12509000000E+03 0.  0.
         25    1    4    4    0    0  0.39126406020E+02  0.44427011360E+02 -0.61179855144E+02  0.15131132728E+03  0.12509000000E+03 0.  0.
         25    1    4    4    0    0 -0.27558985261E+02  0.59240784709E+02 -0.14328932038E+02  0.14185131171E+03  0.12509000000E+03 0.  0.
<mgrwt>
<rscale>  2 0.44950015E+03</rscale>
<asrwt>0</asrwt>
<pdfrwt beam="1">  1       21 0.23138572E-01 0.44950015E+03</pdfrwt>
<pdfrwt beam="2">  1       21 0.47211230E-01 0.44950015E+03</pdfrwt>
<totfact> 0.69816855E+04</totfact>
</mgrwt>
</event>
<event>
 7    0  0.4685107E-002  0.4493951E+03  0.7546771E-02  0.1027903E+00
         21   -1    0    0  502  501  0.00000000000E+00  0.00000000000E+00  0.38074299231E+03  0.38074299231E+03  0.00000000000E+00 0.  1.
         21   -1    0    0  501  502 -0.00000000000E+00 -0.00000000000E+00 -0.13260647548E+03  0.13260647548E+03  0.00000000000E+00 0.  1.
      99926    2    1    2    0    0  0.14210854715E-13  0.00000000000E+00  0.24813651683E+03  0.51334946780E+03  0.44939508798E+03 0.  0.
      99925    2    3    3    0    0 -0.69771540283E+02 -0.67238923697E+02  0.21087863677E+03  0.35079240575E+03  0.26305203249E+03 0.  0.
         25    1    4    4    0    0 -0.43654108459E+02 -0.16183778067E+02  0.59258218609E+02  0.14603643528E+03  0.12509000000E+03 0.  0.
         25    1    4    4    0    0 -0.26117431824E+02 -0.51055145630E+02  0.15162041816E+03  0.20475597047E+03  0.12509000000E+03 0.  0.
         25    1    3    3    0    0  0.69771540283E+02  0.67238923697E+02  0.37257880060E+02  0.16255706204E+03  0.12509000000E+03 0.  0.
<mgrwt>
<rscale>  2 0.44939509E+03</rscale>
<asrwt>0</asrwt>
<pdfrwt beam="1">  1       21 0.55991616E-01 0.44939509E+03</pdfrwt>
<pdfrwt beam="2">  1       21 0.19500952E-01 0.44939509E+03</pdfrwt>
<totfact> 0.67285605E+04</totfact>
</mgrwt>
</event>
<event>
 7    0  0.4685107E-002  0.4482008E+03  0.7546771E-02  0.1028260E+00
         21   -1    0    0  502  501  0.00000000000E+00  0.00000000000E+00  0.72762305047E+03  0.72762305047E+03  0.00000000000E+00 0.  1.
         21   -1    0    0  501  502 -0.00000000000E+00 -0.00000000000E+00 -0.69020617425E+02  0.69020617425E+02  0.00000000000E+00 0.  1.
      99926    2    1    2    0    0  0.00000000000E+00  0.00000000000E+00  0.65860243304E+03  0.79664366789E+03  0.44820081301E+03 0.  0.
      99925    2    3    3    0    0 -0.35411551847E+02  0.82849909708E+02  0.51794607402E+03  0.58795776761E+03  0.26326434502E+03 0.  0.
         25    1    4    4    0    0  0.17780697758E+02  0.53376747244E+02  0.29244088750E+03  0.32300837627E+03  0.12509000000E+03 0.  0.
         25    1    3    3    0    0  0.35411551847E+02 -0.82849909708E+02  0.14065635902E+03  0.20868590028E+03  0.12509000000E+03 0.  0.
         25    1    4    4    0    0 -0.53192249605E+02  0.29473162464E+02  0.22550518652E+03  0.26494939134E+03  0.12509000000E+03 0.  0.
<mgrwt>
<rscale>  2 0.44820081E+03</rscale>
<asrwt>0</asrwt>
<pdfrwt beam="1">  1       21 0.10700339E+00 0.44820081E+03</pdfrwt>
<pdfrwt beam="2">  1       21 0.10150091E-01 0.44820081E+03</pdfrwt>
<totfact> 0.50572646E+04</totfact>
</mgrwt>
</event>
<event>
 7    0  0.4685107E-002  0.4596012E+03  0.7546771E-02  0.1024897E+00
         21   -1    0    0  502  501  0.00000000000E+00  0.00000000000E+00  0.24622961991E+03  0.24622961991E+03  0.00000000000E+00 0.  1.
         21   -1    0    0  501  502 -0.00000000000E+00 -0.00000000000E+00 -0.21446773781E+03  0.21446773781E+03  0.00000000000E+00 0.  1.
      99926    2    1    2    0    0  0.71054273576E-14  0.00000000000E+00  0.31761882107E+02  0.46069735772E+03  0.45960117304E+03 0.  0.
      99925    2    3    3    0    0 -0.36556600216E+02  0.10952542119E+03 -0.71389711307E+00  0.28739303797E+03  0.26317683355E+03 0.  0.
         25    1    4    4    0    0 -0.12342135106E+01  0.41855580294E+02  0.35173203133E+02  0.13652133607E+03  0.12509000000E+03 0.  0.
         25    1    3    3    0    0  0.36556600216E+02 -0.10952542119E+03  0.32475779220E+02  0.17330431975E+03  0.12509000000E+03 0.  0.
         25    1    4    4    0    0 -0.35322386705E+02  0.67669840900E+02 -0.35887100246E+02  0.15087170190E+03  0.12509000000E+03 0.  0.
<mgrwt>
<rscale>  2 0.45960117E+03</rscale>
<asrwt>0</asrwt>
<pdfrwt beam="1">  1       21 0.36210238E-01 0.45960117E+03</pdfrwt>
<pdfrwt beam="2">  1       21 0.31539373E-01 0.45960117E+03</pdfrwt>
<totfact> 0.65685687E+04</totfact>
</mgrwt>
</event>
<event>
 7    0  0.4685107E-002  0.4588302E+03  0.7546771E-02  0.1025121E+00
         21   -1    0    0  502  501  0.00000000000E+00  0.00000000000E+00  0.93961213326E+02  0.93961213326E+02  0.00000000000E+00 0.  1.
         21   -1    0    0  501  502 -0.00000000000E+00 -0.00000000000E+00 -0.56013848526E+03  0.56013848526E+03  0.00000000000E+00 0.  1.
      99926    2    1    2    0    0 -0.71054273576E-14  0.14210854715E-13 -0.46617727193E+03  0.65409969858E+03  0.45883021568E+03 0.  0.
      99925    2    3    3    0    0  0.46332838928E+02 -0.83740852950E+02 -0.19696302660E+03  0.34219734142E+03  0.26295498514E+03 0.  0.
         25    1    4    4    0    0  0.27854291486E+02 -0.78887784219E+02 -0.13088429932E+03  0.19944260317E+03  0.12509000000E+03 0.  0.
         25    1    3    3    0    0 -0.46332838928E+02  0.83740852950E+02 -0.26921424533E+03  0.31190235717E+03  0.12509000000E+03 0.  0.
         25    1    4    4    0    0  0.18478547442E+02 -0.48530687305E+01 -0.66078727282E+02  0.14275473824E+03  0.12509000000E+03 0.  0.
<mgrwt>
<rscale>  2 0.45883022E+03</rscale>
<asrwt>0</asrwt>
<pdfrwt beam="1">  1       21 0.13817826E-01 0.45883022E+03</pdfrwt>
<pdfrwt beam="2">  1       21 0.82373306E-01 0.45883022E+03</pdfrwt>
<totfact> 0.53821280E+04</totfact>
</mgrwt>
</event>
<event>
 7    0  0.4685107E-002  0.4064100E+03  0.7546771E-02  0.1041582E+00
         21   -1    0    0  502  501  0.00000000000E+00  0.00000000000E+00  0.30770314640E+03  0.30770314640E+03  0.00000000000E+00 0. -1.
         21   -1    0    0  501  502 -0.00000000000E+00 -0.00000000000E+00 -0.13419517236E+03  0.13419517236E+03  0.00000000000E+00 0. -1.
      99926    2    1    2    0    0  0.00000000000E+00  0.00000000000E+00  0.17350797404E+03  0.44189831875E+03  0.40641002333E+03 0.  0.
      99925    2    3    3    0    0 -0.23562570127E+02 -0.14888126320E+02  0.16845552053E+03  0.31364120822E+03  0.26309065753E+03 0.  0.
         25    1    4    4    0    0 -0.41239143687E+02  0.20919130472E+01  0.54139075189E+02  0.14242047126E+03  0.12509000000E+03 0.  0.
         25    1    4    4    0    0  0.17676573560E+02 -0.16980039368E+02  0.11431644534E+03  0.17122073696E+03  0.12509000000E+03 0.  0.
         25    1    3    3    0    0  0.23562570127E+02  0.14888126320E+02  0.50524535133E+01  0.12825711054E+03  0.12509000000E+03 0.  0.
<mgrwt>
<rscale>  2 0.40641002E+03</rscale>
<asrwt>0</asrwt>
<pdfrwt beam="1">  1       21 0.45250463E-01 0.40641002E+03</pdfrwt>
<pdfrwt beam="2">  1       21 0.19734584E-01 0.40641002E+03</pdfrwt>
<totfact> 0.10439456E+05</totfact>
</mgrwt>
</event>
<event>
 7    0  0.4685107E-002  0.4554250E+03  0.7546771E-02  0.1026117E+00
         21   -1    0    0  502  501  0.00000000000E+00  0.00000000000E+00  0.87163842125E+02  0.87163842125E+02  0.00000000000E+00 0. -1.
         21   -1    0    0  501  502 -0.00000000000E+00 -0.00000000000E+00 -0.59489089593E+03  0.59489089593E+03  0.00000000000E+00 0. -1.
      99926    2    1    2    0    0  0.00000000000E+00  0.00000000000E+00 -0.50772705380E+03  0.68205473805E+03  0.45542497136E+03 0.  0.
      99925    2    3    3    0    0 -0.34790181891E+02  0.34022881302E+02 -0.16561939281E+03  0.31455906050E+03  0.26296331695E+03 0.  0.
         25    1    4    4    0    0 -0.40510213155E+01  0.10537440370E+02 -0.36799212181E+02  0.13087833488E+03  0.12509000000E+03 0.  0.
         25    1    4    4    0    0 -0.30739160575E+02  0.23485440932E+02 -0.12882018063E+03  0.18368072562E+03  0.12509000000E+03 0.  0.
         25    1    3    3    0    0  0.34790181891E+02 -0.34022881302E+02 -0.34210766099E+03  0.36749567755E+03  0.12509000000E+03 0.  0.
<mgrwt>
<rscale>  2 0.45542497E+03</rscale>
<asrwt>0</asrwt>
<pdfrwt beam="1">  1       21 0.12818212E-01 0.45542497E+03</pdfrwt>
<pdfrwt beam="2">  1       21 0.87483955E-01 0.45542497E+03</pdfrwt>
<totfact> 0.53708535E+04</totfact>
</mgrwt>
</event>
<event>
 7    0  0.4685107E-002  0.4525831E+03  0.7546771E-02  0.1026955E+00
         21   -1    0    0  502  501  0.00000000000E+00  0.00000000000E+00  0.74378213146E+02  0.74378213146E+02  0.00000000000E+00 0. -1.
         21   -1    0    0  501  502 -0.00000000000E+00 -0.00000000000E+00 -0.68847943186E+03  0.68847943186E+03  0.00000000000E+00 0. -1.
      99926    2    1    2    0    0 -0.71054273576E-14  0.00000000000E+00 -0.61410121871E+03  0.76285764501E+03  0.45258311913E+03 0.  0.
      99925    2    3    3    0    0  0.38366849349E+02 -0.88600974082E+02 -0.29611422190E+03  0.40777260451E+03  0.26319710645E+03 0.  0.
         25    1    4    4    0    0  0.46202748921E+02 -0.66733055580E+02 -0.12522265743E+03  0.19472086881E+03  0.12509000000E+03 0.  0.
         25    1    3    3    0    0 -0.38366849349E+02  0.88600974082E+02 -0.31798699682E+03  0.35508504049E+03  0.12509000000E+03 0.  0.
         25    1    4    4    0    0 -0.78358995719E+01 -0.21867918502E+02 -0.17089156446E+03  0.21305173570E+03  0.12509000000E+03 0.  0.
<mgrwt>
<rscale>  2 0.45258312E+03</rscale>
<asrwt>0</asrwt>
<pdfrwt beam="1">  1       21 0.10937972E-01 0.45258312E+03</pdfrwt>
<pdfrwt beam="2">  1       21 0.10124698E+00 0.45258312E+03</pdfrwt>
<totfact> 0.50566197E+04</totfact>
</mgrwt>
</event>
<event>
 7    0  0.4685107E-002  0.4477400E+03  0.7546771E-02  0.1028398E+00
         21   -1    0    0  502  501  0.00000000000E+00  0.00000000000E+00  0.40577110485E+03  0.40577110485E+03  0.00000000000E+00 0.  1.
         21   -1    0    0  501  502 -0.00000000000E+00 -0.00000000000E+00 -0.12351243527E+03  0.12351243527E+03  0.00000000000E+00 0.  1.
      99926    2    1    2    0    0 -0.66613381478E-15  0.00000000000E+00  0.28225866957E+03  0.52928354012E+03  0.44774000189E+03 0.  0.
      99925    2    3    3    0    0  0.14360784158E+01 -0.87894691757E+02  0.10829745858E+03  0.29768572020E+03  0.26298461803E+03 0.  0.
         25    1    4    4    0    0  0.35833058245E+02 -0.22787134414E+02  0.53873027520E+02  0.14266419576E+03  0.12509000000E+03 0.  0.
         25    1    4    4    0    0 -0.34396979829E+02 -0.65107557343E+02  0.54424431059E+02  0.15502152444E+03  0.12509000000E+03 0.  0.
         25    1    3    3    0    0 -0.14360784158E+01  0.87894691757E+02  0.17396121099E+03  0.23159781992E+03  0.12509000000E+03 0.  0.
<mgrwt>
<rscale>  2 0.44774000E+03</rscale>
<asrwt>0</asrwt>
<pdfrwt beam="1">  1       21 0.59672221E-01 0.44774000E+03</pdfrwt>
<pdfrwt beam="2">  1       21 0.18163594E-01 0.44774000E+03</pdfrwt>
<totfact> 0.67026327E+04</totfact>
</mgrwt>
</event>
<event>
 7    0  0.4685107E-002  0.4881519E+03  0.7546771E-02  0.1016919E+00
         21   -1    0    0  502  501  0.00000000000E+00  0.00000000000E+00  0.11133918965E+03  0.11133918965E+03  0.00000000000E+00 0. -1.
         21   -1    0    0  501  502 -0.00000000000E+00 -0.00000000000E+00 -0.53505937743E+03  0.53505937743E+03  0.00000000000E+00 0. -1.
      99926    2    1    2    0    0 -0.14210854715E-13  0.71054273576E-14 -0.42372018779E+03  0.64639856708E+03  0.48815193330E+03 0.  0.
      99925    2    3    3    0    0 -0.68292723081E+02  0.52691946395E+02 -0.40882787759E+03  0.49372366330E+03  0.26302563557E+03 0.  0.
         25    1    3    3    0    0  0.68292723081E+02 -0.52691946395E+02 -0.14892310198E+02  0.15267490378E+03  0.12509000000E+03 0.  0.
         25    1    4    4    0    0 -0.24111112694E+02 -0.56361710401E+01 -0.14815283830E+03  0.19547348612E+03  0.12509000000E+03 0.  0.
         25    1    4    4    0    0 -0.44181610387E+02  0.58328117435E+02 -0.26067503929E+03  0.29825017718E+03  0.12509000000E+03 0.  0.
<mgrwt>
<rscale>  2 0.48815193E+03</rscale>
<asrwt>0</asrwt>
<pdfrwt beam="1">  1       21 0.16373410E-01 0.48815193E+03</pdfrwt>
<pdfrwt beam="2">  1       21 0.78685203E-01 0.48815193E+03</pdfrwt>
<totfact> 0.43392258E+04</totfact>
</mgrwt>
</event>
<event>
 7    0  0.4685107E-002  0.4547287E+03  0.7546771E-02  0.1026321E+00
         21   -1    0    0  502  501  0.00000000000E+00  0.00000000000E+00  0.13654594048E+04  0.13654594048E+04  0.00000000000E+00 0.  1.
         21   -1    0    0  501  502 -0.00000000000E+00 -0.00000000000E+00 -0.37858725132E+02  0.37858725132E+02  0.00000000000E+00 0.  1.
      99926    2    1    2    0    0  0.35527136788E-14  0.00000000000E+00  0.13276006796E+04  0.14033181299E+04  0.45472872038E+03 0.  0.
      99925    2    3    3    0    0  0.13753129711E+02  0.10138018625E+03  0.68760664928E+03  0.74323710629E+03  0.26292850985E+03 0.  0.
         25    1    4    4    0    0  0.40932835493E+02  0.47504441623E+02  0.28821410086E+03  0.32038577533E+03  0.12509000000E+03 0.  0.
         25    1    3    3    0    0 -0.13753129711E+02 -0.10138018625E+03  0.63999403035E+03  0.66008102361E+03  0.12509000000E+03 0.  0.
         25    1    4    4    0    0 -0.27179705782E+02  0.53875744624E+02  0.39939254842E+03  0.42285133096E+03  0.12509000000E+03 0.  0.
<mgrwt>
<rscale>  2 0.45472872E+03</rscale>
<asrwt>0</asrwt>
<pdfrwt beam="1">  1       21 0.20080282E+00 0.45472872E+03</pdfrwt>
<pdfrwt beam="2">  1       21 0.55674605E-02 0.45472872E+03</pdfrwt>
<totfact> 0.26299115E+04</totfact>
</mgrwt>
</event>
<event>
 7    0  0.4685107E-002  0.4546570E+03  0.7546771E-02  0.1026342E+00
         21   -1    0    0  502  501  0.00000000000E+00  0.00000000000E+00  0.24573387458E+03  0.24573387458E+03  0.00000000000E+00 0. -1.
         21   -1    0    0  501  502 -0.00000000000E+00 -0.00000000000E+00 -0.21030164299E+03  0.21030164299E+03  0.00000000000E+00 0. -1.
      99926    2    1    2    0    0  0.00000000000E+00  0.00000000000E+00  0.35432231594E+02  0.45603551757E+03  0.45465695887E+03 0.  0.
      99925    2    3    3    0    0  0.40837577448E+02  0.41165072858E+02  0.11929879035E+03  0.29465590692E+03  0.26311144245E+03 0.  0.
         25    1    4    4    0    0  0.84643124851E+01  0.42112243890E+02  0.95828544777E+02  0.16332698419E+03  0.12509000000E+03 0.  0.
         25    1    4    4    0    0  0.32373264963E+02 -0.94717103217E+00  0.23470245577E+02  0.13132892273E+03  0.12509000000E+03 0.  0.
         25    1    3    3    0    0 -0.40837577448E+02 -0.41165072858E+02 -0.83866558760E+02  0.16137961065E+03  0.12509000000E+03 0.  0.
<mgrwt>
<rscale>  2 0.45465696E+03</rscale>
<asrwt>0</asrwt>
<pdfrwt beam="1">  1       21 0.36137335E-01 0.45465696E+03</pdfrwt>
<pdfrwt beam="2">  1       21 0.30926712E-01 0.45465696E+03</pdfrwt>
<totfact> 0.68657758E+04</totfact>
</mgrwt>
</event>
<event>
 7    0  0.4685107E-002  0.4647596E+03  0.7546771E-02  0.1023410E+00
         21   -1    0    0  502  501  0.00000000000E+00  0.00000000000E+00  0.76671052832E+02  0.76671052832E+02  0.00000000000E+00 0. -1.
         21   -1    0    0  501  502 -0.00000000000E+00 -0.00000000000E+00 -0.70431247989E+03  0.70431247989E+03  0.00000000000E+00 0. -1.
      99926    2    1    2    0    0 -0.71054273576E-14  0.14210854715E-13 -0.62764142705E+03  0.78098353272E+03  0.46475963403E+03 0.  0.
      99925    2    3    3    0    0 -0.62700760165E+02  0.97435387347E+02 -0.45684809596E+03  0.53964785347E+03  0.26283946229E+03 0.  0.
         25    1    3    3    0    0  0.62700760165E+02 -0.97435387347E+02 -0.17079333110E+03  0.24133567925E+03  0.12509000000E+03 0.  0.
         25    1    4    4    0    0 -0.54882392262E+01  0.24115470279E+02 -0.25004178146E+03  0.28067788879E+03  0.12509000000E+03 0.  0.
         25    1    4    4    0    0 -0.57212520939E+02  0.73319917068E+02 -0.20680631449E+03  0.25896996468E+03  0.12509000000E+03 0.  0.
<mgrwt>
<rscale>  2 0.46475963E+03</rscale>
<asrwt>0</asrwt>
<pdfrwt beam="1">  1       21 0.11275156E-01 0.46475963E+03</pdfrwt>
<pdfrwt beam="2">  1       21 0.10357536E+00 0.46475963E+03</pdfrwt>
<totfact> 0.45139916E+04</totfact>
</mgrwt>
</event>
<event>
 7    0  0.4685107E-002  0.4504500E+03  0.7546771E-02  0.1027588E+00
         21   -1    0    0  502  501  0.00000000000E+00  0.00000000000E+00  0.17150569005E+04  0.17150569005E+04  0.00000000000E+00 0. -1.
         21   -1    0    0  501  502 -0.00000000000E+00 -0.00000000000E+00 -0.29577035536E+02  0.29577035536E+02  0.00000000000E+00 0. -1.
      99926    2    1    2    0    0  0.00000000000E+00  0.00000000000E+00  0.16854798649E+04  0.17446339360E+04  0.45044999230E+03 0.  0.
      99925    2    3    3    0    0 -0.81290925243E+02  0.32252582536E+02  0.81401264877E+03  0.85990173892E+03  0.26299422929E+03 0.  0.
         25    1    4    4    0    0 -0.17581865430E+01  0.27868944134E+02  0.34733366180E+03  0.37022688987E+03  0.12509000000E+03 0.  0.
         25    1    4    4    0    0 -0.79532738700E+02  0.43836384022E+01  0.46667898697E+03  0.48967484905E+03  0.12509000000E+03 0.  0.
         25    1    3    3    0    0  0.81290925243E+02 -0.32252582536E+02  0.87146721617E+03  0.88473219709E+03  0.12509000000E+03 0.  0.
<mgrwt>
<rscale>  2 0.45044999E+03</rscale>
<asrwt>0</asrwt>
<pdfrwt beam="1">  1       21 0.25221418E+00 0.45044999E+03</pdfrwt>
<pdfrwt beam="2">  1       21 0.43495652E-02 0.45044999E+03</pdfrwt>
<totfact> 0.19010713E+04</totfact>
</mgrwt>
</event>
<event>
 7    0  0.4685107E-002  0.4566930E+03  0.7546771E-02  0.1025745E+00
         21   -1    0    0  502  501  0.00000000000E+00  0.00000000000E+00  0.33810601204E+03  0.33810601204E+03  0.00000000000E+00 0. -1.
         21   -1    0    0  501  502 -0.00000000000E+00 -0.00000000000E+00 -0.15421826037E+03  0.15421826037E+03  0.00000000000E+00 0. -1.
      99926    2    1    2    0    0  0.00000000000E+00  0.00000000000E+00  0.18388775167E+03  0.49232427242E+03  0.45669298659E+03 0.  0.
      99925    2    3    3    0    0 -0.89115405894E+02 -0.59279516800E+02  0.69594798871E+02  0.29190969251E+03  0.26251136332E+03 0.  0.
         25    1    4    4    0    0 -0.12763569213E+02 -0.46482133073E+02  0.14562518743E+02  0.13484462335E+03  0.12509000000E+03 0.  0.
         25    1    3    3    0    0  0.89115405894E+02  0.59279516800E+02  0.11429295280E+03  0.20041457991E+03  0.12509000000E+03 0.  0.
         25    1    4    4    0    0 -0.76351836681E+02 -0.12797383726E+02  0.55032280128E+02  0.15706506916E+03  0.12509000000E+03 0.  0.
<mgrwt>
<rscale>  2 0.45669299E+03</rscale>
<asrwt>0</asrwt>
<pdfrwt beam="1">  1       21 0.49721472E-01 0.45669299E+03</pdfrwt>
<pdfrwt beam="2">  1       21 0.22679156E-01 0.45669299E+03</pdfrwt>
<totfact> 0.64936190E+04</totfact>
</mgrwt>
</event>
<event>
 7    0  0.4685107E-002  0.4582547E+03  0.7546771E-02  0.1025289E+00
         21   -1    0    0  502  501  0.00000000000E+00  0.00000000000E+00  0.13897680979E+04  0.13897680979E+04  0.00000000000E+00 0. -1.
         21   -1    0    0  501  502 -0.00000000000E+00 -0.00000000000E+00 -0.37775615986E+02  0.37775615986E+02  0.00000000000E+00 0. -1.
      99926    2    1    2    0    0  0.00000000000E+00  0.00000000000E+00  0.13519924819E+04  0.14275437139E+04  0.45825471509E+03 0.  0.
      99925    2    3    3    0    0 -0.16991393883E+02 -0.10298953199E+03  0.68751318932E+03  0.74338306787E+03  0.26277071554E+03 0.  0.
         25    1    3    3    0    0  0.16991393883E+02  0.10298953199E+03  0.66447929260E+03  0.68416064602E+03  0.12509000000E+03 0.  0.
         25    1    4    4    0    0 -0.37945082059E+02 -0.33985079224E+02  0.38906251392E+03  0.41183972938E+03  0.12509000000E+03 0.  0.
         25    1    4    4    0    0  0.20953688177E+02 -0.69004452766E+02  0.29845067540E+03  0.33154333849E+03  0.12509000000E+03 0.  0.
<mgrwt>
<rscale>  2 0.45825472E+03</rscale>
<asrwt>0</asrwt>
<pdfrwt beam="1">  1       21 0.20437763E+00 0.45825472E+03</pdfrwt>
<pdfrwt beam="2">  1       21 0.55552386E-02 0.45825472E+03</pdfrwt>
<totfact> 0.24969717E+04</totfact>
</mgrwt>
</event>
<event>
 7    0  0.4685107E-002  0.4490808E+03  0.7546771E-02  0.1027997E+00
         21   -1    0    0  502  501  0.00000000000E+00  0.00000000000E+00  0.76471231405E+03  0.76471231405E+03  0.00000000000E+00 0. -1.
         21   -1    0    0  501  502 -0.00000000000E+00 -0.00000000000E+00 -0.65931186983E+02  0.65931186983E+02  0.00000000000E+00 0. -1.
      99926    2    1    2    0    0 -0.14210854715E-13  0.00000000000E+00  0.69878112707E+03  0.83064350103E+03  0.44908079703E+03 0.  0.
      99925    2    3    3    0    0  0.81831872203E+02 -0.67566680055E+02  0.40981981197E+03  0.49836671688E+03  0.26297413305E+03 0.  0.
         25    1    4    4    0    0  0.77020018513E+02 -0.43042103618E+02  0.18750490752E+03  0.24205434179E+03  0.12509000000E+03 0.  0.
         25    1    4    4    0    0  0.48118536907E+01 -0.24524576437E+02  0.22231490445E+03  0.25631237509E+03  0.12509000000E+03 0.  0.
         25    1    3    3    0    0 -0.81831872203E+02  0.67566680055E+02  0.28896131509E+03  0.33227678415E+03  0.12509000000E+03 0.  0.
<mgrwt>
<rscale>  2 0.44908080E+03</rscale>
<asrwt>0</asrwt>
<pdfrwt beam="1">  1       21 0.11245769E+00 0.44908080E+03</pdfrwt>
<pdfrwt beam="2">  1       21 0.96957632E-02 0.44908080E+03</pdfrwt>
<totfact> 0.48533081E+04</totfact>
</mgrwt>
</event>
<event>
 7    0  0.4685107E-002  0.4580637E+03  0.7546771E-02  0.1025344E+00
         21   -1    0    0  502  501  0.00000000000E+00  0.00000000000E+00  0.69048664164E+02  0.69048664164E+02  0.00000000000E+00 0.  1.
         21   -1    0    0  501  502 -0.00000000000E+00 -0.00000000000E+00 -0.75968996592E+03  0.75968996592E+03  0.00000000000E+00 0.  1.
      99926    2    1    2    0    0  0.00000000000E+00  0.71054273576E-14 -0.69064130175E+03  0.82873863008E+03  0.45806365202E+03 0.  0.
      99925    2    3    3    0    0 -0.15736643595E+02  0.61120571637E+02 -0.25791132162E+03  0.37389128202E+03  0.26323577782E+03 0.  0.
         25    1    3    3    0    0  0.15736643595E+02 -0.61120571637E+02 -0.43272998014E+03  0.45484734806E+03  0.12509000000E+03 0.  0.
         25    1    4    4    0    0 -0.97784526324E+01  0.19831457784E+02 -0.18134828376E+03  0.22141276606E+03  0.12509000000E+03 0.  0.
         25    1    4    4    0    0 -0.59581909627E+01  0.41289113853E+02 -0.76563037857E+02  0.15247851596E+03  0.12509000000E+03 0.  0.
<mgrwt>
<rscale>  2 0.45806365E+03</rscale>
<asrwt>0</asrwt>
<pdfrwt beam="1">  1       21 0.10154216E-01 0.45806365E+03</pdfrwt>
<pdfrwt beam="2">  1       21 0.11171911E+00 0.45806365E+03</pdfrwt>
<totfact> 0.45307021E+04</totfact>
</mgrwt>
</event>
<event>
 7    0  0.4685107E-002  0.4585968E+03  0.7546771E-02  0.1025189E+00
         21   -1    0    0  502  501  0.00000000000E+00  0.00000000000E+00  0.10529727600E+04  0.10529727600E+04  0.00000000000E+00 0. -1.
         21   -1    0    0  501  502 -0.00000000000E+00 -0.00000000000E+00 -0.49932685747E+02  0.49932685747E+02  0.00000000000E+00 0. -1.
      99926    2    1    2    0    0  0.00000000000E+00  0.00000000000E+00  0.10030400742E+04  0.11029054457E+04  0.45859680733E+03 0.  0.
      99925    2    3    3    0    0 -0.29701251763E+02  0.10710675663E+03  0.71239815020E+03  0.76753362553E+03  0.26314011522E+03 0.  0.
         25    1    4    4    0    0 -0.32366092389E+02  0.91805480578E+02  0.42990259050E+03  0.45819161453E+03  0.12509000000E+03 0.  0.
         25    1    4    4    0    0  0.26648406256E+01  0.15301276056E+02  0.28249555969E+03  0.30934201100E+03  0.12509000000E+03 0.  0.
         25    1    3    3    0    0  0.29701251763E+02 -0.10710675663E+03  0.29064192401E+03  0.33537182017E+03  0.12509000000E+03 0.  0.
<mgrwt>
<rscale>  2 0.45859681E+03</rscale>
<asrwt>0</asrwt>
<pdfrwt beam="1">  1       21 0.15484892E+00 0.45859681E+03</pdfrwt>
<pdfrwt beam="2">  1       21 0.73430427E-02 0.45859681E+03</pdfrwt>
<totfact> 0.34417739E+04</totfact>
</mgrwt>
</event>
<event>
 7    0  0.4685107E-002  0.4581029E+03  0.7546771E-02  0.1025333E+00
         21   -1    0    0  502  501  0.00000000000E+00  0.00000000000E+00  0.19598662670E+03  0.19598662670E+03  0.00000000000E+00 0. -1.
         21   -1    0    0  501  502 -0.00000000000E+00 -0.00000000000E+00 -0.26769463248E+03  0.26769463248E+03  0.00000000000E+00 0. -1.
      99926    2    1    2    0    0  0.71054273576E-14  0.00000000000E+00 -0.71708005787E+02  0.46368125918E+03  0.45810290549E+03 0.  0.
      99925    2    3    3    0    0 -0.32885776628E+02 -0.32381288822E+02  0.62659319258E+02  0.27438755007E+03  0.26312034351E+03 0.  0.
         25    1    4    4    0    0 -0.38619548965E+01  0.23078840135E+02  0.29844038994E+02  0.13071236484E+03  0.12509000000E+03 0.  0.
         25    1    4    4    0    0 -0.29023821732E+02 -0.55460128957E+02  0.32815280264E+02  0.14367518523E+03  0.12509000000E+03 0.  0.
         25    1    3    3    0    0  0.32885776628E+02  0.32381288822E+02 -0.13436732504E+03  0.18929370911E+03  0.12509000000E+03 0.  0.
<mgrwt>
<rscale>  2 0.45810291E+03</rscale>
<asrwt>0</asrwt>
<pdfrwt beam="1">  1       21 0.28821563E-01 0.45810291E+03</pdfrwt>
<pdfrwt beam="2">  1       21 0.39366857E-01 0.45810291E+03</pdfrwt>
<totfact> 0.66258330E+04</totfact>
</mgrwt>
</event>
<event>
 7    0  0.4685107E-002  0.4446661E+03  0.7546771E-02  0.1029325E+00
         21   -1    0    0  502  501  0.00000000000E+00  0.00000000000E+00  0.58848141383E+03  0.58848141383E+03  0.00000000000E+00 0.  1.
         21   -1    0    0  501  502 -0.00000000000E+00 -0.00000000000E+00 -0.83999217227E+02  0.83999217227E+02  0.00000000000E+00 0.  1.
      99926    2    1    2    0    0  0.00000000000E+00  0.00000000000E+00  0.50448219660E+03  0.67248063106E+03  0.44466606848E+03 0.  0.
      99925    2    3    3    0    0  0.26553266179E+02 -0.98185120897E+02  0.34809650791E+03  0.44787122422E+03  0.26281564024E+03 0.  0.
         25    1    4    4    0    0  0.24645788672E+02 -0.39702680532E+02  0.11169778917E+03  0.17409084394E+03  0.12509000000E+03 0.  0.
         25    1    3    3    0    0 -0.26553266179E+02  0.98185120897E+02  0.15638568870E+03  0.22460940684E+03  0.12509000000E+03 0.  0.
         25    1    4    4    0    0  0.19074775072E+01 -0.58482440365E+02  0.23639871874E+03  0.27378038028E+03  0.12509000000E+03 0.  0.
<mgrwt>
<rscale>  2 0.44466607E+03</rscale>
<asrwt>0</asrwt>
<pdfrwt beam="1">  1       21 0.86541382E-01 0.44466607E+03</pdfrwt>
<pdfrwt beam="2">  1       21 0.12352826E-01 0.44466607E+03</pdfrwt>
<totfact> 0.59087613E+04</totfact>
</mgrwt>
</event>
<event>
 7    0  0.4685107E-002  0.4474228E+03  0.7546771E-02  0.1028493E+00
         21   -1    0    0  502  501  0.00000000000E+00  0.00000000000E+00  0.15956353856E+04  0.15956353856E+04  0.00000000000E+00 0. -1.
         21   -1    0    0  501  502 -0.00000000000E+00 -0.00000000000E+00 -0.31364801993E+02  0.31364801993E+02  0.00000000000E+00 0. -1.
      99926    2    1    2    0    0  0.44408920985E-15 -0.17763568394E-14  0.15642705836E+04  0.16270001875E+04  0.44742278851E+03 0.  0.
      99925    2    3    3    0    0  0.28272399998E+01 -0.10171992820E+02  0.60834526145E+03  0.66286731689E+03  0.26305448095E+03 0.  0.
         25    1    3    3    0    0 -0.28272399998E+01  0.10171992820E+02  0.95592532211E+03  0.96413287065E+03  0.12509000000E+03 0.  0.
         25    1    4    4    0    0  0.14557488435E+02 -0.43082958271E+02  0.29237703221E+03  0.32124741062E+03  0.12509000000E+03 0.  0.
         25    1    4    4    0    0 -0.11730248435E+02  0.32910965451E+02  0.31596822924E+03  0.34161990628E+03  0.12509000000E+03 0.  0.
<mgrwt>
<rscale>  2 0.44742279E+03</rscale>
<asrwt>0</asrwt>
<pdfrwt beam="1">  1       21 0.23465221E+00 0.44742279E+03</pdfrwt>
<pdfrwt beam="2">  1       21 0.46124719E-02 0.44742279E+03</pdfrwt>
<totfact> 0.22098305E+04</totfact>
</mgrwt>
</event>
<event>
 7    0  0.4685107E-002  0.4437958E+03  0.7546771E-02  0.1029589E+00
         21   -1    0    0  502  501  0.00000000000E+00  0.00000000000E+00  0.16356311636E+03  0.16356311636E+03  0.00000000000E+00 0. -1.
         21   -1    0    0  501  502 -0.00000000000E+00 -0.00000000000E+00 -0.30103772050E+03  0.30103772050E+03  0.00000000000E+00 0. -1.
      99926    2    1    2    0    0  0.26645352591E-14 -0.14210854715E-13 -0.13747460415E+03  0.46460083686E+03  0.44379575350E+03 0.  0.
      99925    2    3    3    0    0 -0.59231250112E+01  0.86078987134E+02 -0.14552275175E+03  0.31242673849E+03  0.26265741987E+03 0.  0.
         25    1    4    4    0    0  0.12104291273E+02  0.17463308170E+02 -0.10010759118E+03  0.16161843617E+03  0.12509000000E+03 0.  0.
         25    1    4    4    0    0 -0.18027416285E+02  0.68615678964E+02 -0.45415160565E+02  0.15080830231E+03  0.12509000000E+03 0.  0.
         25    1    3    3    0    0  0.59231250112E+01 -0.86078987134E+02  0.80481476002E+01  0.15217409837E+03  0.12509000000E+03 0.  0.
<mgrwt>
<rscale>  2 0.44379575E+03</rscale>
<asrwt>0</asrwt>
<pdfrwt beam="1">  1       21 0.24053400E-01 0.44379575E+03</pdfrwt>
<pdfrwt beam="2">  1       21 0.44270252E-01 0.44379575E+03</pdfrwt>
<totfact> 0.74221078E+04</totfact>
</mgrwt>
</event>
<event>
 7    0  0.4685107E-002  0.4561078E+03  0.7546771E-02  0.1025916E+00
         21   -1    0    0  502  501  0.00000000000E+00  0.00000000000E+00  0.11528916319E+03  0.11528916319E+03  0.00000000000E+00 0.  1.
         21   -1    0    0  501  502 -0.00000000000E+00 -0.00000000000E+00 -0.45111416937E+03  0.45111416937E+03  0.00000000000E+00 0.  1.
      99926    2    1    2    0    0  0.00000000000E+00  0.00000000000E+00 -0.33582500618E+03  0.56640333256E+03  0.45610777275E+03 0.  0.
      99925    2    3    3    0    0  0.11376322391E+03  0.75698131179E+01 -0.20792146937E+03  0.35425669456E+03  0.26318642639E+03 0.  0.
         25    1    3    3    0    0 -0.11376322391E+03 -0.75698131179E+01 -0.12790353681E+03  0.21214663799E+03  0.12509000000E+03 0.  0.
         25    1    4    4    0    0  0.24913683043E+02  0.27458145831E+02 -0.11404332945E+03  0.17328597885E+03  0.12509000000E+03 0.  0.
         25    1    4    4    0    0  0.88849540864E+02 -0.19888332713E+02 -0.93878139917E+02  0.18097071571E+03  0.12509000000E+03 0.  0.
<mgrwt>
<rscale>  2 0.45610777E+03</rscale>
<asrwt>0</asrwt>
<pdfrwt beam="1">  1       21 0.16954289E-01 0.45610777E+03</pdfrwt>
<pdfrwt beam="2">  1       21 0.66340319E-01 0.45610777E+03</pdfrwt>
<totfact> 0.60265683E+04</totfact>
</mgrwt>
</event>
<event>
 7    0  0.4685107E-002  0.4491809E+03  0.7546771E-02  0.1027967E+00
         21   -1    0    0  502  501  0.00000000000E+00  0.00000000000E+00  0.94367347334E+03  0.94367347334E+03  0.00000000000E+00 0.  1.
         21   -1    0    0  501  502 -0.00000000000E+00 -0.00000000000E+00 -0.53451602255E+02  0.53451602255E+02  0.00000000000E+00 0.  1.
      99926    2    1    2    0    0 -0.35527136788E-14  0.00000000000E+00  0.89022187109E+03  0.99712507560E+03  0.44918085068E+03 0.  0.
      99925    2    3    3    0    0 -0.43443415803E+01 -0.10680400900E+03  0.53488115680E+03  0.60553791930E+03  0.26296834443E+03 0.  0.
         25    1    4    4    0    0  0.31569025754E+02 -0.49945045279E+02  0.21662967980E+03  0.25703508945E+03  0.12509000000E+03 0.  0.
         25    1    3    3    0    0  0.43443415803E+01  0.10680400900E+03  0.35534071429E+03  0.39158715629E+03  0.12509000000E+03 0.  0.
         25    1    4    4    0    0 -0.35913367334E+02 -0.56858963722E+02  0.31825147700E+03  0.34850282986E+03  0.12509000000E+03 0.  0.
<mgrwt>
<rscale>  2 0.44918085E+03</rscale>
<asrwt>0</asrwt>
<pdfrwt beam="1">  1       21 0.13877550E+00 0.44918085E+03</pdfrwt>
<pdfrwt beam="2">  1       21 0.78605303E-02 0.44918085E+03</pdfrwt>
<totfact> 0.41115880E+04</totfact>
</mgrwt>
</event>
<event>
 7    0  0.4685107E-002  0.4657706E+03  0.7546771E-02  0.1023121E+00
         21   -1    0    0  502  501  0.00000000000E+00  0.00000000000E+00  0.17892407614E+03  0.17892407614E+03  0.00000000000E+00 0.  1.
         21   -1    0    0  501  502 -0.00000000000E+00 -0.00000000000E+00 -0.30312050948E+03  0.30312050948E+03  0.00000000000E+00 0.  1.
      99926    2    1    2    0    0  0.00000000000E+00  0.00000000000E+00 -0.12419643334E+03  0.48204458562E+03  0.46577057493E+03 0.  0.
      99925    2    3    3    0    0 -0.92106747707E+02 -0.15987306673E+02 -0.16015646527E+03  0.32179515834E+03  0.26298818151E+03 0.  0.
         25    1    4    4    0    0 -0.28147242797E+02  0.87506411487E+01 -0.11419033375E+03  0.17191794967E+03  0.12509000000E+03 0.  0.
         25    1    4    4    0    0 -0.63959504910E+02 -0.24737947822E+02 -0.45966131523E+02  0.14987720867E+03  0.12509000000E+03 0.  0.
         25    1    3    3    0    0  0.92106747707E+02  0.15987306673E+02  0.35960031925E+02  0.16024942728E+03  0.12509000000E+03 0.  0.
<mgrwt>
<rscale>  2 0.46577057E+03</rscale>
<asrwt>0</asrwt>
<pdfrwt beam="1">  1       21 0.26312364E-01 0.46577057E+03</pdfrwt>
<pdfrwt beam="2">  1       21 0.44576545E-01 0.46577057E+03</pdfrwt>
<totfact> 0.61154794E+04</totfact>
</mgrwt>
</event>
<event>
 7    0  0.4685107E-002  0.4312757E+03  0.7546771E-02  0.1033458E+00
         21   -1    0    0  502  501  0.00000000000E+00  0.00000000000E+00  0.51996064353E+03  0.51996064353E+03  0.00000000000E+00 0. -1.
         21   -1    0    0  501  502 -0.00000000000E+00 -0.00000000000E+00 -0.89429226818E+02  0.89429226818E+02  0.00000000000E+00 0. -1.
      99926    2    1    2    0    0  0.00000000000E+00  0.00000000000E+00  0.43053141672E+03  0.60938987035E+03  0.43127568133E+03 0.  0.
      99925    2    3    3    0    0 -0.74446636133E+02  0.45078833735E+02  0.30511880358E+03  0.41203173265E+03  0.26286548182E+03 0.  0.
         25    1    4    4    0    0 -0.14524469749E+02 -0.11642013141E+02  0.15297711349E+03  0.19848426145E+03  0.12509000000E+03 0.  0.
         25    1    3    3    0    0  0.74446636133E+02 -0.45078833735E+02  0.12541261314E+03  0.19735813770E+03  0.12509000000E+03 0.  0.
         25    1    4    4    0    0 -0.59922166385E+02  0.56720846875E+02  0.15214169009E+03  0.21354747120E+03  0.12509000000E+03 0.  0.
<mgrwt>
<rscale>  2 0.43127568E+03</rscale>
<asrwt>0</asrwt>
<pdfrwt beam="1">  1       21 0.76464799E-01 0.43127568E+03</pdfrwt>
<pdfrwt beam="2">  1       21 0.13151357E-01 0.43127568E+03</pdfrwt>
<totfact> 0.70395888E+04</totfact>
</mgrwt>
</event>
<event>
 7    0  0.4685107E-002  0.4548058E+03  0.7546771E-02  0.1026299E+00
         21   -1    0    0  502  501  0.00000000000E+00  0.00000000000E+00  0.23488114951E+03  0.23488114951E+03  0.00000000000E+00 0.  1.
         21   -1    0    0  501  502 -0.00000000000E+00 -0.00000000000E+00 -0.22016272880E+03  0.22016272880E+03  0.00000000000E+00 0.  1.
      99926    2    1    2    0    0  0.00000000000E+00  0.00000000000E+00  0.14718420713E+02  0.45504387831E+03  0.45480578193E+03 0.  0.
      99925    2    3    3    0    0  0.10493302551E+03 -0.39847385248E+02 -0.41326810205E+01  0.28592372549E+03  0.26293828894E+03 0.  0.
         25    1    3    3    0    0 -0.10493302551E+03  0.39847385248E+02  0.18851101733E+02  0.16912015282E+03  0.12509000000E+03 0.  0.
         25    1    4    4    0    0  0.88796138613E+02 -0.42012549826E+02 -0.12216913043E+02  0.15951980955E+03  0.12509000000E+03 0.  0.
         25    1    4    4    0    0  0.16136886896E+02  0.21651645787E+01  0.80842320227E+01  0.12640391594E+03  0.12509000000E+03 0.  0.
<mgrwt>
<rscale>  2 0.45480578E+03</rscale>
<asrwt>0</asrwt>
<pdfrwt beam="1">  1       21 0.34541346E-01 0.45480578E+03</pdfrwt>
<pdfrwt beam="2">  1       21 0.32376872E-01 0.45480578E+03</pdfrwt>
<totfact> 0.68648910E+04</totfact>
</mgrwt>
</event>
<event>
 7    0  0.4685107E-002  0.4518103E+03  0.7546771E-02  0.1027184E+00
         21   -1    0    0  502  501  0.00000000000E+00  0.00000000000E+00  0.70423292131E+02  0.70423292131E+02  0.00000000000E+00 0. -1.
         21   -1    0    0  501  502 -0.00000000000E+00 -0.00000000000E+00 -0.72466283562E+03  0.72466283562E+03  0.00000000000E+00 0. -1.
      99926    2    1    2    0    0  0.00000000000E+00  0.00000000000E+00 -0.65423954349E+03  0.79508612775E+03  0.45181032555E+03 0.  0.
      99925    2    3    3    0    0 -0.48039751275E+02 -0.77053293575E+02 -0.30323315529E+03  0.41155253025E+03  0.26302112260E+03 0.  0.
         25    1    4    4    0    0 -0.41976676476E+02 -0.25701404321E+02 -0.10073278108E+03  0.16797977508E+03  0.12509000000E+03 0.  0.
         25    1    4    4    0    0 -0.60630747982E+01 -0.51351889254E+02 -0.20250037421E+03  0.24357275517E+03  0.12509000000E+03 0.  0.
         25    1    3    3    0    0  0.48039751275E+02  0.77053293575E+02 -0.35100638820E+03  0.38353359750E+03  0.12509000000E+03 0.  0.
<mgrwt>
<rscale>  2 0.45181033E+03</rscale>
<asrwt>0</asrwt>
<pdfrwt beam="1">  1       21 0.10356366E-01 0.45181033E+03</pdfrwt>
<pdfrwt beam="2">  1       21 0.10656807E+00 0.45181033E+03</pdfrwt>
<totfact> 0.49224119E+04</totfact>
</mgrwt>
</event>
<event>
 7    0  0.4685107E-002  0.4543503E+03  0.7546771E-02  0.1026433E+00
         21   -1    0    0  502  501  0.00000000000E+00  0.00000000000E+00  0.10839002925E+04  0.10839002925E+04  0.00000000000E+00 0. -1.
         21   -1    0    0  501  502 -0.00000000000E+00 -0.00000000000E+00 -0.47613743475E+02  0.47613743475E+02  0.00000000000E+00 0. -1.
      99926    2    1    2    0    0  0.00000000000E+00 -0.27755575616E-15  0.10362865490E+04  0.11315140359E+04  0.45435030748E+03 0.  0.
      99925    2    3    3    0    0  0.12406800686E+02  0.46267475526E+00  0.37391067300E+03  0.45731565863E+03  0.26301003303E+03 0.  0.
         25    1    4    4    0    0 -0.29787709463E+02  0.16477387769E+02  0.20102320166E+03  0.23920001599E+03  0.12509000000E+03 0.  0.
         25    1    4    4    0    0  0.42194510149E+02 -0.16014713014E+02  0.17288747134E+03  0.21811564265E+03  0.12509000000E+03 0.  0.
         25    1    3    3    0    0 -0.12406800686E+02 -0.46267475526E+00  0.66237587598E+03  0.67419837729E+03  0.12509000000E+03 0.  0.
<mgrwt>
<rscale>  2 0.45435031E+03</rscale>
<asrwt>0</asrwt>
<pdfrwt beam="1">  1       21 0.15939709E+00 0.45435031E+03</pdfrwt>
<pdfrwt beam="2">  1       21 0.70020218E-02 0.45435031E+03</pdfrwt>
<totfact> 0.34580407E+04</totfact>
</mgrwt>
</event>
<event>
 7    0  0.4685107E-002  0.4620778E+03  0.7546771E-02  0.1024180E+00
         21   -1    0    0  502  501  0.00000000000E+00  0.00000000000E+00  0.76517538995E+02  0.76517538995E+02  0.00000000000E+00 0.  1.
         21   -1    0    0  501  502 -0.00000000000E+00 -0.00000000000E+00 -0.69760432162E+03  0.69760432162E+03  0.00000000000E+00 0.  1.
      99926    2    1    2    0    0  0.35527136788E-14  0.00000000000E+00 -0.62108678263E+03  0.77412186062E+03  0.46207776784E+03 0.  0.
      99925    2    3    3    0    0 -0.24901405087E+02  0.84527367394E+02 -0.52405834822E+03  0.59293968435E+03  0.26301209311E+03 0.  0.
         25    1    4    4    0    0  0.81692469647E+01  0.47843833301E+02 -0.18800280284E+03  0.23097257620E+03  0.12509000000E+03 0.  0.
         25    1    4    4    0    0 -0.33070652052E+02  0.36683534093E+02 -0.33605554538E+03  0.36196710815E+03  0.12509000000E+03 0.  0.
         25    1    3    3    0    0  0.24901405087E+02 -0.84527367394E+02 -0.97028434407E+02  0.18118217627E+03  0.12509000000E+03 0.  0.
<mgrwt>
<rscale>  2 0.46207777E+03</rscale>
<asrwt>0</asrwt>
<pdfrwt beam="1">  1       21 0.11252580E-01 0.46207777E+03</pdfrwt>
<pdfrwt beam="2">  1       21 0.10258887E+00 0.46207777E+03</pdfrwt>
<totfact> 0.46409353E+04</totfact>
</mgrwt>
</event>
<event>
 7    0  0.4685107E-002  0.4580492E+03  0.7546771E-02  0.1025349E+00
         21   -1    0    0  502  501  0.00000000000E+00  0.00000000000E+00  0.13893571554E+03  0.13893571554E+03  0.00000000000E+00 0.  1.
         21   -1    0    0  501  502 -0.00000000000E+00 -0.00000000000E+00 -0.37752910800E+03  0.37752910800E+03  0.00000000000E+00 0.  1.
      99926    2    1    2    0    0  0.00000000000E+00  0.71054273576E-14 -0.23859339246E+03  0.51646482354E+03  0.45804924084E+03 0.  0.
      99925    2    3    3    0    0  0.93337054162E+02  0.49002541388E+02 -0.95207365557E+02  0.29893295104E+03  0.26302739785E+03 0.  0.
         25    1    4    4    0    0  0.36205108918E+02  0.63567524009E+02 -0.43586279373E+02  0.15132386418E+03  0.12509000000E+03 0.  0.
         25    1    4    4    0    0  0.57131945244E+02 -0.14564982622E+02 -0.51621086184E+02  0.14760908686E+03  0.12509000000E+03 0.  0.
         25    1    3    3    0    0 -0.93337054162E+02 -0.49002541388E+02 -0.14338602690E+03  0.21753187250E+03  0.12509000000E+03 0.  0.
<mgrwt>
<rscale>  2 0.45804924E+03</rscale>
<asrwt>0</asrwt>
<pdfrwt beam="1">  1       21 0.20431723E-01 0.45804924E+03</pdfrwt>
<pdfrwt beam="2">  1       21 0.55518986E-01 0.45804924E+03</pdfrwt>
<totfact> 0.62600307E+04</totfact>
</mgrwt>
</event>
<event>
 7    0  0.4685107E-002  0.4438082E+03  0.7546771E-02  0.1029585E+00
         21   -1    0    0  502  501  0.00000000000E+00  0.00000000000E+00  0.10713827518E+03  0.10713827518E+03  0.00000000000E+00 0. -1.
         21   -1    0    0  501  502 -0.00000000000E+00 -0.00000000000E+00 -0.45960634643E+03  0.45960634643E+03  0.00000000000E+00 0. -1.
      99926    2    1    2    0    0  0.00000000000E+00  0.00000000000E+00 -0.35246807125E+03  0.56674462161E+03  0.44380820731E+03 0.  0.
      99925    2    3    3    0    0  0.49683514847E+02 -0.54652506696E+02 -0.13348353036E+03  0.30395747317E+03  0.26290101651E+03 0.  0.
         25    1    4    4    0    0  0.32545157366E+02 -0.16049889758E+02 -0.23998191989E+02  0.13243944861E+03  0.12509000000E+03 0.  0.
         25    1    3    3    0    0 -0.49683514847E+02  0.54652506696E+02 -0.21898454090E+03  0.26278714844E+03  0.12509000000E+03 0.  0.
         25    1    4    4    0    0  0.17138357481E+02 -0.38602616939E+02 -0.10948533837E+03  0.17151802456E+03  0.12509000000E+03 0.  0.
<mgrwt>
<rscale>  2 0.44380821E+03</rscale>
<asrwt>0</asrwt>
<pdfrwt beam="1">  1       21 0.15755628E-01 0.44380821E+03</pdfrwt>
<pdfrwt beam="2">  1       21 0.67589170E-01 0.44380821E+03</pdfrwt>
<totfact> 0.66463491E+04</totfact>
</mgrwt>
</event>
<event>
 7    0  0.4685107E-002  0.4457137E+03  0.7546771E-02  0.1029008E+00
         21   -1    0    0  502  501  0.00000000000E+00  0.00000000000E+00  0.99224025512E+03  0.99224025512E+03  0.00000000000E+00 0. -1.
         21   -1    0    0  501  502 -0.00000000000E+00 -0.00000000000E+00 -0.50053585972E+02  0.50053585972E+02  0.00000000000E+00 0. -1.
      99926    2    1    2    0    0  0.00000000000E+00  0.00000000000E+00  0.94218666915E+03  0.10422938411E+04  0.44571373286E+03 0.  0.
      99925    2    3    3    0    0 -0.78343673361E+02  0.21183069258E+02  0.44485595452E+03  0.52309079662E+03  0.26294620677E+03 0.  0.
         25    1    4    4    0    0 -0.10395412007E+02  0.12073787313E+02  0.26552151065E+03  0.29394390901E+03  0.12509000000E+03 0.  0.
         25    1    4    4    0    0 -0.67948261354E+02  0.91092819451E+01  0.17933444388E+03  0.22914688761E+03  0.12509000000E+03 0.  0.
         25    1    3    3    0    0  0.78343673361E+02 -0.21183069258E+02  0.49733071462E+03  0.51920304447E+03  0.12509000000E+03 0.  0.
<mgrwt>
<rscale>  2 0.44571373E+03</rscale>
<asrwt>0</asrwt>
<pdfrwt beam="1">  1       21 0.14591767E+00 0.44571373E+03</pdfrwt>
<pdfrwt beam="2">  1       21 0.73608221E-02 0.44571373E+03</pdfrwt>
<totfact> 0.40412281E+04</totfact>
</mgrwt>
</event>
<event>
 7    0  0.4685107E-002  0.4554550E+03  0.7546771E-02  0.1026108E+00
         21   -1    0    0  502  501  0.00000000000E+00  0.00000000000E+00  0.95544757457E+02  0.95544757457E+02  0.00000000000E+00 0.  1.
         21   -1    0    0  501  502 -0.00000000000E+00 -0.00000000000E+00 -0.54278028324E+03  0.54278028324E+03  0.00000000000E+00 0.  1.
      99926    2    1    2    0    0  0.00000000000E+00  0.00000000000E+00 -0.44723552578E+03  0.63832504069E+03  0.45545498357E+03 0.  0.
      99925    2    3    3    0    0  0.66292877674E+02 -0.73021359696E+02 -0.20181661414E+03  0.34574203556E+03  0.26283216091E+03 0.  0.
         25    1    4    4    0    0  0.52783392334E+02 -0.41003477881E+02 -0.14863594807E+03  0.20544470026E+03  0.12509000000E+03 0.  0.
         25    1    3    3    0    0 -0.66292877674E+02  0.73021359696E+02 -0.24541891164E+03  0.29258300513E+03  0.12509000000E+03 0.  0.
         25    1    4    4    0    0  0.13509485339E+02 -0.32017881815E+02 -0.53180666069E+02  0.14029733530E+03  0.12509000000E+03 0.  0.
<mgrwt>
<rscale>  2 0.45545498E+03</rscale>
<asrwt>0</asrwt>
<pdfrwt beam="1">  1       21 0.14050700E-01 0.45545498E+03</pdfrwt>
<pdfrwt beam="2">  1       21 0.79820628E-01 0.45545498E+03</pdfrwt>
<totfact> 0.56177156E+04</totfact>
</mgrwt>
</event>
<event>
 7    0  0.4685107E-002  0.4567360E+03  0.7546771E-02  0.1025732E+00
         21   -1    0    0  502  501  0.00000000000E+00  0.00000000000E+00  0.71513842964E+03  0.71513842964E+03  0.00000000000E+00 0. -1.
         21   -1    0    0  501  502 -0.00000000000E+00 -0.00000000000E+00 -0.72925657194E+02  0.72925657194E+02  0.00000000000E+00 0. -1.
      99926    2    1    2    0    0  0.00000000000E+00  0.00000000000E+00  0.64221277244E+03  0.78806408683E+03  0.45673598486E+03 0.  0.
      99925    2    3    3    0    0 -0.66083172543E+02  0.71729174415E+02  0.50787346419E+03  0.58020207011E+03  0.26303407834E+03 0.  0.
         25    1    4    4    0    0  0.98709643231E+00  0.33360714771E+02  0.18932609710E+03  0.22935952300E+03  0.12509000000E+03 0.  0.
         25    1    3    3    0    0  0.66083172543E+02 -0.71729174415E+02  0.13433930825E+03  0.20786201672E+03  0.12509000000E+03 0.  0.
         25    1    4    4    0    0 -0.67070268975E+02  0.38368459644E+02  0.31854736709E+03  0.35084254710E+03  0.12509000000E+03 0.  0.
<mgrwt>
<rscale>  2 0.45673598E+03</rscale>
<asrwt>0</asrwt>
<pdfrwt beam="1">  1       21 0.10516741E+00 0.45673598E+03</pdfrwt>
<pdfrwt beam="2">  1       21 0.10724362E-01 0.45673598E+03</pdfrwt>
<totfact> 0.47694418E+04</totfact>
</mgrwt>
</event>
<event>
 7    0  0.4685107E-002  0.4555202E+03  0.7546771E-02  0.1026089E+00
         21   -1    0    0  502  501  0.00000000000E+00  0.00000000000E+00  0.36608874452E+03  0.36608874452E+03  0.00000000000E+00 0. -1.
         21   -1    0    0  501  502 -0.00000000000E+00 -0.00000000000E+00 -0.14169971687E+03  0.14169971687E+03  0.00000000000E+00 0. -1.
      99926    2    1    2    0    0  0.00000000000E+00  0.00000000000E+00  0.22438902765E+03  0.50778846138E+03  0.45552023641E+03 0.  0.
      99925    2    3    3    0    0  0.64763996183E+02 -0.47280552702E+02  0.51257734559E+02  0.27963987249E+03  0.26294728953E+03 0.  0.
         25    1    4    4    0    0  0.28686890729E+02 -0.11707070884E+02  0.64353599990E+02  0.14404474006E+03  0.12509000000E+03 0.  0.
         25    1    4    4    0    0  0.36077105453E+02 -0.35573481818E+02 -0.13095865431E+02  0.13559513243E+03  0.12509000000E+03 0.  0.
         25    1    3    3    0    0 -0.64763996183E+02  0.47280552702E+02  0.17313129309E+03  0.22814858889E+03  0.12509000000E+03 0.  0.
<mgrwt>
<rscale>  2 0.45552024E+03</rscale>
<asrwt>0</asrwt>
<pdfrwt beam="1">  1       21 0.53836580E-01 0.45552024E+03</pdfrwt>
<pdfrwt beam="2">  1       21 0.20838194E-01 0.45552024E+03</pdfrwt>
<totfact> 0.64460320E+04</totfact>
</mgrwt>
</event>
<event>
 7    0  0.4685107E-002  0.4530220E+03  0.7546771E-02  0.1026825E+00
         21   -1    0    0  502  501  0.00000000000E+00  0.00000000000E+00  0.10405851911E+04  0.10405851911E+04  0.00000000000E+00 0. -1.
         21   -1    0    0  501  502 -0.00000000000E+00 -0.00000000000E+00 -0.49306136360E+02  0.49306136360E+02  0.00000000000E+00 0. -1.
      99926    2    1    2    0    0  0.00000000000E+00  0.35527136788E-14  0.99127905471E+03  0.10898913274E+04  0.45302200973E+03 0.  0.
      99925    2    3    3    0    0  0.19397125595E+02  0.21210773516E+02  0.36641355116E+03  0.45198024348E+03  0.26306102834E+03 0.  0.
         25    1    4    4    0    0  0.51685137557E+01 -0.17984179444E+02  0.22853613049E+03  0.26120186692E+03  0.12509000000E+03 0.  0.
         25    1    4    4    0    0  0.14228611840E+02  0.39194952959E+02  0.13787742066E+03  0.19077837656E+03  0.12509000000E+03 0.  0.
         25    1    3    3    0    0 -0.19397125595E+02 -0.21210773516E+02  0.62486550355E+03  0.63791108395E+03  0.12509000000E+03 0.  0.
<mgrwt>
<rscale>  2 0.45302201E+03</rscale>
<asrwt>0</asrwt>
<pdfrwt beam="1">  1       21 0.15302722E+00 0.45302201E+03</pdfrwt>
<pdfrwt beam="2">  1       21 0.72509031E-02 0.45302201E+03</pdfrwt>
<totfact> 0.36405331E+04</totfact>
</mgrwt>
</event>
<event>
 7    0  0.4685107E-002  0.4581649E+03  0.7546771E-02  0.1025315E+00
         21   -1    0    0  502  501  0.00000000000E+00  0.00000000000E+00  0.39479781851E+03  0.39479781851E+03  0.00000000000E+00 0. -1.
         21   -1    0    0  501  502 -0.00000000000E+00 -0.00000000000E+00 -0.13292570962E+03  0.13292570962E+03  0.00000000000E+00 0. -1.
      99926    2    1    2    0    0  0.00000000000E+00 -0.17763568394E-14  0.26187210888E+03  0.52772352813E+03  0.45816494926E+03 0.  0.
      99925    2    3    3    0    0  0.10501758834E+03 -0.97799674542E+01  0.10850791320E+03  0.30346379871E+03  0.26304366230E+03 0.  0.
         25    1    4    4    0    0  0.75854214295E+02 -0.29524600842E+02  0.83876441947E+02  0.17119675667E+03  0.12509000000E+03 0.  0.
         25    1    3    3    0    0 -0.10501758834E+03  0.97799674542E+01  0.15336419568E+03  0.22425972942E+03  0.12509000000E+03 0.  0.
         25    1    4    4    0    0  0.29163374042E+02  0.19744633388E+02  0.24631471254E+02  0.13226704204E+03  0.12509000000E+03 0.  0.
<mgrwt>
<rscale>  2 0.45816495E+03</rscale>
<asrwt>0</asrwt>
<pdfrwt beam="1">  1       21 0.58058503E-01 0.45816495E+03</pdfrwt>
<pdfrwt beam="2">  1       21 0.19547899E-01 0.45816495E+03</pdfrwt>
<totfact> 0.61795907E+04</totfact>
</mgrwt>
</event>
<event>
 7    0  0.4685107E-002  0.4484530E+03  0.7546771E-02  0.1028184E+00
         21   -1    0    0  502  501  0.00000000000E+00  0.00000000000E+00  0.17685302314E+04  0.17685302314E+04  0.00000000000E+00 0. -1.
         21   -1    0    0  501  502 -0.00000000000E+00 -0.00000000000E+00 -0.28428984826E+02  0.28428984826E+02  0.00000000000E+00 0. -1.
      99926    2    1    2    0    0  0.00000000000E+00  0.00000000000E+00  0.17401012465E+04  0.17969592162E+04  0.44845298131E+03 0.  0.
      99925    2    3    3    0    0 -0.10018958019E+03  0.16269922341E+02  0.12360481286E+04  0.12677903243E+04  0.26301077506E+03 0.  0.
         25    1    4    4    0    0 -0.87018630523E+02 -0.38253764038E+01  0.74967776685E+03  0.76501708333E+03  0.12509000000E+03 0.  0.
         25    1    4    4    0    0 -0.13170949666E+02  0.20095298745E+02  0.48637036174E+03  0.50277324096E+03  0.12509000000E+03 0.  0.
         25    1    3    3    0    0  0.10018958019E+03 -0.16269922341E+02  0.50405311794E+03  0.52916889190E+03  0.12509000000E+03 0.  0.
<mgrwt>
<rscale>  2 0.44845298E+03</rscale>
<asrwt>0</asrwt>
<pdfrwt beam="1">  1       21 0.26007790E+00 0.44845298E+03</pdfrwt>
<pdfrwt beam="2">  1       21 0.41807343E-02 0.44845298E+03</pdfrwt>
<totfact> 0.18226785E+04</totfact>
</mgrwt>
</event>
<event>
 7    0  0.4685107E-002  0.4541546E+03  0.7546771E-02  0.1026490E+00
         21   -1    0    0  502  501  0.00000000000E+00  0.00000000000E+00  0.10482746586E+03  0.10482746586E+03  0.00000000000E+00 0.  1.
         21   -1    0    0  501  502 -0.00000000000E+00 -0.00000000000E+00 -0.49189497836E+03  0.49189497836E+03  0.00000000000E+00 0.  1.
      99926    2    1    2    0    0  0.53290705182E-14  0.35527136788E-14 -0.38706751250E+03  0.59672244421E+03  0.45415461706E+03 0.  0.
      99925    2    3    3    0    0 -0.58086902310E+01  0.31004487542E+02 -0.38542433494E+03  0.46770606052E+03  0.26306277189E+03 0.  0.
         25    1    3    3    0    0  0.58086902310E+01 -0.31004487542E+02 -0.16431775628E+01  0.12901638370E+03  0.12509000000E+03 0.  0.
         25    1    4    4    0    0  0.36770674225E+02  0.21507121696E+02 -0.18091223195E+03  0.22403433338E+03  0.12509000000E+03 0.  0.
         25    1    4    4    0    0 -0.42579364456E+02  0.94973658468E+01 -0.20451210299E+03  0.24367172713E+03  0.12509000000E+03 0.  0.
<mgrwt>
<rscale>  2 0.45415462E+03</rscale>
<asrwt>0</asrwt>
<pdfrwt beam="1">  1       21 0.15415804E-01 0.45415462E+03</pdfrwt>
<pdfrwt beam="2">  1       21 0.72337496E-01 0.45415462E+03</pdfrwt>
<totfact> 0.59275444E+04</totfact>
</mgrwt>
</event>
<event>
 7    0  0.4685107E-002  0.4550131E+03  0.7546771E-02  0.1026238E+00
         21   -1    0    0  502  501  0.00000000000E+00  0.00000000000E+00  0.68085984567E+02  0.68085984567E+02  0.00000000000E+00 0.  1.
         21   -1    0    0  501  502 -0.00000000000E+00 -0.00000000000E+00 -0.76020404629E+03  0.76020404629E+03  0.00000000000E+00 0.  1.
      99926    2    1    2    0    0  0.00000000000E+00  0.00000000000E+00 -0.69211806172E+03  0.82829003086E+03  0.45501314690E+03 0.  0.
      99925    2    3    3    0    0  0.29993766293E+02 -0.88410543282E+02 -0.55205301277E+03  0.61857170496E+03  0.26296839180E+03 0.  0.
         25    1    3    3    0    0 -0.29993766293E+02  0.88410543282E+02 -0.14006504895E+03  0.20971832590E+03  0.12509000000E+03 0.  0.
         25    1    4    4    0    0  0.11127008467E+02 -0.14945841363E+02 -0.32199604738E+03  0.34594241012E+03  0.12509000000E+03 0.  0.
         25    1    4    4    0    0  0.18866757826E+02 -0.73464701920E+02 -0.23005696538E+03  0.27262929483E+03  0.12509000000E+03 0.  0.
<mgrwt>
<rscale>  2 0.45501315E+03</rscale>
<asrwt>0</asrwt>
<pdfrwt beam="1">  1       21 0.10012645E-01 0.45501315E+03</pdfrwt>
<pdfrwt beam="2">  1       21 0.11179471E+00 0.45501315E+03</pdfrwt>
<totfact> 0.46421915E+04</totfact>
</mgrwt>
</event>
<event>
 7    0  0.4685107E-002  0.4533963E+03  0.7546771E-02  0.1026714E+00
         21   -1    0    0  502  501  0.00000000000E+00  0.00000000000E+00  0.15116427525E+03  0.15116427525E+03  0.00000000000E+00 0. -1.
         21   -1    0    0  501  502 -0.00000000000E+00 -0.00000000000E+00 -0.33997478019E+03  0.33997478019E+03  0.00000000000E+00 0. -1.
      99926    2    1    2    0    0  0.00000000000E+00  0.00000000000E+00 -0.18881050494E+03  0.49113905543E+03  0.45339625604E+03 0.  0.
      99925    2    3    3    0    0  0.10247759919E+03  0.46696020543E+02 -0.11403658227E+03  0.30696298673E+03  0.26180098635E+03 0.  0.
         25    1    4    4    0    0  0.92572855321E+02  0.24725865316E+02 -0.65388999262E+02  0.17059991583E+03  0.12509000000E+03 0.  0.
         25    1    3    3    0    0 -0.10247759919E+03 -0.46696020543E+02 -0.74773922671E+02  0.18417606870E+03  0.12509000000E+03 0.  0.
         25    1    4    4    0    0  0.99047438699E+01  0.21970155226E+02 -0.48647583007E+02  0.13636307090E+03  0.12509000000E+03 0.  0.
<mgrwt>
<rscale>  2 0.45339626E+03</rscale>
<asrwt>0</asrwt>
<pdfrwt beam="1">  1       21 0.22230041E-01 0.45339626E+03</pdfrwt>
<pdfrwt beam="2">  1       21 0.49996290E-01 0.45339626E+03</pdfrwt>
<totfact> 0.66743471E+04</totfact>
</mgrwt>
</event>
<event>
 7    0  0.4685107E-002  0.4560563E+03  0.7546771E-02  0.1025931E+00
         21   -1    0    0  502  501  0.00000000000E+00  0.00000000000E+00  0.45255033894E+03  0.45255033894E+03  0.00000000000E+00 0.  1.
         21   -1    0    0  501  502 -0.00000000000E+00 -0.00000000000E+00 -0.11489735929E+03  0.11489735929E+03  0.00000000000E+00 0.  1.
      99926    2    1    2    0    0  0.00000000000E+00 -0.14210854715E-13  0.33765297965E+03  0.56744769823E+03  0.45605630744E+03 0.  0.
      99925    2    3    3    0    0  0.77134332610E+02 -0.82315588859E+02  0.19336725509E+03  0.34565626501E+03  0.26336627871E+03 0.  0.
         25    1    3    3    0    0 -0.77134332610E+02  0.82315588859E+02  0.14428572457E+03  0.22179143322E+03  0.12509000000E+03 0.  0.
         25    1    4    4    0    0  0.13777968141E+02 -0.36701882623E+02  0.50906867402E+02  0.14062673232E+03  0.12509000000E+03 0.  0.
         25    1    4    4    0    0  0.63356364469E+02 -0.45613706235E+02  0.14246038769E+03  0.20502953269E+03  0.12509000000E+03 0.  0.
<mgrwt>
<rscale>  2 0.45605631E+03</rscale>
<asrwt>0</asrwt>
<pdfrwt beam="1">  1       21 0.66551520E-01 0.45605631E+03</pdfrwt>
<pdfrwt beam="2">  1       21 0.16896671E-01 0.45605631E+03</pdfrwt>
<totfact> 0.60223400E+04</totfact>
</mgrwt>
</event>
<event>
 7    0  0.4685107E-002  0.4578800E+03  0.7546771E-02  0.1025398E+00
         21   -1    0    0  502  501  0.00000000000E+00  0.00000000000E+00  0.71216106038E+03  0.71216106038E+03  0.00000000000E+00 0. -1.
         21   -1    0    0  501  502 -0.00000000000E+00 -0.00000000000E+00 -0.73597841610E+02  0.73597841610E+02  0.00000000000E+00 0. -1.
      99926    2    1    2    0    0  0.00000000000E+00  0.00000000000E+00  0.63856321877E+03  0.78575890199E+03  0.45787997083E+03 0.  0.
      99925    2    3    3    0    0 -0.85451546929E+02 -0.38086384170E+02  0.28350032954E+03  0.39785465744E+03  0.26298926226E+03 0.  0.
         25    1    4    4    0    0 -0.24619188142E+02 -0.52502285945E+02  0.12075567128E+03  0.18328129938E+03  0.12509000000E+03 0.  0.
         25    1    3    3    0    0  0.85451546929E+02  0.38086384170E+02  0.35506288922E+03  0.38790424454E+03  0.12509000000E+03 0.  0.
         25    1    4    4    0    0 -0.60832358787E+02  0.14415901775E+02  0.16274465826E+03  0.21457335807E+03  0.12509000000E+03 0.  0.
<mgrwt>
<rscale>  2 0.45787997E+03</rscale>
<asrwt>0</asrwt>
<pdfrwt beam="1">  1       21 0.10472956E+00 0.45787997E+03</pdfrwt>
<pdfrwt beam="2">  1       21 0.10823212E-01 0.45787997E+03</pdfrwt>
<totfact> 0.47381260E+04</totfact>
</mgrwt>
</event>
<event>
 7    0  0.4685107E-002  0.4447280E+03  0.7546771E-02  0.1029306E+00
         21   -1    0    0  502  501  0.00000000000E+00  0.00000000000E+00  0.38549986856E+03  0.38549986856E+03  0.00000000000E+00 0. -1.
         21   -1    0    0  501  502 -0.00000000000E+00 -0.00000000000E+00 -0.12826399695E+03  0.12826399695E+03  0.00000000000E+00 0. -1.
      99926    2    1    2    0    0  0.71054273576E-14  0.17763568394E-14  0.25723587161E+03  0.51376386552E+03  0.44472802460E+03 0.  0.
      99925    2    3    3    0    0  0.34120258469E+02  0.87106391973E+01  0.51455247633E+02  0.27038506492E+03  0.26309765022E+03 0.  0.
         25    1    3    3    0    0 -0.34120258469E+02 -0.87106391973E+01  0.20578062398E+03  0.24337880059E+03  0.12509000000E+03 0.  0.
         25    1    4    4    0    0  0.49887083019E+02  0.28954878863E+02  0.26368654684E+02  0.14024949238E+03  0.12509000000E+03 0.  0.
         25    1    4    4    0    0 -0.15766824550E+02 -0.20244239666E+02  0.25086592949E+02  0.13013557255E+03  0.12509000000E+03 0.  0.
<mgrwt>
<rscale>  2 0.44472802E+03</rscale>
<asrwt>0</asrwt>
<pdfrwt beam="1">  1       21 0.56691157E-01 0.44472802E+03</pdfrwt>
<pdfrwt beam="2">  1       21 0.18862353E-01 0.44472802E+03</pdfrwt>
<totfact> 0.69834096E+04</totfact>
</mgrwt>
</event>
<event>
 7    0  0.4685107E-002  0.4519789E+03  0.7546771E-02  0.1027134E+00
         21   -1    0    0  502  501  0.00000000000E+00  0.00000000000E+00  0.14269646108E+03  0.14269646108E+03  0.00000000000E+00 0.  1.
         21   -1    0    0  501  502 -0.00000000000E+00 -0.00000000000E+00 -0.35790115005E+03  0.35790115005E+03  0.00000000000E+00 0.  1.
      99926    2    1    2    0    0  0.00000000000E+00 -0.14210854715E-13 -0.21520468897E+03  0.50059761114E+03  0.45197888238E+03 0.  0.
      99925    2    3    3    0    0 -0.72850335051E+02 -0.74570843370E+02 -0.17515576150E+03  0.33290918968E+03  0.26321285263E+03 0.  0.
         25    1    3    3    0    0  0.72850335051E+02  0.74570843370E+02 -0.40048927477E+02  0.16768842145E+03  0.12509000000E+03 0.  0.
         25    1    4    4    0    0 -0.18004575087E+02 -0.73197176382E+02 -0.10005379627E+03  0.17703180958E+03  0.12509000000E+03 0.  0.
         25    1    4    4    0    0 -0.54845759963E+02 -0.13736669884E+01 -0.75101965223E+02  0.15587738010E+03  0.12509000000E+03 0.  0.
<mgrwt>
<rscale>  2 0.45197888E+03</rscale>
<asrwt>0</asrwt>
<pdfrwt beam="1">  1       21 0.20984774E-01 0.45197888E+03</pdfrwt>
<pdfrwt beam="2">  1       21 0.52632522E-01 0.45197888E+03</pdfrwt>
<totfact> 0.66816697E+04</totfact>
</mgrwt>
</event>
<event>
 7    0  0.4685107E-002  0.4571102E+03  0.7546771E-02  0.1025623E+00
         21   -1    0    0  502  501  0.00000000000E+00  0.00000000000E+00  0.42886247591E+02  0.42886247591E+02  0.00000000000E+00 0. -1.
         21   -1    0    0  501  502 -0.00000000000E+00 -0.00000000000E+00 -0.12180462058E+04  0.12180462058E+04  0.00000000000E+00 0. -1.
      99926    2    1    2    0    0  0.00000000000E+00  0.00000000000E+00 -0.11751599582E+04  0.12609324534E+04  0.45711018873E+03 0.  0.
      99925    2    3    3    0    0  0.48704747662E+02 -0.91076147214E+02 -0.59745499362E+03  0.66088449594E+03  0.26296165221E+03 0.  0.
         25    1    4    4    0    0  0.18451561300E+02 -0.50293828926E+02 -0.20675974426E+03  0.24752177538E+03  0.12509000000E+03 0.  0.
         25    1    4    4    0    0  0.30253186361E+02 -0.40782318288E+02 -0.39069524937E+03  0.41336272056E+03  0.12509000000E+03 0.  0.
         25    1    3    3    0    0 -0.48704747662E+02  0.91076147214E+02 -0.57770496462E+03  0.60004795748E+03  0.12509000000E+03 0.  0.
<mgrwt>
<rscale>  2 0.45711019E+03</rscale>
<asrwt>0</asrwt>
<pdfrwt beam="1">  1       21 0.63068011E-02 0.45711019E+03</pdfrwt>
<pdfrwt beam="2">  1       21 0.17912444E+00 0.45711019E+03</pdfrwt>
<totfact> 0.29778602E+04</totfact>
</mgrwt>
</event>
<event>
 7    0  0.4685107E-002  0.4418700E+03  0.7546771E-02  0.1030175E+00
         21   -1    0    0  502  501  0.00000000000E+00  0.00000000000E+00  0.21560493106E+03  0.21560493106E+03  0.00000000000E+00 0.  1.
         21   -1    0    0  501  502 -0.00000000000E+00 -0.00000000000E+00 -0.22639688688E+03  0.22639688688E+03  0.00000000000E+00 0.  1.
      99926    2    1    2    0    0 -0.35527136788E-14  0.00000000000E+00 -0.10791955819E+02  0.44200181794E+03  0.44187004962E+03 0.  0.
      99925    2    3    3    0    0  0.29953763056E+02  0.48269656417E+02  0.76036347803E+02  0.27947843482E+03  0.26286780269E+03 0.  0.
         25    1    4    4    0    0  0.54537861849E+02  0.16481732534E+02  0.42610678156E+02  0.14390692782E+03  0.12509000000E+03 0.  0.
         25    1    3    3    0    0 -0.29953763056E+02 -0.48269656417E+02 -0.86828303622E+02  0.16252338312E+03  0.12509000000E+03 0.  0.
         25    1    4    4    0    0 -0.24584098794E+02  0.31787923883E+02  0.33425669647E+02  0.13557150700E+03  0.12509000000E+03 0.  0.
<mgrwt>
<rscale>  2 0.44187005E+03</rscale>
<asrwt>0</asrwt>
<pdfrwt beam="1">  1       21 0.31706608E-01 0.44187005E+03</pdfrwt>
<pdfrwt beam="2">  1       21 0.33293660E-01 0.44187005E+03</pdfrwt>
<totfact> 0.77294447E+04</totfact>
</mgrwt>
</event>
<event>
 7    0  0.4685107E-002  0.4596480E+03  0.7546771E-02  0.1024883E+00
         21   -1    0    0  502  501  0.00000000000E+00  0.00000000000E+00  0.36763417727E+02  0.36763417727E+02  0.00000000000E+00 0.  1.
         21   -1    0    0  501  502 -0.00000000000E+00 -0.00000000000E+00 -0.14367292217E+04  0.14367292217E+04  0.00000000000E+00 0.  1.
      99926    2    1    2    0    0  0.14210854715E-13  0.00000000000E+00 -0.13999658039E+04  0.14734926394E+04  0.45964802419E+03 0.  0.
      99925    2    3    3    0    0  0.92978209291E+02 -0.40957249711E+01 -0.64434831631E+03  0.70195714567E+03  0.26248306471E+03 0.  0.
         25    1    3    3    0    0 -0.92978209291E+02  0.40957249711E+01 -0.75561748761E+03  0.77153549371E+03  0.12509000000E+03 0.  0.
         25    1    4    4    0    0  0.56783369794E+02  0.38412122794E+01 -0.42581901071E+03  0.44744658226E+03  0.12509000000E+03 0.  0.
         25    1    4    4    0    0  0.36194839497E+02 -0.79369372506E+01 -0.21852930560E+03  0.25451056341E+03  0.12509000000E+03 0.  0.
<mgrwt>
<rscale>  2 0.45964802E+03</rscale>
<asrwt>0</asrwt>
<pdfrwt beam="1">  1       21 0.54063854E-02 0.45964802E+03</pdfrwt>
<pdfrwt beam="2">  1       21 0.21128369E+00 0.45964802E+03</pdfrwt>
<totfact> 0.23573614E+04</totfact>
</mgrwt>
</event>
<event>
 7    0  0.4685107E-002  0.4477934E+03  0.7546771E-02  0.1028382E+00
         21   -1    0    0  502  501  0.00000000000E+00  0.00000000000E+00  0.37355688851E+03  0.37355688851E+03  0.00000000000E+00 0. -1.
         21   -1    0    0  501  502 -0.00000000000E+00 -0.00000000000E+00 -0.13419570178E+03  0.13419570178E+03  0.00000000000E+00 0. -1.
      99926    2    1    2    0    0  0.71054273576E-14 -0.71054273576E-14  0.23936118673E+03  0.50775259029E+03  0.44779338454E+03 0.  0.
      99925    2    3    3    0    0  0.45234317317E+02 -0.51026811903E+02  0.59315026579E+02  0.27815727919E+03  0.26306524018E+03 0.  0.
         25    1    3    3    0    0 -0.45234317317E+02  0.51026811903E+02  0.18004616015E+03  0.22959531110E+03  0.12509000000E+03 0.  0.
         25    1    4    4    0    0 -0.84259489800E+01 -0.48197177919E+02  0.15883679532E+02  0.13525444152E+03  0.12509000000E+03 0.  0.
         25    1    4    4    0    0  0.53660266297E+02 -0.28296339835E+01  0.43431347047E+02  0.14290283767E+03  0.12509000000E+03 0.  0.
<mgrwt>
<rscale>  2 0.44779338E+03</rscale>
<asrwt>0</asrwt>
<pdfrwt beam="1">  1       21 0.54934836E-01 0.44779338E+03</pdfrwt>
<pdfrwt beam="2">  1       21 0.19734662E-01 0.44779338E+03</pdfrwt>
<totfact> 0.68567683E+04</totfact>
</mgrwt>
</event>
<event>
 7    0  0.4685107E-002  0.4432792E+03  0.7546771E-02  0.1029745E+00
         21   -1    0    0  502  501  0.00000000000E+00  0.00000000000E+00  0.13282296363E+04  0.13282296363E+04  0.00000000000E+00 0.  1.
         21   -1    0    0  501  502 -0.00000000000E+00 -0.00000000000E+00 -0.36984644769E+02  0.36984644769E+02  0.00000000000E+00 0.  1.
      99926    2    1    2    0    0  0.00000000000E+00  0.71054273576E-14  0.12912449915E+04  0.13652142810E+04  0.44327915028E+03 0.  0.
      99925    2    3    3    0    0 -0.25525861940E+02  0.57982372443E+02  0.10668887076E+04  0.11006452440E+04  0.26297321832E+03 0.  0.
         25    1    4    4    0    0  0.21291394628E+02  0.10629278699E+02  0.56213521962E+03  0.57637645536E+03  0.12509000000E+03 0.  0.
         25    1    3    3    0    0  0.25525861940E+02 -0.57982372443E+02  0.22435628388E+03  0.26456903703E+03  0.12509000000E+03 0.  0.
         25    1    4    4    0    0 -0.46817256568E+02  0.47353093744E+02  0.50475348799E+03  0.52426878863E+03  0.12509000000E+03 0.  0.
<mgrwt>
<rscale>  2 0.44327915E+03</rscale>
<asrwt>0</asrwt>
<pdfrwt beam="1">  1       21 0.19532786E+00 0.44327915E+03</pdfrwt>
<pdfrwt beam="2">  1       21 0.54389192E-02 0.44327915E+03</pdfrwt>
<totfact> 0.29907158E+04</totfact>
</mgrwt>
</event>
<event>
 7    0  0.4685107E-002  0.4547702E+03  0.7546771E-02  0.1026309E+00
         21   -1    0    0  502  501  0.00000000000E+00  0.00000000000E+00  0.19683514104E+03  0.19683514104E+03  0.00000000000E+00 0. -1.
         21   -1    0    0  501  502 -0.00000000000E+00 -0.00000000000E+00 -0.26267664096E+03  0.26267664096E+03  0.00000000000E+00 0. -1.
      99926    2    1    2    0    0  0.71054273576E-14  0.00000000000E+00 -0.65841499922E+02  0.45951178200E+03  0.45477024384E+03 0.  0.
      99925    2    3    3    0    0  0.61696833946E+02 -0.88562904384E+02 -0.30315181184E+01  0.28275633154E+03  0.26132750635E+03 0.  0.
         25    1    4    4    0    0  0.59102511708E+02 -0.44536596707E+02 -0.27394135240E+02  0.14790051414E+03  0.12509000000E+03 0.  0.
         25    1    4    4    0    0  0.25943222378E+01 -0.44026307677E+02  0.24362617121E+02  0.13485581741E+03  0.12509000000E+03 0.  0.
         25    1    3    3    0    0 -0.61696833946E+02  0.88562904384E+02 -0.62809981804E+02  0.17675545046E+03  0.12509000000E+03 0.  0.
<mgrwt>
<rscale>  2 0.45477024E+03</rscale>
<asrwt>0</asrwt>
<pdfrwt beam="1">  1       21 0.28946345E-01 0.45477024E+03</pdfrwt>
<pdfrwt beam="2">  1       21 0.38628917E-01 0.45477024E+03</pdfrwt>
<totfact> 0.68341302E+04</totfact>
</mgrwt>
</event>
<event>
 7    0  0.4685107E-002  0.4463021E+03  0.7546771E-02  0.1028831E+00
         21   -1    0    0  502  501  0.00000000000E+00  0.00000000000E+00  0.25370047799E+03  0.25370047799E+03  0.00000000000E+00 0. -1.
         21   -1    0    0  501  502 -0.00000000000E+00 -0.00000000000E+00 -0.19628028251E+03  0.19628028251E+03  0.00000000000E+00 0. -1.
      99926    2    1    2    0    0  0.00000000000E+00  0.17763568394E-14  0.57420195488E+02  0.44998076050E+03  0.44630214650E+03 0.  0.
      99925    2    3    3    0    0 -0.10387013701E+03 -0.10546687053E+02  0.29919411074E+02  0.28474142132E+03  0.26321525010E+03 0.  0.
         25    1    4    4    0    0 -0.53186879335E+02 -0.31365551312E+02 -0.16572202131E+02  0.14048056067E+03  0.12509000000E+03 0.  0.
         25    1    3    3    0    0  0.10387013701E+03  0.10546687053E+02  0.27500784414E+02  0.16523933918E+03  0.12509000000E+03 0.  0.
         25    1    4    4    0    0 -0.50683257672E+02  0.20818864260E+02  0.46491613204E+02  0.14426086065E+03  0.12509000000E+03 0.  0.
<mgrwt>
<rscale>  2 0.44630215E+03</rscale>
<asrwt>0</asrwt>
<pdfrwt beam="1">  1       21 0.37308894E-01 0.44630215E+03</pdfrwt>
<pdfrwt beam="2">  1       21 0.28864747E-01 0.44630215E+03</pdfrwt>
<totfact> 0.73912315E+04</totfact>
</mgrwt>
</event>
<event>
 7    0  0.4685107E-002  0.4532377E+03  0.7546771E-02  0.1026761E+00
         21   -1    0    0  502  501  0.00000000000E+00  0.00000000000E+00  0.32544687054E+03  0.32544687054E+03  0.00000000000E+00 0.  1.
         21   -1    0    0  501  502 -0.00000000000E+00 -0.00000000000E+00 -0.15780178593E+03  0.15780178593E+03  0.00000000000E+00 0.  1.
      99926    2    1    2    0    0  0.00000000000E+00  0.35527136788E-14  0.16764508461E+03  0.48324865647E+03  0.45323767450E+03 0.  0.
      99925    2    3    3    0    0 -0.82878549428E+02 -0.17916072026E+02  0.28489918343E+02  0.27781860027E+03  0.26302406661E+03 0.  0.
         25    1    3    3    0    0  0.82878549428E+02  0.17916072026E+02  0.13915516627E+03  0.20543005620E+03  0.12509000000E+03 0.  0.
         25    1    4    4    0    0 -0.29157096305E+02 -0.46012005473E+02  0.28418658334E+01  0.13646547261E+03  0.12509000000E+03 0.  0.
         25    1    4    4    0    0 -0.53721453123E+02  0.28095933447E+02  0.25648052510E+02  0.14135312766E+03  0.12509000000E+03 0.  0.
<mgrwt>
<rscale>  2 0.45323767E+03</rscale>
<asrwt>0</asrwt>
<pdfrwt beam="1">  1       21 0.47859834E-01 0.45323767E+03</pdfrwt>
<pdfrwt beam="2">  1       21 0.23206145E-01 0.45323767E+03</pdfrwt>
<totfact> 0.67402398E+04</totfact>
</mgrwt>
</event>
<event>
 7    0  0.4685107E-002  0.4939198E+03  0.7546771E-02  0.1015378E+00
         21   -1    0    0  502  501  0.00000000000E+00  0.00000000000E+00  0.19967524062E+03  0.19967524062E+03  0.00000000000E+00 0. -1.
         21   -1    0    0  501  502 -0.00000000000E+00 -0.00000000000E+00 -0.30544192083E+03  0.30544192083E+03  0.00000000000E+00 0. -1.
      99926    2    1    2    0    0  0.00000000000E+00  0.00000000000E+00 -0.10576668021E+03  0.50511716144E+03  0.49391978715E+03 0.  0.
      99925    2    3    3    0    0 -0.49442350827E+02 -0.11958991807E+03  0.63445670786E+01  0.29307298108E+03  0.26287872517E+03 0.  0.
         25    1    4    4    0    0 -0.17998261763E+02 -0.21745984905E+02 -0.17529744965E+02  0.12942807016E+03  0.12509000000E+03 0.  0.
         25    1    4    4    0    0 -0.31444089064E+02 -0.97843933164E+02  0.23874312043E+02  0.16364491092E+03  0.12509000000E+03 0.  0.
         25    1    3    3    0    0  0.49442350827E+02  0.11958991807E+03 -0.11211124729E+03  0.21204418037E+03  0.12509000000E+03 0.  0.
<mgrwt>
<rscale>  2 0.49391979E+03</rscale>
<asrwt>0</asrwt>
<pdfrwt beam="1">  1       21 0.29364006E-01 0.49391979E+03</pdfrwt>
<pdfrwt beam="2">  1       21 0.44917929E-01 0.49391979E+03</pdfrwt>
<totfact> 0.48202130E+04</totfact>
</mgrwt>
</event>
<event>
 7    0  0.4685107E-002  0.4543194E+03  0.7546771E-02  0.1026442E+00
         21   -1    0    0  502  501  0.00000000000E+00  0.00000000000E+00  0.37983280293E+02  0.37983280293E+02  0.00000000000E+00 0.  1.
         21   -1    0    0  501  502 -0.00000000000E+00 -0.00000000000E+00 -0.13585328896E+04  0.13585328896E+04  0.00000000000E+00 0.  1.
      99926    2    1    2    0    0  0.00000000000E+00  0.14210854715E-13 -0.13205496093E+04  0.13965161699E+04  0.45431942742E+03 0.  0.
      99925    2    3    3    0    0 -0.60175243406E+02  0.84289315379E+02 -0.69672403008E+03  0.75189875623E+03  0.26306200204E+03 0.  0.
         25    1    4    4    0    0  0.88299810897E+01  0.27043863937E+02 -0.33969368475E+03  0.36310968963E+03  0.12509000000E+03 0.  0.
         25    1    4    4    0    0 -0.69005224496E+02  0.57245451442E+02 -0.35703034533E+03  0.38878906660E+03  0.12509000000E+03 0.  0.
         25    1    3    3    0    0  0.60175243406E+02 -0.84289315379E+02 -0.62382557922E+03  0.64461741366E+03  0.12509000000E+03 0.  0.
<mgrwt>
<rscale>  2 0.45431943E+03</rscale>
<asrwt>0</asrwt>
<pdfrwt beam="1">  1       21 0.55857772E-02 0.45431943E+03</pdfrwt>
<pdfrwt beam="2">  1       21 0.19978422E+00 0.45431943E+03</pdfrwt>
<totfact> 0.26565212E+04</totfact>
</mgrwt>
</event>
<event>
 7    0  0.4685107E-002  0.4536943E+03  0.7546771E-02  0.1026626E+00
         21   -1    0    0  502  501  0.00000000000E+00  0.00000000000E+00  0.52754554427E+02  0.52754554427E+02  0.00000000000E+00 0. -1.
         21   -1    0    0  501  502 -0.00000000000E+00 -0.00000000000E+00 -0.97545382219E+03  0.97545382219E+03  0.00000000000E+00 0. -1.
      99926    2    1    2    0    0  0.00000000000E+00  0.71054273576E-14 -0.92269926777E+03  0.10282083766E+04  0.45369431010E+03 0.  0.
      99925    2    3    3    0    0 -0.22870584210E+02 -0.54943495531E+02 -0.79614645681E+03  0.84057849258E+03  0.26302313620E+03 0.  0.
         25    1    4    4    0    0  0.76358633555E+00 -0.53996937387E+02 -0.49993136955E+03  0.51816516158E+03  0.12509000000E+03 0.  0.
         25    1    3    3    0    0  0.22870584210E+02  0.54943495531E+02 -0.12655281096E+03  0.18762988404E+03  0.12509000000E+03 0.  0.
         25    1    4    4    0    0 -0.23634170546E+02 -0.94655814434E+00 -0.29621508726E+03  0.32241333100E+03  0.12509000000E+03 0.  0.
<mgrwt>
<rscale>  2 0.45369431E+03</rscale>
<asrwt>0</asrwt>
<pdfrwt beam="1">  1       21 0.77580233E-02 0.45369431E+03</pdfrwt>
<pdfrwt beam="2">  1       21 0.14344908E+00 0.45369431E+03</pdfrwt>
<totfact> 0.38478034E+04</totfact>
</mgrwt>
</event>
<event>
 7    0  0.4685107E-002  0.4524165E+03  0.7546771E-02  0.1027004E+00
         21   -1    0    0  502  501  0.00000000000E+00  0.00000000000E+00  0.15543660356E+03  0.15543660356E+03  0.00000000000E+00 0. -1.
         21   -1    0    0  501  502 -0.00000000000E+00 -0.00000000000E+00 -0.32920288100E+03  0.32920288100E+03  0.00000000000E+00 0. -1.
      99926    2    1    2    0    0  0.00000000000E+00 -0.88817841970E-15 -0.17376627743E+03  0.48463948456E+03  0.45241652359E+03 0.  0.
      99925    2    3    3    0    0  0.18836350140E+02  0.72006014364E+01 -0.22633302315E+03  0.34746285534E+03  0.26286335182E+03 0.  0.
         25    1    4    4    0    0 -0.26865951226E+02  0.17296536289E+02 -0.12614826636E+03  0.18050441188E+03  0.12509000000E+03 0.  0.
         25    1    3    3    0    0 -0.18836350140E+02 -0.72006014364E+01  0.52566745713E+02  0.13717662921E+03  0.12509000000E+03 0.  0.
         25    1    4    4    0    0  0.45702301366E+02 -0.10095934853E+02 -0.10018475679E+03  0.16695844346E+03  0.12509000000E+03 0.  0.
<mgrwt>
<rscale>  2 0.45241652E+03</rscale>
<asrwt>0</asrwt>
<pdfrwt beam="1">  1       21 0.22858325E-01 0.45241652E+03</pdfrwt>
<pdfrwt beam="2">  1       21 0.48412187E-01 0.45241652E+03</pdfrwt>
<totfact> 0.67742603E+04</totfact>
</mgrwt>
</event>
<event>
 7    0  0.4685107E-002  0.4680090E+03  0.7546771E-02  0.1022484E+00
         21   -1    0    0  502  501  0.00000000000E+00  0.00000000000E+00  0.22553068884E+03  0.22553068884E+03  0.00000000000E+00 0. -1.
         21   -1    0    0  501  502 -0.00000000000E+00 -0.00000000000E+00 -0.24279667525E+03  0.24279667525E+03  0.00000000000E+00 0. -1.
      99926    2    1    2    0    0  0.00000000000E+00  0.00000000000E+00 -0.17265986402E+02  0.46832736409E+03  0.46800898033E+03 0.  0.
      99925    2    3    3    0    0  0.75249524463E+02  0.74472024343E+02  0.55666091475E+02  0.28895298068E+03  0.26303334001E+03 0.  0.
         25    1    4    4    0    0  0.74353677563E+02  0.44132385630E+02  0.10076221581E+02  0.15239808125E+03  0.12509000000E+03 0.  0.
         25    1    3    3    0    0 -0.75249524463E+02 -0.74472024343E+02 -0.72932077877E+02  0.17937438341E+03  0.12509000000E+03 0.  0.
         25    1    4    4    0    0  0.89584689930E+00  0.30339638712E+02  0.45589869895E+02  0.13655489942E+03  0.12509000000E+03 0.  0.
<mgrwt>
<rscale>  2 0.46800898E+03</rscale>
<asrwt>0</asrwt>
<pdfrwt beam="1">  1       21 0.33166278E-01 0.46800898E+03</pdfrwt>
<pdfrwt beam="2">  1       21 0.35705394E-01 0.46800898E+03</pdfrwt>
<totfact> 0.60998620E+04</totfact>
</mgrwt>
</event>
<event>
 7    0  0.4685107E-002  0.4588111E+03  0.7546771E-02  0.1025127E+00
         21   -1    0    0  502  501  0.00000000000E+00  0.00000000000E+00  0.29091120773E+03  0.29091120773E+03  0.00000000000E+00 0. -1.
         21   -1    0    0  501  502 -0.00000000000E+00 -0.00000000000E+00 -0.18090369680E+03  0.18090369680E+03  0.00000000000E+00 0. -1.
      99926    2    1    2    0    0  0.00000000000E+00  0.00000000000E+00  0.11000751093E+03  0.47181490452E+03  0.45881112854E+03 0.  0.
      99925    2    3    3    0    0 -0.92587205378E+02  0.45437822165E+02  0.12592671482E+02  0.28267436067E+03  0.26288634906E+03 0.  0.
         25    1    3    3    0    0  0.92587205378E+02 -0.45437822165E+02  0.97414839450E+02  0.18914054385E+03  0.12509000000E+03 0.  0.
         25    1    4    4    0    0 -0.33140345617E+02  0.53446820559E+01  0.40733498673E+02  0.13577029921E+03  0.12509000000E+03 0.  0.
         25    1    4    4    0    0 -0.59446859760E+02  0.40093140109E+02 -0.28140827191E+02  0.14690406146E+03  0.12509000000E+03 0.  0.
<mgrwt>
<rscale>  2 0.45881113E+03</rscale>
<asrwt>0</asrwt>
<pdfrwt beam="1">  1       21 0.42781060E-01 0.45881113E+03</pdfrwt>
<pdfrwt beam="2">  1       21 0.26603485E-01 0.45881113E+03</pdfrwt>
<totfact> 0.65304277E+04</totfact>
</mgrwt>
</event>
<event>
 7    0  0.4685107E-002  0.4666606E+03  0.7546771E-02  0.1022867E+00
         21   -1    0    0  502  501  0.00000000000E+00  0.00000000000E+00  0.20359236721E+03  0.20359236721E+03  0.00000000000E+00 0.  1.
         21   -1    0    0  501  502 -0.00000000000E+00 -0.00000000000E+00 -0.26741191121E+03  0.26741191121E+03  0.00000000000E+00 0.  1.
      99926    2    1    2    0    0  0.14210854715E-13  0.35527136788E-14 -0.63819543997E+02  0.47100427842E+03  0.46666057911E+03 0.  0.
      99925    2    3    3    0    0 -0.10678149966E+03  0.29191567632E+02  0.16213750989E+02  0.28578205325E+03  0.26297159532E+03 0.  0.
         25    1    4    4    0    0 -0.41217056800E+02  0.43500499752E+02 -0.17713573823E+02  0.13982996119E+03  0.12509000000E+03 0.  0.
         25    1    3    3    0    0  0.10678149966E+03 -0.29191567632E+02 -0.80033294986E+02  0.18522222517E+03  0.12509000000E+03 0.  0.
         25    1    4    4    0    0 -0.65564442864E+02 -0.14308932120E+02  0.33927324813E+02  0.14595209206E+03  0.12509000000E+03 0.  0.
<mgrwt>
<rscale>  2 0.46666058E+03</rscale>
<asrwt>0</asrwt>
<pdfrwt beam="1">  1       21 0.29940054E-01 0.46666058E+03</pdfrwt>
<pdfrwt beam="2">  1       21 0.39325281E-01 0.46666058E+03</pdfrwt>
<totfact> 0.61467995E+04</totfact>
</mgrwt>
</event>
<event>
 7    0  0.4685107E-002  0.4624464E+03  0.7546771E-02  0.1024074E+00
         21   -1    0    0  502  501  0.00000000000E+00  0.00000000000E+00  0.36098713390E+03  0.36098713390E+03  0.00000000000E+00 0.  1.
         21   -1    0    0  501  502 -0.00000000000E+00 -0.00000000000E+00 -0.14810547668E+03  0.14810547668E+03  0.00000000000E+00 0.  1.
      99926    2    1    2    0    0  0.00000000000E+00  0.71054273576E-14  0.21288165722E+03  0.50909261058E+03  0.46244641437E+03 0.  0.
      99925    2    3    3    0    0 -0.43109719305E+01  0.47568240626E+02  0.11893548836E+02  0.26758681395E+03  0.26302076819E+03 0.  0.
         25    1    4    4    0    0  0.77212445129E+01  0.13907632065E+01 -0.26913938266E+02  0.12819290157E+03  0.12509000000E+03 0.  0.
         25    1    4    4    0    0 -0.12032216443E+02  0.46177477420E+02  0.38807487101E+02  0.13939391238E+03  0.12509000000E+03 0.  0.
         25    1    3    3    0    0  0.43109719305E+01 -0.47568240626E+02  0.20098810839E+03  0.24150579663E+03  0.12509000000E+03 0.  0.
<mgrwt>
<rscale>  2 0.46244641E+03</rscale>
<asrwt>0</asrwt>
<pdfrwt beam="1">  1       21 0.53086343E-01 0.46244641E+03</pdfrwt>
<pdfrwt beam="2">  1       21 0.21780217E-01 0.46244641E+03</pdfrwt>
<totfact> 0.60953412E+04</totfact>
</mgrwt>
</event>
<event>
 7    0  0.4685107E-002  0.4547535E+03  0.7546771E-02  0.1026314E+00
         21   -1    0    0  502  501  0.00000000000E+00  0.00000000000E+00  0.26523746586E+03  0.26523746586E+03  0.00000000000E+00 0.  1.
         21   -1    0    0  501  502 -0.00000000000E+00 -0.00000000000E+00 -0.19492040611E+03  0.19492040611E+03  0.00000000000E+00 0.  1.
      99926    2    1    2    0    0 -0.71054273576E-14  0.00000000000E+00  0.70317059750E+02  0.46015787196E+03  0.45475353570E+03 0.  0.
      99925    2    3    3    0    0  0.50711213190E+02  0.97657173519E+02  0.70010912923E+02  0.29355609373E+03  0.26299258840E+03 0.  0.
         25    1    4    4    0    0  0.47450482618E+02  0.17145631035E+02  0.18753920906E+02  0.13617906819E+03  0.12509000000E+03 0.  0.
         25    1    4    4    0    0  0.32607305721E+01  0.80511542484E+02  0.51256992017E+02  0.15737702554E+03  0.12509000000E+03 0.  0.
         25    1    3    3    0    0 -0.50711213190E+02 -0.97657173519E+02  0.30614682720E+00  0.16660177823E+03  0.12509000000E+03 0.  0.
<mgrwt>
<rscale>  2 0.45475354E+03</rscale>
<asrwt>0</asrwt>
<pdfrwt beam="1">  1       21 0.39005510E-01 0.45475354E+03</pdfrwt>
<pdfrwt beam="2">  1       21 0.28664765E-01 0.45475354E+03</pdfrwt>
<totfact> 0.68303200E+04</totfact>
</mgrwt>
</event>
<event>
 7    0  0.4685107E-002  0.4559731E+03  0.7546771E-02  0.1025956E+00
         21   -1    0    0  502  501  0.00000000000E+00  0.00000000000E+00  0.75820678245E+03  0.75820678245E+03  0.00000000000E+00 0.  1.
         21   -1    0    0  501  502 -0.00000000000E+00 -0.00000000000E+00 -0.68553677059E+02  0.68553677059E+02  0.00000000000E+00 0.  1.
      99926    2    1    2    0    0  0.00000000000E+00  0.00000000000E+00  0.68965310539E+03  0.82676045951E+03  0.45597308213E+03 0.  0.
      99925    2    3    3    0    0  0.60949281719E+02  0.82475190152E+02  0.52432319389E+03  0.59546311912E+03  0.26295349903E+03 0.  0.
         25    1    3    3    0    0 -0.60949281719E+02 -0.82475190152E+02  0.16532991150E+03  0.23129734038E+03  0.12509000000E+03 0.  0.
         25    1    4    4    0    0  0.46104332883E+02  0.34715867766E+02  0.34252224440E+03  0.36918802391E+03  0.12509000000E+03 0.  0.
         25    1    4    4    0    0  0.14844948835E+02  0.47759322386E+02  0.18180094949E+03  0.22627509522E+03  0.12509000000E+03 0.  0.
<mgrwt>
<rscale>  2 0.45597308E+03</rscale>
<asrwt>0</asrwt>
<pdfrwt beam="1">  1       21 0.11150099E+00 0.45597308E+03</pdfrwt>
<pdfrwt beam="2">  1       21 0.10081424E-01 0.45597308E+03</pdfrwt>
<totfact> 0.46144202E+04</totfact>
</mgrwt>
</event>
<event>
 7    0  0.4685107E-002  0.4550511E+03  0.7546771E-02  0.1026226E+00
         21   -1    0    0  502  501  0.00000000000E+00  0.00000000000E+00  0.97109865364E+02  0.97109865364E+02  0.00000000000E+00 0.  1.
         21   -1    0    0  501  502 -0.00000000000E+00 -0.00000000000E+00 -0.53308575449E+03  0.53308575449E+03  0.00000000000E+00 0.  1.
      99926    2    1    2    0    0  0.00000000000E+00  0.00000000000E+00 -0.43597588913E+03  0.63019561985E+03  0.45505114370E+03 0.  0.
      99925    2    3    3    0    0 -0.73469758402E+02  0.28500237647E+02 -0.16271678471E+03  0.31950587881E+03  0.26343345577E+03 0.  0.
         25    1    3    3    0    0  0.73469758402E+02 -0.28500237647E+02 -0.27325910441E+03  0.31068974104E+03  0.12509000000E+03 0.  0.
         25    1    4    4    0    0 -0.43038363737E+02  0.54906772462E+02 -0.77151581870E+02  0.16268659779E+03  0.12509000000E+03 0.  0.
         25    1    4    4    0    0 -0.30431394665E+02 -0.26406534816E+02 -0.85565202843E+02  0.15681928102E+03  0.12509000000E+03 0.  0.
<mgrwt>
<rscale>  2 0.45505114E+03</rscale>
<asrwt>0</asrwt>
<pdfrwt beam="1">  1       21 0.14280863E-01 0.45505114E+03</pdfrwt>
<pdfrwt beam="2">  1       21 0.78394964E-01 0.45505114E+03</pdfrwt>
<totfact> 0.56834149E+04</totfact>
</mgrwt>
</event>
<event>
 7    0  0.4685107E-002  0.4835716E+03  0.7546771E-02  0.1018158E+00
         21   -1    0    0  502  501  0.00000000000E+00  0.00000000000E+00  0.22677667898E+03  0.22677667898E+03  0.00000000000E+00 0.  1.
         21   -1    0    0  501  502 -0.00000000000E+00 -0.00000000000E+00 -0.25778828378E+03  0.25778828378E+03  0.00000000000E+00 0.  1.
      99926    2    1    2    0    0  0.00000000000E+00  0.00000000000E+00 -0.31011604803E+02  0.48456496276E+03  0.48357159088E+03 0.  0.
      99925    2    3    3    0    0 -0.83403680613E+02 -0.37736402752E+02 -0.12287614971E+03  0.30437946739E+03  0.26299829271E+03 0.  0.
         25    1    3    3    0    0  0.83403680613E+02  0.37736402752E+02  0.91864544908E+02  0.18018549538E+03  0.12509000000E+03 0.  0.
         25    1    4    4    0    0 -0.84071656655E+02 -0.21130470481E+02 -0.71129408940E+02  0.16799238421E+03  0.12509000000E+03 0.  0.
         25    1    4    4    0    0  0.66797604189E+00 -0.16605932270E+02 -0.51746740771E+02  0.13638708318E+03  0.12509000000E+03 0.  0.
<mgrwt>
<rscale>  2 0.48357159E+03</rscale>
<asrwt>0</asrwt>
<pdfrwt beam="1">  1       21 0.33349512E-01 0.48357159E+03</pdfrwt>
<pdfrwt beam="2">  1       21 0.37910042E-01 0.48357159E+03</pdfrwt>
<totfact> 0.53223926E+04</totfact>
</mgrwt>
</event>
<event>
 7    0  0.4685107E-002  0.4580084E+03  0.7546771E-02  0.1025360E+00
         21   -1    0    0  502  501  0.00000000000E+00  0.00000000000E+00  0.37812931055E+02  0.37812931055E+02  0.00000000000E+00 0.  1.
         21   -1    0    0  501  502 -0.00000000000E+00 -0.00000000000E+00 -0.13869046516E+04  0.13869046516E+04  0.00000000000E+00 0.  1.
      99926    2    1    2    0    0  0.00000000000E+00  0.00000000000E+00 -0.13490917206E+04  0.14247175827E+04  0.45800842775E+03 0.  0.
      99925    2    3    3    0    0  0.49954146336E+02  0.29418194812E+02 -0.53441843456E+03  0.59846040845E+03  0.26304172743E+03 0.  0.
         25    1    4    4    0    0 -0.12870541298E+02  0.30779229639E+01 -0.22344011247E+03  0.25641395517E+03  0.12509000000E+03 0.  0.
         25    1    4    4    0    0  0.62824687633E+02  0.26340271848E+02 -0.31097832208E+03  0.34204645328E+03  0.12509000000E+03 0.  0.
         25    1    3    3    0    0 -0.49954146336E+02 -0.29418194812E+02 -0.81467328600E+03  0.82625717422E+03  0.12509000000E+03 0.  0.
<mgrwt>
<rscale>  2 0.45800843E+03</rscale>
<asrwt>0</asrwt>
<pdfrwt beam="1">  1       21 0.55607264E-02 0.45800843E+03</pdfrwt>
<pdfrwt beam="2">  1       21 0.20395652E+00 0.45800843E+03</pdfrwt>
<totfact> 0.25089091E+04</totfact>
</mgrwt>
</event>
<event>
 7    0  0.4685107E-002  0.4610200E+03  0.7546771E-02  0.1024486E+00
         21   -1    0    0  502  501  0.00000000000E+00  0.00000000000E+00  0.59116913733E+02  0.59116913733E+02  0.00000000000E+00 0.  1.
         21   -1    0    0  501  502 -0.00000000000E+00 -0.00000000000E+00 -0.89880985318E+03  0.89880985318E+03  0.00000000000E+00 0.  1.
      99926    2    1    2    0    0 -0.14210854715E-13  0.00000000000E+00 -0.83969293944E+03  0.95792676691E+03  0.46102001932E+03 0.  0.
      99925    2    3    3    0    0  0.10972576023E+03  0.45430973084E+02 -0.52590909788E+03  0.59986040001E+03  0.26296084214E+03 0.  0.
         25    1    3    3    0    0 -0.10972576023E+03 -0.45430973084E+02 -0.31378384157E+03  0.35806636690E+03  0.12509000000E+03 0.  0.
         25    1    4    4    0    0  0.67694420164E+02 -0.15706933753E+02 -0.26045349068E+03  0.29717464763E+03  0.12509000000E+03 0.  0.
         25    1    4    4    0    0  0.42031340071E+02  0.61137906837E+02 -0.26545560720E+03  0.30268575238E+03  0.12509000000E+03 0.  0.
<mgrwt>
<rscale>  2 0.46102002E+03</rscale>
<asrwt>0</asrwt>
<pdfrwt beam="1">  1       21 0.86936644E-02 0.46102002E+03</pdfrwt>
<pdfrwt beam="2">  1       21 0.13217791E+00 0.46102002E+03</pdfrwt>
<totfact> 0.38955237E+04</totfact>
</mgrwt>
</event>
<event>
 7    0  0.4685107E-002  0.4530629E+03  0.7546771E-02  0.1026813E+00
         21   -1    0    0  502  501  0.00000000000E+00  0.00000000000E+00  0.16164818583E+04  0.16164818583E+04  0.00000000000E+00 0.  1.
         21   -1    0    0  501  502 -0.00000000000E+00 -0.00000000000E+00 -0.31745797972E+02  0.31745797972E+02  0.00000000000E+00 0.  1.
      99926    2    1    2    0    0  0.00000000000E+00  0.00000000000E+00  0.15847360603E+04  0.16482276562E+04  0.45306293822E+03 0.  0.
      99925    2    3    3    0    0  0.43548850617E+02  0.86502720887E+02  0.80100165306E+03  0.84868631754E+03  0.26322156875E+03 0.  0.
         25    1    4    4    0    0 -0.10729936760E+02  0.35781370048E+02  0.45458393437E+03  0.47295824284E+03  0.12509000000E+03 0.  0.
         25    1    4    4    0    0  0.54278787376E+02  0.50721350839E+02  0.34641771869E+03  0.37572807469E+03  0.12509000000E+03 0.  0.
         25    1    3    3    0    0 -0.43548850617E+02 -0.86502720887E+02  0.78373440722E+03  0.79954133869E+03  0.12509000000E+03 0.  0.
<mgrwt>
<rscale>  2 0.45306294E+03</rscale>
<asrwt>0</asrwt>
<pdfrwt beam="1">  1       21 0.23771786E+00 0.45306294E+03</pdfrwt>
<pdfrwt beam="2">  1       21 0.46685008E-02 0.45306294E+03</pdfrwt>
<totfact> 0.20670723E+04</totfact>
</mgrwt>
</event>
<event>
 7    0  0.4685107E-002  0.4523743E+03  0.7546771E-02  0.1027016E+00
         21   -1    0    0  502  501  0.00000000000E+00  0.00000000000E+00  0.23770423533E+03  0.23770423533E+03  0.00000000000E+00 0. -1.
         21   -1    0    0  501  502 -0.00000000000E+00 -0.00000000000E+00 -0.21522804542E+03  0.21522804542E+03  0.00000000000E+00 0. -1.
      99926    2    1    2    0    0  0.00000000000E+00  0.00000000000E+00  0.22476189916E+02  0.45293228075E+03  0.45237426080E+03 0.  0.
      99925    2    3    3    0    0 -0.65016707164E+02 -0.48564054164E+02 -0.61279172741E+02  0.28191149710E+03  0.26293215022E+03 0.  0.
         25    1    4    4    0    0 -0.13193870318E+02 -0.37735016453E+02 -0.63922864108E+02  0.14605358721E+03  0.12509000000E+03 0.  0.
         25    1    4    4    0    0 -0.51822836846E+02 -0.10829037710E+02  0.26436913663E+01  0.13585790989E+03  0.12509000000E+03 0.  0.
         25    1    3    3    0    0  0.65016707164E+02  0.48564054164E+02  0.83755362657E+02  0.17102078365E+03  0.12509000000E+03 0.  0.
<mgrwt>
<rscale>  2 0.45237426E+03</rscale>
<asrwt>0</asrwt>
<pdfrwt beam="1">  1       21 0.34956505E-01 0.45237426E+03</pdfrwt>
<pdfrwt beam="2">  1       21 0.31651183E-01 0.45237426E+03</pdfrwt>
<totfact> 0.70155879E+04</totfact>
</mgrwt>
</event>
<event>
 7    0  0.4685107E-002  0.5180682E+03  0.7546771E-02  0.1009168E+00
         21   -1    0    0  502  501  0.00000000000E+00  0.00000000000E+00  0.41355232563E+03  0.41355232563E+03  0.00000000000E+00 0. -1.
         21   -1    0    0  501  502 -0.00000000000E+00 -0.00000000000E+00 -0.16224949956E+03  0.16224949956E+03  0.00000000000E+00 0. -1.
      99926    2    1    2    0    0  0.00000000000E+00  0.00000000000E+00  0.25130282607E+03  0.57580182520E+03  0.51806817265E+03 0.  0.
      99925    2    3    3    0    0  0.12392891607E+03  0.99319871944E+02  0.20202283369E+03  0.36771809457E+03  0.26302197350E+03 0.  0.
         25    1    4    4    0    0  0.65247220224E+02  0.52704814163E+02  0.54167376758E+02  0.16005189780E+03  0.12509000000E+03 0.  0.
         25    1    3    3    0    0 -0.12392891607E+03 -0.99319871944E+02  0.49279992377E+02  0.20808373062E+03  0.12509000000E+03 0.  0.
         25    1    4    4    0    0  0.58681695845E+02  0.46615057781E+02  0.14785545693E+03  0.20766619678E+03  0.12509000000E+03 0.  0.
<mgrwt>
<rscale>  2 0.51806817E+03</rscale>
<asrwt>0</asrwt>
<pdfrwt beam="1">  1       21 0.60816519E-01 0.51806817E+03</pdfrwt>
<pdfrwt beam="2">  1       21 0.23860221E-01 0.51806817E+03</pdfrwt>
<totfact> 0.37602357E+04</totfact>
</mgrwt>
</event>
<event>
 7    0  0.4685107E-002  0.4013939E+03  0.7546771E-02  0.1043298E+00
         21   -1    0    0  502  501  0.00000000000E+00  0.00000000000E+00  0.24336867998E+03  0.24336867998E+03  0.00000000000E+00 0. -1.
         21   -1    0    0  501  502 -0.00000000000E+00 -0.00000000000E+00 -0.16550716866E+03  0.16550716866E+03  0.00000000000E+00 0. -1.
      99926    2    1    2    0    0 -0.71054273576E-14 -0.35527136788E-14  0.77861511327E+02  0.40887584864E+03  0.40139387720E+03 0.  0.
      99925    2    3    3    0    0  0.41977816368E+02 -0.21652520856E+02  0.61175863976E+02  0.27412835273E+03  0.26300741189E+03 0.  0.
         25    1    4    4    0    0 -0.11823986772E+02 -0.32227131224E+02  0.18439686836E+02  0.13101879560E+03  0.12509000000E+03 0.  0.
         25    1    4    4    0    0  0.53801803140E+02  0.10574610368E+02  0.42736177140E+02  0.14310955713E+03  0.12509000000E+03 0.  0.
         25    1    3    3    0    0 -0.41977816368E+02  0.21652520856E+02  0.16685647351E+02  0.13474749591E+03  0.12509000000E+03 0.  0.
<mgrwt>
<rscale>  2 0.40139388E+03</rscale>
<asrwt>0</asrwt>
<pdfrwt beam="1">  1       21 0.35789512E-01 0.40139388E+03</pdfrwt>
<pdfrwt beam="2">  1       21 0.24339289E-01 0.40139388E+03</pdfrwt>
<totfact> 0.11328445E+05</totfact>
</mgrwt>
</event>
<event>
 7    0  0.4685107E-002  0.4543415E+03  0.7546771E-02  0.1026435E+00
         21   -1    0    0  502  501  0.00000000000E+00  0.00000000000E+00  0.83726355939E+02  0.83726355939E+02  0.00000000000E+00 0. -1.
         21   -1    0    0  501  502 -0.00000000000E+00 -0.00000000000E+00 -0.61637166766E+03  0.61637166766E+03  0.00000000000E+00 0. -1.
      99926    2    1    2    0    0  0.00000000000E+00  0.00000000000E+00 -0.53264531172E+03  0.70009802360E+03  0.45434151753E+03 0.  0.
      99925    2    3    3    0    0  0.98342962371E+02  0.53722722239E+02 -0.31835517186E+03  0.42783851270E+03  0.26294164442E+03 0.  0.
         25    1    4    4    0    0  0.52808351253E+02 -0.44384047110E+01 -0.19263705277E+03  0.23572221703E+03  0.12509000000E+03 0.  0.
         25    1    4    4    0    0  0.45534611118E+02  0.58161126950E+02 -0.12571811908E+03  0.19211629568E+03  0.12509000000E+03 0.  0.
         25    1    3    3    0    0 -0.98342962371E+02 -0.53722722239E+02 -0.21429013986E+03  0.27225951090E+03  0.12509000000E+03 0.  0.
<mgrwt>
<rscale>  2 0.45434152E+03</rscale>
<asrwt>0</asrwt>
<pdfrwt beam="1">  1       21 0.12312699E-01 0.45434152E+03</pdfrwt>
<pdfrwt beam="2">  1       21 0.90642893E-01 0.45434152E+03</pdfrwt>
<totfact> 0.53172645E+04</totfact>
</mgrwt>
</event>
<event>
 7    0  0.4685107E-002  0.4632551E+03  0.7546771E-02  0.1023841E+00
         21   -1    0    0  502  501  0.00000000000E+00  0.00000000000E+00  0.18863433640E+03  0.18863433640E+03  0.00000000000E+00 0. -1.
         21   -1    0    0  501  502 -0.00000000000E+00 -0.00000000000E+00 -0.28441970592E+03  0.28441970592E+03  0.00000000000E+00 0. -1.
      99926    2    1    2    0    0  0.00000000000E+00  0.17763568394E-14 -0.95785369516E+02  0.47305404232E+03  0.46325510245E+03 0.  0.
      99925    2    3    3    0    0 -0.11971719669E+03 -0.10025896414E+02 -0.72616523920E+02  0.29807681726E+03  0.26295228400E+03 0.  0.
         25    1    3    3    0    0  0.11971719669E+03  0.10025896414E+02 -0.23168845595E+02  0.17497722506E+03  0.12509000000E+03 0.  0.
         25    1    4    4    0    0 -0.45004232675E+02 -0.33435158541E+02 -0.89944379257E+01  0.13737430181E+03  0.12509000000E+03 0.  0.
         25    1    4    4    0    0 -0.74712964018E+02  0.23409262128E+02 -0.63622085994E+02  0.16070251545E+03  0.12509000000E+03 0.  0.
<mgrwt>
<rscale>  2 0.46325510E+03</rscale>
<asrwt>0</asrwt>
<pdfrwt beam="1">  1       21 0.27740344E-01 0.46325510E+03</pdfrwt>
<pdfrwt beam="2">  1       21 0.41826427E-01 0.46325510E+03</pdfrwt>
<totfact> 0.62981123E+04</totfact>
</mgrwt>
</event>
<event>
 7    0  0.4685107E-002  0.4533723E+03  0.7546771E-02  0.1026721E+00
         21   -1    0    0  502  501  0.00000000000E+00  0.00000000000E+00  0.11213875619E+03  0.11213875619E+03  0.00000000000E+00 0.  1.
         21   -1    0    0  501  502 -0.00000000000E+00 -0.00000000000E+00 -0.45824124219E+03  0.45824124219E+03  0.00000000000E+00 0.  1.
      99926    2    1    2    0    0  0.35527136788E-14  0.00000000000E+00 -0.34610248600E+03  0.57037999838E+03  0.45337226618E+03 0.  0.
      99925    2    3    3    0    0 -0.18347284408E+02 -0.11002406303E+03 -0.22399406954E+03  0.36301584825E+03  0.26299286225E+03 0.  0.
         25    1    4    4    0    0 -0.32154330953E+02 -0.75318816508E+02 -0.15499839069E+03  0.21535745712E+03  0.12509000000E+03 0.  0.
         25    1    3    3    0    0  0.18347284408E+02  0.11002406303E+03 -0.12210841647E+03  0.20736415014E+03  0.12509000000E+03 0.  0.
         25    1    4    4    0    0  0.13807046545E+02 -0.34705246525E+02 -0.68995678847E+02  0.14765839113E+03  0.12509000000E+03 0.  0.
<mgrwt>
<rscale>  2 0.45337227E+03</rscale>
<asrwt>0</asrwt>
<pdfrwt beam="1">  1       21 0.16490993E-01 0.45337227E+03</pdfrwt>
<pdfrwt beam="2">  1       21 0.67388420E-01 0.45337227E+03</pdfrwt>
<totfact> 0.61325084E+04</totfact>
</mgrwt>
</event>
<event>
 7    0  0.4685107E-002  0.4476415E+03  0.7546771E-02  0.1028428E+00
         21   -1    0    0  502  501  0.00000000000E+00  0.00000000000E+00  0.44948873268E+03  0.44948873268E+03  0.00000000000E+00 0. -1.
         21   -1    0    0  501  502 -0.00000000000E+00 -0.00000000000E+00 -0.11145046181E+03  0.11145046181E+03  0.00000000000E+00 0. -1.
      99926    2    1    2    0    0  0.00000000000E+00  0.00000000000E+00  0.33803827087E+03  0.56093919449E+03  0.44764149421E+03 0.  0.
      99925    2    3    3    0    0  0.42883136042E+02 -0.71332166851E+02  0.29674761532E+03  0.40511985127E+03  0.26293669450E+03 0.  0.
         25    1    4    4    0    0 -0.26024594371E+00 -0.26949780490E+02  0.19150214233E+03  0.23031920679E+03  0.12509000000E+03 0.  0.
         25    1    4    4    0    0  0.43143381986E+02 -0.44382386361E+02  0.10524547298E+03  0.17480064448E+03  0.12509000000E+03 0.  0.
         25    1    3    3    0    0 -0.42883136042E+02  0.71332166851E+02  0.41290655555E+02  0.15581934322E+03  0.12509000000E+03 0.  0.
<mgrwt>
<rscale>  2 0.44764149E+03</rscale>
<asrwt>0</asrwt>
<pdfrwt beam="1">  1       21 0.66101284E-01 0.44764149E+03</pdfrwt>
<pdfrwt beam="2">  1       21 0.16389774E-01 0.44764149E+03</pdfrwt>
<totfact> 0.64841731E+04</totfact>
</mgrwt>
</event>
<event>
 7    0  0.4685107E-002  0.4498401E+03  0.7546771E-02  0.1027770E+00
         21   -1    0    0  502  501  0.00000000000E+00  0.00000000000E+00  0.83362188922E+03  0.83362188922E+03  0.00000000000E+00 0. -1.
         21   -1    0    0  501  502 -0.00000000000E+00 -0.00000000000E+00 -0.60685831904E+02  0.60685831904E+02  0.00000000000E+00 0. -1.
      99926    2    1    2    0    0  0.00000000000E+00  0.17763568394E-14  0.77293605732E+03  0.89430772112E+03  0.44984013979E+03 0.  0.
      99925    2    3    3    0    0 -0.65935490991E+02 -0.80927969692E+01  0.31874804746E+03  0.41854807726E+03  0.26300036669E+03 0.  0.
         25    1    4    4    0    0 -0.30362757892E+02  0.35187393928E+02  0.14167379240E+03  0.19462533574E+03  0.12509000000E+03 0.  0.
         25    1    4    4    0    0 -0.35572733099E+02 -0.43280190898E+02  0.17707425506E+03  0.22392274152E+03  0.12509000000E+03 0.  0.
         25    1    3    3    0    0  0.65935490991E+02  0.80927969692E+01  0.45418800986E+03  0.47575964387E+03  0.12509000000E+03 0.  0.
<mgrwt>
<rscale>  2 0.44984014E+03</rscale>
<asrwt>0</asrwt>
<pdfrwt beam="1">  1       21 0.12259145E+00 0.44984014E+03</pdfrwt>
<pdfrwt beam="2">  1       21 0.89243875E-02 0.44984014E+03</pdfrwt>
<totfact> 0.45282697E+04</totfact>
</mgrwt>
</event>
<event>
 7    0  0.4685107E-002  0.4113603E+03  0.7546771E-02  0.1039915E+00
         21   -1    0    0  502  501  0.00000000000E+00  0.00000000000E+00  0.16933396769E+04  0.16933396769E+04  0.00000000000E+00 0.  1.
         21   -1    0    0  501  502 -0.00000000000E+00 -0.00000000000E+00 -0.24982774837E+02  0.24982774837E+02  0.00000000000E+00 0.  1.
      99926    2    1    2    0    0  0.00000000000E+00 -0.35527136788E-14  0.16683569020E+04  0.17183224517E+04  0.41136029886E+03 0.  0.
      99925    2    3    3    0    0 -0.60107506960E+02  0.16571082285E+02  0.10330724022E+04  0.10678446143E+04  0.26299433243E+03 0.  0.
         25    1    3    3    0    0  0.60107506960E+02 -0.16571082285E+02  0.63528449984E+03  0.65047783744E+03  0.12509000000E+03 0.  0.
         25    1    4    4    0    0 -0.61375672064E+02  0.33129731646E+02  0.50610858253E+03  0.52598284920E+03  0.12509000000E+03 0.  0.
         25    1    4    4    0    0  0.12681651040E+01 -0.16558649361E+02  0.52696381967E+03  0.54186176508E+03  0.12509000000E+03 0.  0.
<mgrwt>
<rscale>  2 0.41136030E+03</rscale>
<asrwt>0</asrwt>
<pdfrwt beam="1">  1       21 0.24902046E+00 0.41136030E+03</pdfrwt>
<pdfrwt beam="2">  1       21 0.36739386E-02 0.41136030E+03</pdfrwt>
<totfact> 0.26907664E+04</totfact>
</mgrwt>
</event>
<event>
 7    0  0.4685107E-002  0.4596388E+03  0.7546771E-02  0.1024886E+00
         21   -1    0    0  502  501  0.00000000000E+00  0.00000000000E+00  0.34843713202E+02  0.34843713202E+02  0.00000000000E+00 0.  1.
         21   -1    0    0  501  502 -0.00000000000E+00 -0.00000000000E+00 -0.15158246985E+04  0.15158246985E+04  0.00000000000E+00 0.  1.
      99926    2    1    2    0    0  0.14210854715E-13  0.14210854715E-13 -0.14809809853E+04  0.15506684117E+04  0.45963881934E+03 0.  0.
      99925    2    3    3    0    0 -0.67696290120E+02 -0.95905875399E+02 -0.91729716052E+03  0.96145903716E+03  0.26303740192E+03 0.  0.
         25    1    3    3    0    0  0.67696290120E+02  0.95905875399E+02 -0.56368382483E+03  0.58920937459E+03  0.12509000000E+03 0.  0.
         25    1    4    4    0    0 -0.38408912465E+02 -0.19634482709E+02 -0.33207897568E+03  0.35746987518E+03  0.12509000000E+03 0.  0.
         25    1    4    4    0    0 -0.29287377655E+02 -0.76271392690E+02 -0.58521818483E+03  0.60398916198E+03  0.12509000000E+03 0.  0.
<mgrwt>
<rscale>  2 0.45963882E+03</rscale>
<asrwt>0</asrwt>
<pdfrwt beam="1">  1       21 0.51240746E-02 0.45963882E+03</pdfrwt>
<pdfrwt beam="2">  1       21 0.22291543E+00 0.45963882E+03</pdfrwt>
<totfact> 0.21769321E+04</totfact>
</mgrwt>
</event>
<event>
 7    0  0.4685107E-002  0.4632887E+03  0.7546771E-02  0.1023832E+00
         21   -1    0    0  502  501  0.00000000000E+00  0.00000000000E+00  0.80011166042E+03  0.80011166042E+03  0.00000000000E+00 0.  1.
         21   -1    0    0  501  502 -0.00000000000E+00 -0.00000000000E+00 -0.67064527896E+02  0.67064527896E+02  0.00000000000E+00 0.  1.
      99926    2    1    2    0    0  0.00000000000E+00  0.00000000000E+00  0.73304713252E+03  0.86717618832E+03  0.46328872540E+03 0.  0.
      99925    2    3    3    0    0  0.60480245845E+02 -0.57028276514E+02  0.62197275264E+03  0.68037385849E+03  0.26296082948E+03 0.  0.
         25    1    4    4    0    0  0.69623169986E+02 -0.28492978412E+02  0.36195960176E+03  0.39028386724E+03  0.12509000000E+03 0.  0.
         25    1    3    3    0    0 -0.60480245845E+02  0.57028276514E+02  0.11107437989E+03  0.18680232982E+03  0.12509000000E+03 0.  0.
         25    1    4    4    0    0 -0.91429241402E+01 -0.28535298103E+02  0.26001315087E+03  0.29008999125E+03  0.12509000000E+03 0.  0.
<mgrwt>
<rscale>  2 0.46328873E+03</rscale>
<asrwt>0</asrwt>
<pdfrwt beam="1">  1       21 0.11766347E+00 0.46328873E+03</pdfrwt>
<pdfrwt beam="2">  1       21 0.98624311E-02 0.46328873E+03</pdfrwt>
<totfact> 0.41890093E+04</totfact>
</mgrwt>
</event>
<event>
 7    0  0.4685107E-002  0.4504112E+03  0.7546771E-02  0.1027599E+00
         21   -1    0    0  502  501  0.00000000000E+00  0.00000000000E+00  0.37192410823E+03  0.37192410823E+03  0.00000000000E+00 0. -1.
         21   -1    0    0  501  502 -0.00000000000E+00 -0.00000000000E+00 -0.13636537016E+03  0.13636537016E+03  0.00000000000E+00 0. -1.
      99926    2    1    2    0    0  0.00000000000E+00  0.35527136788E-14  0.23555873806E+03  0.50828947839E+03  0.45041122850E+03 0.  0.
      99925    2    3    3    0    0 -0.42124257422E+02 -0.21454996757E+02  0.38074761074E+02  0.26978958485E+03  0.26287252180E+03 0.  0.
         25    1    4    4    0    0  0.16701752124E+02  0.52172453909E+01  0.18097033247E+02  0.12759772289E+03  0.12509000000E+03 0.  0.
         25    1    3    3    0    0  0.42124257422E+02  0.21454996757E+02  0.19748397699E+03  0.23849989354E+03  0.12509000000E+03 0.  0.
         25    1    4    4    0    0 -0.58826009546E+02 -0.26672242148E+02  0.19977727827E+02  0.14219186197E+03  0.12509000000E+03 0.  0.
<mgrwt>
<rscale>  2 0.45041123E+03</rscale>
<asrwt>0</asrwt>
<pdfrwt beam="1">  1       21 0.54694721E-01 0.45041123E+03</pdfrwt>
<pdfrwt beam="2">  1       21 0.20053731E-01 0.45041123E+03</pdfrwt>
<totfact> 0.67102708E+04</totfact>
</mgrwt>
</event>
<event>
 7    0  0.4685107E-002  0.4742340E+03  0.7546771E-02  0.1020732E+00
         21   -1    0    0  502  501  0.00000000000E+00  0.00000000000E+00  0.34910228196E+03  0.34910228196E+03  0.00000000000E+00 0. -1.
         21   -1    0    0  501  502 -0.00000000000E+00 -0.00000000000E+00 -0.16105444994E+03  0.16105444994E+03  0.00000000000E+00 0. -1.
      99926    2    1    2    0    0  0.71054273576E-14  0.00000000000E+00  0.18804783202E+03  0.51015673191E+03  0.47423401816E+03 0.  0.
      99925    2    3    3    0    0 -0.46979981071E+02  0.80336285504E+02  0.18173295878E+02  0.27957940535E+03  0.26300824669E+03 0.  0.
         25    1    3    3    0    0  0.46979981071E+02 -0.80336285504E+02  0.16987453614E+03  0.23057732655E+03  0.12509000000E+03 0.  0.
         25    1    4    4    0    0 -0.39058640971E+02  0.78474219979E+02  0.21065957721E+02  0.15419164475E+03  0.12509000000E+03 0.  0.
         25    1    4    4    0    0 -0.79213401006E+01  0.18620655258E+01 -0.28926618428E+01  0.12538776061E+03  0.12509000000E+03 0.  0.
<mgrwt>
<rscale>  2 0.47423402E+03</rscale>
<asrwt>0</asrwt>
<pdfrwt beam="1">  1       21 0.51338571E-01 0.47423402E+03</pdfrwt>
<pdfrwt beam="2">  1       21 0.23684478E-01 0.47423402E+03</pdfrwt>
<totfact> 0.55579763E+04</totfact>
</mgrwt>
</event>
<event>
 7    0  0.4685107E-002  0.4581728E+03  0.7546771E-02  0.1025312E+00
         21   -1    0    0  502  501  0.00000000000E+00  0.00000000000E+00  0.35436535545E+03  0.35436535545E+03  0.00000000000E+00 0.  1.
         21   -1    0    0  501  502 -0.00000000000E+00 -0.00000000000E+00 -0.14809738190E+03  0.14809738190E+03  0.00000000000E+00 0.  1.
      99926    2    1    2    0    0  0.00000000000E+00  0.00000000000E+00  0.20626797354E+03  0.50246273735E+03  0.45817281185E+03 0.  0.
      99925    2    3    3    0    0  0.11532354126E+02  0.11217884014E+03  0.16027246235E+03  0.32787699190E+03  0.26286683371E+03 0.  0.
         25    1    3    3    0    0 -0.11532354126E+02 -0.11217884014E+03  0.45995511199E+02  0.17458574546E+03  0.12509000000E+03 0.  0.
         25    1    4    4    0    0  0.14874841947E+01  0.12412845932E+02  0.71357206143E+02  0.14455327849E+03  0.12509000000E+03 0.  0.
         25    1    4    4    0    0  0.10044869931E+02  0.99765994205E+02  0.88915256202E+02  0.18332371341E+03  0.12509000000E+03 0.  0.
<mgrwt>
<rscale>  2 0.45817281E+03</rscale>
<asrwt>0</asrwt>
<pdfrwt beam="1">  1       21 0.52112552E-01 0.45817281E+03</pdfrwt>
<pdfrwt beam="2">  1       21 0.21779027E-01 0.45817281E+03</pdfrwt>
<totfact> 0.63483976E+04</totfact>
</mgrwt>
</event>
<event>
 7    0  0.4685107E-002  0.4547711E+03  0.7546771E-02  0.1026309E+00
         21   -1    0    0  502  501  0.00000000000E+00  0.00000000000E+00  0.46698503927E+02  0.46698503927E+02  0.00000000000E+00 0.  1.
         21   -1    0    0  501  502 -0.00000000000E+00 -0.00000000000E+00 -0.11071915554E+04  0.11071915554E+04  0.00000000000E+00 0.  1.
      99926    2    1    2    0    0  0.00000000000E+00  0.00000000000E+00 -0.10604930514E+04  0.11538900593E+04  0.45477110373E+03 0.  0.
      99925    2    3    3    0    0 -0.66257216998E+02  0.91011410693E+02 -0.68995694254E+03  0.74692862159E+03  0.26303742606E+03 0.  0.
         25    1    4    4    0    0 -0.29414237366E+02  0.14489202018E+02 -0.39243676157E+03  0.41319396688E+03  0.12509000000E+03 0.  0.
         25    1    4    4    0    0 -0.36842979632E+02  0.76522208675E+02 -0.29752018097E+03  0.33373465471E+03  0.12509000000E+03 0.  0.
         25    1    3    3    0    0  0.66257216998E+02 -0.91011410693E+02 -0.37053610890E+03  0.40696143770E+03  0.12509000000E+03 0.  0.
<mgrwt>
<rscale>  2 0.45477110E+03</rscale>
<asrwt>0</asrwt>
<pdfrwt beam="1">  1       21 0.68674284E-02 0.45477110E+03</pdfrwt>
<pdfrwt beam="2">  1       21 0.16282226E+00 0.45477110E+03</pdfrwt>
<totfact> 0.33712855E+04</totfact>
</mgrwt>
</event>
<event>
 7    0  0.4685107E-002  0.4614965E+03  0.7546771E-02  0.1024348E+00
         21   -1    0    0  502  501  0.00000000000E+00  0.00000000000E+00  0.84383891083E+02  0.84383891083E+02  0.00000000000E+00 0.  1.
         21   -1    0    0  501  502 -0.00000000000E+00 -0.00000000000E+00 -0.63098234716E+03  0.63098234716E+03  0.00000000000E+00 0.  1.
      99926    2    1    2    0    0  0.00000000000E+00  0.14210854715E-13 -0.54659845608E+03  0.71536623824E+03  0.46149646004E+03 0.  0.
      99925    2    3    3    0    0 -0.17492706992E+02 -0.82003258911E+02 -0.47313210501E+03  0.54780925657E+03  0.26307881616E+03 0.  0.
         25    1    3    3    0    0  0.17492706992E+02  0.82003258911E+02 -0.73466351063E+02  0.16755698168E+03  0.12509000000E+03 0.  0.
         25    1    4    4    0    0 -0.22525727575E+02 -0.25364969839E+01 -0.19894878705E+03  0.23609737438E+03  0.12509000000E+03 0.  0.
         25    1    4    4    0    0  0.50330205827E+01 -0.79466761927E+02 -0.27418331796E+03  0.31171188218E+03  0.12509000000E+03 0.  0.
<mgrwt>
<rscale>  2 0.46149646E+03</rscale>
<asrwt>0</asrwt>
<pdfrwt beam="1">  1       21 0.12409396E-01 0.46149646E+03</pdfrwt>
<pdfrwt beam="2">  1       21 0.92791520E-01 0.46149646E+03</pdfrwt>
<totfact> 0.49498078E+04</totfact>
</mgrwt>
</event>
<event>
 6    0  0.4685107E-002  0.4495365E+03  0.7546771E-02  0.1027860E+00
         21   -1    0    0  502  501  0.00000000000E+00  0.00000000000E+00  0.44646294435E+03  0.44646294435E+03  0.00000000000E+00 0. -1.
         21   -1    0    0  501  502 -0.00000000000E+00 -0.00000000000E+00 -0.11315782664E+03  0.11315782664E+03  0.00000000000E+00 0. -1.
      99926    2    1    2    0    0 -0.35527136788E-14  0.00000000000E+00  0.33330511771E+03  0.55962077099E+03  0.44953654561E+03 0.  0.
         25    1    3    3    0    0 -0.24693936296E+02  0.11727324494E+02  0.11967509048E+03  0.17526253453E+03  0.12509000000E+03 0.  0.
         25    1    3    3    0    0  0.51431808606E+02  0.68296680213E+02  0.16907589163E+03  0.22703266879E+03  0.12509000000E+03 0.  0.
         25    1    3    3    0    0 -0.26737872311E+02 -0.80024004707E+02  0.44554135597E+02  0.15732556767E+03  0.12509000000E+03 0.  0.
<mgrwt>
<rscale>  2 0.44953655E+03</rscale>
<asrwt>0</asrwt>
<pdfrwt beam="1">  1       21 0.65656315E-01 0.44953655E+03</pdfrwt>
<pdfrwt beam="2">  1       21 0.16640857E-01 0.44953655E+03</pdfrwt>
<totfact> 0.63954529E+04</totfact>
</mgrwt>
</event>
<event>
 7    0  0.4685107E-002  0.4608097E+03  0.7546771E-02  0.1024547E+00
         21   -1    0    0  502  501  0.00000000000E+00  0.00000000000E+00  0.21562211793E+03  0.21562211793E+03  0.00000000000E+00 0. -1.
         21   -1    0    0  501  502 -0.00000000000E+00 -0.00000000000E+00 -0.24620106152E+03  0.24620106152E+03  0.00000000000E+00 0. -1.
      99926    2    1    2    0    0  0.13322676296E-14  0.00000000000E+00 -0.30578943595E+02  0.46182317945E+03  0.46080969747E+03 0.  0.
      99925    2    3    3    0    0  0.22939775154E+01  0.11396963526E+03 -0.51672339163E+02  0.29127471264E+03  0.26301442449E+03 0.  0.
         25    1    4    4    0    0  0.23602222987E+02  0.85303261202E+02 -0.49957689198E+02  0.16117378854E+03  0.12509000000E+03 0.  0.
         25    1    4    4    0    0 -0.21308245472E+02  0.28666374062E+02 -0.17146499653E+01  0.13010092410E+03  0.12509000000E+03 0.  0.
         25    1    3    3    0    0 -0.22939775154E+01 -0.11396963526E+03  0.21093395568E+02  0.17054846681E+03  0.12509000000E+03 0.  0.
<mgrwt>
<rscale>  2 0.46080970E+03</rscale>
<asrwt>0</asrwt>
<pdfrwt beam="1">  1       21 0.31709135E-01 0.46080970E+03</pdfrwt>
<pdfrwt beam="2">  1       21 0.36206038E-01 0.46080970E+03</pdfrwt>
<totfact> 0.64983900E+04</totfact>
</mgrwt>
</event>
<event>
 7    0  0.4685107E-002  0.4576497E+03  0.7546771E-02  0.1025465E+00
         21   -1    0    0  502  501  0.00000000000E+00  0.00000000000E+00  0.29334409619E+03  0.29334409619E+03  0.00000000000E+00 0.  1.
         21   -1    0    0  501  502 -0.00000000000E+00 -0.00000000000E+00 -0.17849621777E+03  0.17849621777E+03  0.00000000000E+00 0.  1.
      99926    2    1    2    0    0  0.14210854715E-13  0.71054273576E-14  0.11484787842E+03  0.47184031396E+03  0.45764969868E+03 0.  0.
      99925    2    3    3    0    0  0.10279392839E+03  0.33737213440E+02  0.11424843576E+03  0.30645392179E+03  0.26297625334E+03 0.  0.
         25    1    4    4    0    0  0.83488144325E+02  0.43207462081E+02  0.50524343258E+02  0.16443044847E+03  0.12509000000E+03 0.  0.
         25    1    3    3    0    0 -0.10279392839E+03 -0.33737213440E+02  0.59944266643E+00  0.16538639218E+03  0.12509000000E+03 0.  0.
         25    1    4    4    0    0  0.19305784068E+02 -0.94702486411E+01  0.63724092500E+02  0.14202347332E+03  0.12509000000E+03 0.  0.
<mgrwt>
<rscale>  2 0.45764970E+03</rscale>
<asrwt>0</asrwt>
<pdfrwt beam="1">  1       21 0.43138838E-01 0.45764970E+03</pdfrwt>
<pdfrwt beam="2">  1       21 0.26249444E-01 0.45764970E+03</pdfrwt>
<totfact> 0.65902885E+04</totfact>
</mgrwt>
</event>
<event>
 7    0  0.4685107E-002  0.4546822E+03  0.7546771E-02  0.1026335E+00
         21   -1    0    0  502  501  0.00000000000E+00  0.00000000000E+00  0.12849165852E+04  0.12849165852E+04  0.00000000000E+00 0.  1.
         21   -1    0    0  501  502 -0.00000000000E+00 -0.00000000000E+00 -0.40223608900E+02  0.40223608900E+02  0.00000000000E+00 0.  1.
      99926    2    1    2    0    0  0.00000000000E+00  0.00000000000E+00  0.12446929763E+04  0.13251401941E+04  0.45468222834E+03 0.  0.
      99925    2    3    3    0    0 -0.56262074517E+02  0.43719896586E+01  0.49844190253E+03  0.56637625945E+03  0.26296996359E+03 0.  0.
         25    1    4    4    0    0 -0.31103595122E+02  0.35218185699E+02  0.20233506871E+03  0.24247627175E+03  0.12509000000E+03 0.  0.
         25    1    3    3    0    0  0.56262074517E+02 -0.43719896586E+01  0.74625107376E+03  0.75876393464E+03  0.12509000000E+03 0.  0.
         25    1    4    4    0    0 -0.25158479395E+02 -0.30846196041E+02  0.29610683383E+03  0.32389998771E+03  0.12509000000E+03 0.  0.
<mgrwt>
<rscale>  2 0.45468223E+03</rscale>
<asrwt>0</asrwt>
<pdfrwt beam="1">  1       21 0.18895829E+00 0.45468223E+03</pdfrwt>
<pdfrwt beam="2">  1       21 0.59152375E-02 0.45468223E+03</pdfrwt>
<totfact> 0.28463524E+04</totfact>
</mgrwt>
</event>
<event>
 7    0  0.4685107E-002  0.4828385E+03  0.7546771E-02  0.1018358E+00
         21   -1    0    0  502  501  0.00000000000E+00  0.00000000000E+00  0.21250603553E+03  0.21250603553E+03  0.00000000000E+00 0. -1.
         21   -1    0    0  501  502 -0.00000000000E+00 -0.00000000000E+00 -0.27426636071E+03  0.27426636071E+03  0.00000000000E+00 0. -1.
      99926    2    1    2    0    0 -0.35527136788E-14  0.00000000000E+00 -0.61760325180E+02  0.48677239625E+03  0.48283851129E+03 0.  0.
      99925    2    3    3    0    0  0.13669398656E+02  0.12785631736E+03 -0.88102294470E+02  0.30545637987E+03  0.26269277753E+03 0.  0.
         25    1    3    3    0    0 -0.13669398656E+02 -0.12785631736E+03  0.26341969290E+02  0.18131601637E+03  0.12509000000E+03 0.  0.
         25    1    4    4    0    0  0.40837692336E+02  0.84571016599E+02 -0.35128083923E+02  0.16031676252E+03  0.12509000000E+03 0.  0.
         25    1    4    4    0    0 -0.27168293680E+02  0.43285300758E+02 -0.52974210546E+02  0.14513961736E+03  0.12509000000E+03 0.  0.
<mgrwt>
<rscale>  2 0.48283851E+03</rscale>
<asrwt>0</asrwt>
<pdfrwt beam="1">  1       21 0.31250888E-01 0.48283851E+03</pdfrwt>
<pdfrwt beam="2">  1       21 0.40333288E-01 0.48283851E+03</pdfrwt>
<totfact> 0.53393269E+04</totfact>
</mgrwt>
</event>
<event>
 7    0  0.4685107E-002  0.4479220E+03  0.7546771E-02  0.1028344E+00
         21   -1    0    0  502  501  0.00000000000E+00  0.00000000000E+00  0.29502295039E+03  0.29502295039E+03  0.00000000000E+00 0. -1.
         21   -1    0    0  501  502 -0.00000000000E+00 -0.00000000000E+00 -0.17001566615E+03  0.17001566615E+03  0.00000000000E+00 0. -1.
      99926    2    1    2    0    0  0.00000000000E+00  0.00000000000E+00  0.12500728425E+03  0.46503861654E+03  0.44792197285E+03 0.  0.
      99925    2    3    3    0    0 -0.36840705040E+02 -0.99183549382E+02  0.92439340176E+02  0.29799732495E+03  0.26279794529E+03 0.  0.
         25    1    3    3    0    0  0.36840705040E+02  0.99183549382E+02  0.32567944071E+02  0.16704129159E+03  0.12509000000E+03 0.  0.
         25    1    4    4    0    0 -0.62258758027E+01 -0.40107890346E+02  0.84027495792E+02  0.15606259176E+03  0.12509000000E+03 0.  0.
         25    1    4    4    0    0 -0.30614829237E+02 -0.59075659036E+02  0.84118443835E+01  0.14193473319E+03  0.12509000000E+03 0.  0.
<mgrwt>
<rscale>  2 0.44792197E+03</rscale>
<asrwt>0</asrwt>
<pdfrwt beam="1">  1       21 0.43385728E-01 0.44792197E+03</pdfrwt>
<pdfrwt beam="2">  1       21 0.25002304E-01 0.44792197E+03</pdfrwt>
<totfact> 0.71751576E+04</totfact>
</mgrwt>
</event>
<event>
 7    0  0.4685107E-002  0.4591610E+03  0.7546771E-02  0.1025025E+00
         21   -1    0    0  502  501  0.00000000000E+00  0.00000000000E+00  0.14007259810E+03  0.14007259810E+03  0.00000000000E+00 0.  1.
         21   -1    0    0  501  502 -0.00000000000E+00 -0.00000000000E+00 -0.37628487779E+03  0.37628487779E+03  0.00000000000E+00 0.  1.
      99926    2    1    2    0    0  0.00000000000E+00  0.14210854715E-13 -0.23621227968E+03  0.51635747589E+03  0.45916097595E+03 0.  0.
      99925    2    3    3    0    0 -0.57393031497E+02 -0.10025093444E+03 -0.16867655070E+03  0.33318326179E+03  0.26308762278E+03 0.  0.
         25    1    4    4    0    0  0.53995974694E+01 -0.22537172283E+02 -0.72764629886E+02  0.14655810878E+03  0.12509000000E+03 0.  0.
         25    1    4    4    0    0 -0.62792628967E+02 -0.77713762162E+02 -0.95911920814E+02  0.18662515301E+03  0.12509000000E+03 0.  0.
         25    1    3    3    0    0  0.57393031497E+02  0.10025093444E+03 -0.67535728981E+02  0.18317421410E+03  0.12509000000E+03 0.  0.
<mgrwt>
<rscale>  2 0.45916098E+03</rscale>
<asrwt>0</asrwt>
<pdfrwt beam="1">  1       21 0.20598912E-01 0.45916098E+03</pdfrwt>
<pdfrwt beam="2">  1       21 0.55336011E-01 0.45916098E+03</pdfrwt>
<totfact> 0.62061467E+04</totfact>
</mgrwt>
</event>
<event>
 7    0  0.4685107E-002  0.4588316E+03  0.7546771E-02  0.1025121E+00
         21   -1    0    0  502  501  0.00000000000E+00  0.00000000000E+00  0.21284580753E+03  0.21284580753E+03  0.00000000000E+00 0. -1.
         21   -1    0    0  501  502 -0.00000000000E+00 -0.00000000000E+00 -0.24727577218E+03  0.24727577218E+03  0.00000000000E+00 0. -1.
      99926    2    1    2    0    0  0.00000000000E+00  0.71054273576E-14 -0.34429964643E+02  0.46012157971E+03  0.45883160925E+03 0.  0.
      99925    2    3    3    0    0 -0.85434511238E+02  0.56493646451E+02 -0.77721815610E+02  0.29275288413E+03  0.26300757165E+03 0.  0.
         25    1    4    4    0    0 -0.59872022615E+02 -0.83033316891E+01 -0.42920118702E+02  0.14540718379E+03  0.12509000000E+03 0.  0.
         25    1    4    4    0    0 -0.25562488623E+02  0.64796978140E+02 -0.34801696908E+02  0.14734570034E+03  0.12509000000E+03 0.  0.
         25    1    3    3    0    0  0.85434511238E+02 -0.56493646451E+02  0.43291850968E+02  0.16736869558E+03  0.12509000000E+03 0.  0.
<mgrwt>
<rscale>  2 0.45883161E+03</rscale>
<asrwt>0</asrwt>
<pdfrwt beam="1">  1       21 0.31300854E-01 0.45883161E+03</pdfrwt>
<pdfrwt beam="2">  1       21 0.36364084E-01 0.45883161E+03</pdfrwt>
<totfact> 0.66127395E+04</totfact>
</mgrwt>
</event>
<event>
 7    0  0.4685107E-002  0.4521663E+03  0.7546771E-02  0.1027078E+00
         21   -1    0    0  502  501  0.00000000000E+00  0.00000000000E+00  0.31973219391E+03  0.31973219391E+03  0.00000000000E+00 0. -1.
         21   -1    0    0  501  502 -0.00000000000E+00 -0.00000000000E+00 -0.15986376080E+03  0.15986376080E+03  0.00000000000E+00 0. -1.
      99926    2    1    2    0    0 -0.14210854715E-13  0.00000000000E+00  0.15986843311E+03  0.47959595471E+03  0.45216630112E+03 0.  0.
      99925    2    3    3    0    0  0.10682046131E+03 -0.21997558739E+02  0.83046894283E+02  0.29672014857E+03  0.26315690447E+03 0.  0.
         25    1    4    4    0    0  0.65082804026E+02 -0.34354251468E+02  0.10028111504E+02  0.14547871698E+03  0.12509000000E+03 0.  0.
         25    1    4    4    0    0  0.41737657282E+02  0.12356692729E+02  0.73018782779E+02  0.15124143159E+03  0.12509000000E+03 0.  0.
         25    1    3    3    0    0 -0.10682046131E+03  0.21997558739E+02  0.76821538826E+02  0.18287580614E+03  0.12509000000E+03 0.  0.
<mgrwt>
<rscale>  2 0.45216630E+03</rscale>
<asrwt>0</asrwt>
<pdfrwt beam="1">  1       21 0.47019440E-01 0.45216630E+03</pdfrwt>
<pdfrwt beam="2">  1       21 0.23509377E-01 0.45216630E+03</pdfrwt>
<totfact> 0.68251848E+04</totfact>
</mgrwt>
</event>
<event>
 7    0  0.4685107E-002  0.4558944E+03  0.7546771E-02  0.1025979E+00
         21   -1    0    0  502  501  0.00000000000E+00  0.00000000000E+00  0.22644608400E+03  0.22644608400E+03  0.00000000000E+00 0.  1.
         21   -1    0    0  501  502 -0.00000000000E+00 -0.00000000000E+00 -0.22945823206E+03  0.22945823206E+03  0.00000000000E+00 0.  1.
      99926    2    1    2    0    0  0.00000000000E+00  0.00000000000E+00 -0.30121480675E+01  0.45590431606E+03  0.45589436536E+03 0.  0.
      99925    2    3    3    0    0  0.27615447953E+02 -0.77838764108E+02  0.76746703164E+02  0.28610894329E+03  0.26295776243E+03 0.  0.
         25    1    3    3    0    0 -0.27615447953E+02  0.77838764108E+02 -0.79758851232E+02  0.16979537277E+03  0.12509000000E+03 0.  0.
         25    1    4    4    0    0  0.90509400109E+00 -0.73105006316E+02  0.20627637104E+02  0.14634947440E+03  0.12509000000E+03 0.  0.
         25    1    4    4    0    0  0.26710353952E+02 -0.47337577924E+01  0.56119066060E+02  0.13975946890E+03  0.12509000000E+03 0.  0.
<mgrwt>
<rscale>  2 0.45589437E+03</rscale>
<asrwt>0</asrwt>
<pdfrwt beam="1">  1       21 0.33300895E-01 0.45589437E+03</pdfrwt>
<pdfrwt beam="2">  1       21 0.33743857E-01 0.45589437E+03</pdfrwt>
<totfact> 0.67993088E+04</totfact>
</mgrwt>
</event>
<event>
 7    0  0.4685107E-002  0.4498497E+03  0.7546771E-02  0.1027767E+00
         21   -1    0    0  502  501  0.00000000000E+00  0.00000000000E+00  0.44282186257E+03  0.44282186257E+03  0.00000000000E+00 0.  1.
         21   -1    0    0  501  502 -0.00000000000E+00 -0.00000000000E+00 -0.11424725942E+03  0.11424725942E+03  0.00000000000E+00 0.  1.
      99926    2    1    2    0    0 -0.14210854715E-13 -0.71054273576E-14  0.32857460316E+03  0.55706912199E+03  0.44984968249E+03 0.  0.
      99925    2    3    3    0    0  0.95227654549E+02  0.47669909065E+02  0.18404411415E+03  0.33826030870E+03  0.26307237420E+03 0.  0.
         25    1    4    4    0    0  0.82716589212E+02  0.38040320140E+02  0.76755602907E+02  0.17270793486E+03  0.12509000000E+03 0.  0.
         25    1    3    3    0    0 -0.95227654549E+02 -0.47669909065E+02  0.14453048900E+03  0.21880881329E+03  0.12509000000E+03 0.  0.
         25    1    4    4    0    0  0.12511065337E+02  0.96295889252E+01  0.10728851125E+03  0.16555237384E+03  0.12509000000E+03 0.  0.
<mgrwt>
<rscale>  2 0.44984968E+03</rscale>
<asrwt>0</asrwt>
<pdfrwt beam="1">  1       21 0.65120861E-01 0.44984968E+03</pdfrwt>
<pdfrwt beam="2">  1       21 0.16801068E-01 0.44984968E+03</pdfrwt>
<totfact> 0.63968358E+04</totfact>
</mgrwt>
</event>
<event>
 7    0  0.4685107E-002  0.4550222E+03  0.7546771E-02  0.1026235E+00
         21   -1    0    0  502  501  0.00000000000E+00  0.00000000000E+00  0.22225543924E+03  0.22225543924E+03  0.00000000000E+00 0.  1.
         21   -1    0    0  501  502 -0.00000000000E+00 -0.00000000000E+00 -0.23289099548E+03  0.23289099548E+03  0.00000000000E+00 0.  1.
      99926    2    1    2    0    0  0.00000000000E+00  0.00000000000E+00 -0.10635556237E+02  0.45514643472E+03  0.45502215548E+03 0.  0.
      99925    2    3    3    0    0  0.65838547827E+02 -0.88115454474E+02  0.19995351114E+02  0.28578053413E+03  0.26300504163E+03 0.  0.
         25    1    3    3    0    0 -0.65838547827E+02  0.88115454474E+02 -0.30630907351E+02  0.16936590059E+03  0.12509000000E+03 0.  0.
         25    1    4    4    0    0  0.13399748205E+02 -0.50635760143E+02 -0.25294054709E+02  0.13795227711E+03  0.12509000000E+03 0.  0.
         25    1    4    4    0    0  0.52438799622E+02 -0.37479694330E+02  0.45289405824E+02  0.14782825702E+03  0.12509000000E+03 0.  0.
<mgrwt>
<rscale>  2 0.45502216E+03</rscale>
<asrwt>0</asrwt>
<pdfrwt beam="1">  1       21 0.32684624E-01 0.45502216E+03</pdfrwt>
<pdfrwt beam="2">  1       21 0.34248676E-01 0.45502216E+03</pdfrwt>
<totfact> 0.68522957E+04</totfact>
</mgrwt>
</event>
<event>
 7    0  0.4685107E-002  0.4554027E+03  0.7546771E-02  0.1026123E+00
         21   -1    0    0  502  501  0.00000000000E+00  0.00000000000E+00  0.42244780830E+03  0.42244780830E+03  0.00000000000E+00 0. -1.
         21   -1    0    0  501  502 -0.00000000000E+00 -0.00000000000E+00 -0.12273211003E+03  0.12273211003E+03  0.00000000000E+00 0. -1.
      99926    2    1    2    0    0  0.00000000000E+00  0.00000000000E+00  0.29971569828E+03  0.54517991833E+03  0.45540272677E+03 0.  0.
      99925    2    3    3    0    0  0.58945385982E+02  0.69419178816E+02  0.10769769669E+03  0.29857902225E+03  0.26316735690E+03 0.  0.
         25    1    4    4    0    0  0.66486749829E+01  0.61235423436E+02  0.77164798258E+02  0.15936089907E+03  0.12509000000E+03 0.  0.
         25    1    4    4    0    0  0.52296710999E+02  0.81837553795E+01  0.30532898435E+02  0.13921812317E+03  0.12509000000E+03 0.  0.
         25    1    3    3    0    0 -0.58945385982E+02 -0.69419178816E+02  0.19201800158E+03  0.24660089608E+03  0.12509000000E+03 0.  0.
<mgrwt>
<rscale>  2 0.45540273E+03</rscale>
<asrwt>0</asrwt>
<pdfrwt beam="1">  1       21 0.62124677E-01 0.45540273E+03</pdfrwt>
<pdfrwt beam="2">  1       21 0.18048840E-01 0.45540273E+03</pdfrwt>
<totfact> 0.61988379E+04</totfact>
</mgrwt>
</event>
<event>
 7    0  0.4685107E-002  0.4427243E+03  0.7546771E-02  0.1029914E+00
         21   -1    0    0  502  501  0.00000000000E+00  0.00000000000E+00  0.49737936038E+03  0.49737936038E+03  0.00000000000E+00 0. -1.
         21   -1    0    0  501  502 -0.00000000000E+00 -0.00000000000E+00 -0.98518769661E+02  0.98518769661E+02  0.00000000000E+00 0. -1.
      99926    2    1    2    0    0  0.00000000000E+00  0.00000000000E+00  0.39886059072E+03  0.59589813004E+03  0.44272430536E+03 0.  0.
      99925    2    3    3    0    0 -0.63779491816E+02  0.37971864618E+02  0.16129476667E+03  0.31733985079E+03  0.26301880744E+03 0.  0.
         25    1    4    4    0    0 -0.25077787679E+02  0.13295305152E+01  0.36307500545E+02  0.13265144470E+03  0.12509000000E+03 0.  0.
         25    1    3    3    0    0  0.63779491816E+02 -0.37971864618E+02  0.23756582406E+03  0.27855827925E+03  0.12509000000E+03 0.  0.
         25    1    4    4    0    0 -0.38701704138E+02  0.36642334103E+02  0.12498726612E+03  0.18468840609E+03  0.12509000000E+03 0.  0.
<mgrwt>
<rscale>  2 0.44272431E+03</rscale>
<asrwt>0</asrwt>
<pdfrwt beam="1">  1       21 0.73144023E-01 0.44272431E+03</pdfrwt>
<pdfrwt beam="2">  1       21 0.14488055E-01 0.44272431E+03</pdfrwt>
<totfact> 0.65011792E+04</totfact>
</mgrwt>
</event>
<event>
 7    0  0.4685107E-002  0.4530590E+03  0.7546771E-02  0.1026814E+00
         21   -1    0    0  502  501  0.00000000000E+00  0.00000000000E+00  0.91379442585E+02  0.91379442585E+02  0.00000000000E+00 0. -1.
         21   -1    0    0  501  502 -0.00000000000E+00 -0.00000000000E+00 -0.56156639200E+03  0.56156639200E+03  0.00000000000E+00 0. -1.
      99926    2    1    2    0    0  0.00000000000E+00  0.14210854715E-13 -0.47018694942E+03  0.65294583459E+03  0.45305904196E+03 0.  0.
      99925    2    3    3    0    0  0.69345347958E+02  0.77207609586E+02 -0.35490653060E+03  0.45367999375E+03  0.26286327055E+03 0.  0.
         25    1    4    4    0    0  0.62251517407E+02  0.10851287518E+02 -0.19221114580E+03  0.23787735187E+03  0.12509000000E+03 0.  0.
         25    1    3    3    0    0 -0.69345347958E+02 -0.77207609586E+02 -0.11528041882E+03  0.19926584084E+03  0.12509000000E+03 0.  0.
         25    1    4    4    0    0  0.70938305503E+01  0.66356322068E+02 -0.16269538479E+03  0.21580264188E+03  0.12509000000E+03 0.  0.
<mgrwt>
<rscale>  2 0.45305904E+03</rscale>
<asrwt>0</asrwt>
<pdfrwt beam="1">  1       21 0.13438153E-01 0.45305904E+03</pdfrwt>
<pdfrwt beam="2">  1       21 0.82583292E-01 0.45305904E+03</pdfrwt>
<totfact> 0.56390516E+04</totfact>
</mgrwt>
</event>
<event>
 7    0  0.4685107E-002  0.4532814E+03  0.7546771E-02  0.1026748E+00
         21   -1    0    0  502  501  0.00000000000E+00  0.00000000000E+00  0.14016351684E+04  0.14016351684E+04  0.00000000000E+00 0.  1.
         21   -1    0    0  501  502 -0.00000000000E+00 -0.00000000000E+00 -0.36647194183E+02  0.36647194183E+02  0.00000000000E+00 0.  1.
      99926    2    1    2    0    0 -0.66613381478E-15  0.00000000000E+00  0.13649879742E+04  0.14382823626E+04  0.45328135276E+03 0.  0.
      99925    2    3    3    0    0  0.98628962703E+00 -0.11107603539E+03  0.89129839035E+03  0.93591975612E+03  0.26304773493E+03 0.  0.
         25    1    4    4    0    0  0.34716248066E+02 -0.32004509147E+02  0.42649606797E+03  0.44696298569E+03  0.12509000000E+03 0.  0.
         25    1    4    4    0    0 -0.33729958439E+02 -0.79071526248E+02  0.46480232238E+03  0.48895677043E+03  0.12509000000E+03 0.  0.
         25    1    3    3    0    0 -0.98628962703E+00  0.11107603539E+03  0.47368958387E+03  0.50236260647E+03  0.12509000000E+03 0.  0.
<mgrwt>
<rscale>  2 0.45328135E+03</rscale>
<asrwt>0</asrwt>
<pdfrwt beam="1">  1       21 0.20612278E+00 0.45328135E+03</pdfrwt>
<pdfrwt beam="2">  1       21 0.53892942E-02 0.45328135E+03</pdfrwt>
<totfact> 0.25670579E+04</totfact>
</mgrwt>
</event>
<event>
 7    0  0.4685107E-002  0.4536821E+03  0.7546771E-02  0.1026630E+00
         21   -1    0    0  502  501  0.00000000000E+00  0.00000000000E+00  0.26502818293E+03  0.26502818293E+03  0.00000000000E+00 0. -1.
         21   -1    0    0  501  502 -0.00000000000E+00 -0.00000000000E+00 -0.19415622714E+03  0.19415622714E+03  0.00000000000E+00 0. -1.
      99926    2    1    2    0    0  0.00000000000E+00 -0.71054273576E-14  0.70871955784E+02  0.45918441007E+03  0.45368214461E+03 0.  0.
      99925    2    3    3    0    0 -0.79692019028E+02 -0.44886212665E+02  0.10965593446E+03  0.29944307201E+03  0.26320360831E+03 0.  0.
         25    1    4    4    0    0 -0.34559209011E+02 -0.47734900758E+02  0.89997051629E+02  0.16498465710E+03  0.12509000000E+03 0.  0.
         25    1    3    3    0    0  0.79692019028E+02  0.44886212665E+02 -0.38783978679E+02  0.15974133806E+03  0.12509000000E+03 0.  0.
         25    1    4    4    0    0 -0.45132810017E+02  0.28486880931E+01  0.19658882835E+02  0.13445841490E+03  0.12509000000E+03 0.  0.
<mgrwt>
<rscale>  2 0.45368214E+03</rscale>
<asrwt>0</asrwt>
<pdfrwt beam="1">  1       21 0.38974733E-01 0.45368214E+03</pdfrwt>
<pdfrwt beam="2">  1       21 0.28552386E-01 0.45368214E+03</pdfrwt>
<totfact> 0.68961928E+04</totfact>
</mgrwt>
</event>
<event>
 7    0  0.4685107E-002  0.4508307E+03  0.7546771E-02  0.1027475E+00
         21   -1    0    0  502  501  0.00000000000E+00  0.00000000000E+00  0.35886061035E+03  0.35886061035E+03  0.00000000000E+00 0. -1.
         21   -1    0    0  501  502 -0.00000000000E+00 -0.00000000000E+00 -0.14159277284E+03  0.14159277284E+03  0.00000000000E+00 0. -1.
      99926    2    1    2    0    0  0.14210854715E-13  0.00000000000E+00  0.21726783752E+03  0.50045338319E+03  0.45083065061E+03 0.  0.
      99925    2    3    3    0    0 -0.70969880435E+02  0.82584615927E+02  0.13102360310E+03  0.31352420198E+03  0.26319821037E+03 0.  0.
         25    1    3    3    0    0  0.70969880435E+02 -0.82584615927E+02  0.86244234422E+02  0.18692918121E+03  0.12509000000E+03 0.  0.
         25    1    4    4    0    0 -0.65609786083E+02  0.71841215219E+02  0.62151597795E+02  0.17022377461E+03  0.12509000000E+03 0.  0.
         25    1    4    4    0    0 -0.53600943524E+01  0.10743400707E+02  0.68872005302E+02  0.14330042737E+03  0.12509000000E+03 0.  0.
<mgrwt>
<rscale>  2 0.45083065E+03</rscale>
<asrwt>0</asrwt>
<pdfrwt beam="1">  1       21 0.52773619E-01 0.45083065E+03</pdfrwt>
<pdfrwt beam="2">  1       21 0.20822467E-01 0.45083065E+03</pdfrwt>
<totfact> 0.67443362E+04</totfact>
</mgrwt>
</event>
<event>
 7    0  0.4685107E-002  0.4596487E+03  0.7546771E-02  0.1024883E+00
         21   -1    0    0  502  501  0.00000000000E+00  0.00000000000E+00  0.25988216448E+03  0.25988216448E+03  0.00000000000E+00 0. -1.
         21   -1    0    0  501  502 -0.00000000000E+00 -0.00000000000E+00 -0.20324297333E+03  0.20324297333E+03  0.00000000000E+00 0. -1.
      99926    2    1    2    0    0 -0.14210854715E-13  0.00000000000E+00  0.56639191147E+02  0.46312513781E+03  0.45964866507E+03 0.  0.
      99925    2    3    3    0    0  0.55629423119E+02  0.21316410614E+02  0.13757533786E+03  0.30266582826E+03  0.26292700115E+03 0.  0.
         25    1    3    3    0    0 -0.55629423119E+02 -0.21316410614E+02 -0.80936146712E+02  0.16045930955E+03  0.12509000000E+03 0.  0.
         25    1    4    4    0    0  0.68896257178E+02  0.11251779053E+02  0.78127683124E+02  0.16317089126E+03  0.12509000000E+03 0.  0.
         25    1    4    4    0    0 -0.13266834060E+02  0.10064631560E+02  0.59447654735E+02  0.13949493700E+03  0.12509000000E+03 0.  0.
<mgrwt>
<rscale>  2 0.45964867E+03</rscale>
<asrwt>0</asrwt>
<pdfrwt beam="1">  1       21 0.38217965E-01 0.45964867E+03</pdfrwt>
<pdfrwt beam="2">  1       21 0.29888673E-01 0.45964867E+03</pdfrwt>
<totfact> 0.65491541E+04</totfact>
</mgrwt>
</event>
<event>
 7    0  0.4685107E-002  0.4613294E+03  0.7546771E-02  0.1024396E+00
         21   -1    0    0  502  501  0.00000000000E+00  0.00000000000E+00  0.11994284969E+03  0.11994284969E+03  0.00000000000E+00 0.  1.
         21   -1    0    0  501  502 -0.00000000000E+00 -0.00000000000E+00 -0.44359636992E+03  0.44359636992E+03  0.00000000000E+00 0.  1.
      99926    2    1    2    0    0  0.00000000000E+00 -0.17763568394E-14 -0.32365352023E+03  0.56353921962E+03  0.46132943857E+03 0.  0.
      99925    2    3    3    0    0  0.44458507571E+02 -0.15531513120E+02 -0.33605572696E+03  0.42930394248E+03  0.26296508630E+03 0.  0.
         25    1    3    3    0    0 -0.44458507571E+02  0.15531513120E+02  0.12402206730E+02  0.13423527713E+03  0.12509000000E+03 0.  0.
         25    1    4    4    0    0 -0.87751850762E+01 -0.53724731201E+01 -0.11880820662E+03  0.17282582388E+03  0.12509000000E+03 0.  0.
         25    1    4    4    0    0  0.53233692647E+02 -0.10159040000E+02 -0.21724752035E+03  0.25647811860E+03  0.12509000000E+03 0.  0.
<mgrwt>
<rscale>  2 0.46132944E+03</rscale>
<asrwt>0</asrwt>
<pdfrwt beam="1">  1       21 0.17638654E-01 0.46132944E+03</pdfrwt>
<pdfrwt beam="2">  1       21 0.65234761E-01 0.46132944E+03</pdfrwt>
<totfact> 0.58020973E+04</totfact>
</mgrwt>
</event>
<event>
 7    0  0.4685107E-002  0.4624277E+03  0.7546771E-02  0.1024079E+00
         21   -1    0    0  502  501  0.00000000000E+00  0.00000000000E+00  0.26068926406E+03  0.26068926406E+03  0.00000000000E+00 0.  1.
         21   -1    0    0  501  502 -0.00000000000E+00 -0.00000000000E+00 -0.20507117008E+03  0.20507117008E+03  0.00000000000E+00 0.  1.
      99926    2    1    2    0    0  0.00000000000E+00  0.00000000000E+00  0.55618093979E+02  0.46576043414E+03  0.46242773450E+03 0.  0.
      99925    2    3    3    0    0  0.75169432522E+02  0.92651952702E+02  0.24288955233E+02  0.29007932827E+03  0.26328926187E+03 0.  0.
         25    1    3    3    0    0 -0.75169432522E+02 -0.92651952702E+02  0.31329138745E+02  0.17568110587E+03  0.12509000000E+03 0.  0.
         25    1    4    4    0    0  0.94461295148E+01  0.75148455041E+02  0.20332572564E+02  0.14763956538E+03  0.12509000000E+03 0.  0.
         25    1    4    4    0    0  0.65723303007E+02  0.17503497660E+02  0.39563826694E+01  0.14243976289E+03  0.12509000000E+03 0.  0.
<mgrwt>
<rscale>  2 0.46242773E+03</rscale>
<asrwt>0</asrwt>
<pdfrwt beam="1">  1       21 0.38336657E-01 0.46242773E+03</pdfrwt>
<pdfrwt beam="2">  1       21 0.30157525E-01 0.46242773E+03</pdfrwt>
<totfact> 0.63893255E+04</totfact>
</mgrwt>
</event>
<event>
 7    0  0.4685107E-002  0.4555318E+03  0.7546771E-02  0.1026085E+00
         21   -1    0    0  502  501  0.00000000000E+00  0.00000000000E+00  0.12013782273E+03  0.12013782273E+03  0.00000000000E+00 0. -1.
         21   -1    0    0  501  502 -0.00000000000E+00 -0.00000000000E+00 -0.43181496716E+03  0.43181496716E+03  0.00000000000E+00 0. -1.
      99926    2    1    2    0    0 -0.13322676296E-14  0.71054273576E-14 -0.31167714443E+03  0.55195278988E+03  0.45553182095E+03 0.  0.
      99925    2    3    3    0    0  0.33207545887E+01 -0.44584229854E+02 -0.69414595373E+02  0.27566049586E+03  0.26300483259E+03 0.  0.
         25    1    3    3    0    0 -0.33207545887E+01  0.44584229854E+02 -0.24226254906E+03  0.27629229403E+03  0.12509000000E+03 0.  0.
         25    1    4    4    0    0 -0.98715584927E+01  0.83366179541E+01 -0.79861889335E+01  0.12600886548E+03  0.12509000000E+03 0.  0.
         25    1    4    4    0    0  0.13192313081E+02 -0.52920847808E+02 -0.61428406439E+02  0.14965163038E+03  0.12509000000E+03 0.  0.
<mgrwt>
<rscale>  2 0.45553182E+03</rscale>
<asrwt>0</asrwt>
<pdfrwt beam="1">  1       21 0.17667327E-01 0.45553182E+03</pdfrwt>
<pdfrwt beam="2">  1       21 0.63502200E-01 0.45553182E+03</pdfrwt>
<totfact> 0.61478574E+04</totfact>
</mgrwt>
</event>
<event>
 7    0  0.4685107E-002  0.4553335E+03  0.7546771E-02  0.1026143E+00
         21   -1    0    0  502  501  0.00000000000E+00  0.00000000000E+00  0.73511616127E+03  0.73511616127E+03  0.00000000000E+00 0.  1.
         21   -1    0    0  501  502 -0.00000000000E+00 -0.00000000000E+00 -0.70508772256E+02  0.70508772256E+02  0.00000000000E+00 0.  1.
      99926    2    1    2    0    0  0.00000000000E+00 -0.35527136788E-14  0.66460738902E+03  0.80562493353E+03  0.45533345143E+03 0.  0.
      99925    2    3    3    0    0  0.34312437857E+01 -0.19803729273E+02  0.22040531375E+03  0.34370832537E+03  0.26296948391E+03 0.  0.
         25    1    4    4    0    0 -0.27823959388E+02  0.13185275831E+02  0.12860588346E+03  0.18203023259E+03  0.12509000000E+03 0.  0.
         25    1    4    4    0    0  0.31255203173E+02 -0.32989005104E+02  0.91799430289E+02  0.16167809278E+03  0.12509000000E+03 0.  0.
         25    1    3    3    0    0 -0.34312437857E+01  0.19803729273E+02  0.44420207526E+03  0.46191660816E+03  0.12509000000E+03 0.  0.
<mgrwt>
<rscale>  2 0.45533345E+03</rscale>
<asrwt>0</asrwt>
<pdfrwt beam="1">  1       21 0.10810531E+00 0.45533345E+03</pdfrwt>
<pdfrwt beam="2">  1       21 0.10368938E-01 0.45533345E+03</pdfrwt>
<totfact> 0.47369862E+04</totfact>
</mgrwt>
</event>
<event>
 7    0  0.4685107E-002  0.4573310E+03  0.7546771E-02  0.1025558E+00
         21   -1    0    0  502  501  0.00000000000E+00  0.00000000000E+00  0.37371369193E+03  0.37371369193E+03  0.00000000000E+00 0.  1.
         21   -1    0    0  501  502 -0.00000000000E+00 -0.00000000000E+00 -0.13991433226E+03  0.13991433226E+03  0.00000000000E+00 0.  1.
      99926    2    1    2    0    0  0.00000000000E+00  0.00000000000E+00  0.23379935967E+03  0.51362802419E+03  0.45733095964E+03 0.  0.
      99925    2    3    3    0    0 -0.62292164993E+02  0.58368164034E+02  0.23396164509E+03  0.36218598633E+03  0.26297049442E+03 0.  0.
         25    1    3    3    0    0  0.62292164993E+02 -0.58368164034E+02 -0.16228541125E+00  0.15144203785E+03  0.12509000000E+03 0.  0.
         25    1    4    4    0    0 -0.21951852054E+02  0.38809008600E+02  0.66829294141E+02  0.14866635669E+03  0.12509000000E+03 0.  0.
         25    1    4    4    0    0 -0.40340312939E+02  0.19559155433E+02  0.16713235094E+03  0.21351962964E+03  0.12509000000E+03 0.  0.
<mgrwt>
<rscale>  2 0.45733096E+03</rscale>
<asrwt>0</asrwt>
<pdfrwt beam="1">  1       21 0.54957896E-01 0.45733096E+03</pdfrwt>
<pdfrwt beam="2">  1       21 0.20575637E-01 0.45733096E+03</pdfrwt>
<totfact> 0.63147266E+04</totfact>
</mgrwt>
</event>
<event>
 7    0  0.4685107E-002  0.4564629E+03  0.7546771E-02  0.1025812E+00
         21   -1    0    0  502  501  0.00000000000E+00  0.00000000000E+00  0.75972216073E+03  0.75972216073E+03  0.00000000000E+00 0.  1.
         21   -1    0    0  501  502 -0.00000000000E+00 -0.00000000000E+00 -0.68563999513E+02  0.68563999513E+02  0.00000000000E+00 0.  1.
      99926    2    1    2    0    0  0.00000000000E+00  0.71054273576E-14  0.69115816121E+03  0.82828616024E+03  0.45646287848E+03 0.  0.
      99925    2    3    3    0    0 -0.88545222105E+02 -0.62435373598E+02  0.37315769142E+03  0.46980291221E+03  0.26406378285E+03 0.  0.
         25    1    4    4    0    0 -0.51291281321E+02  0.17221283783E+01  0.22279737629E+03  0.26061454343E+03  0.12509000000E+03 0.  0.
         25    1    3    3    0    0  0.88545222105E+02  0.62435373598E+02  0.31800046979E+03  0.35848324803E+03  0.12509000000E+03 0.  0.
         25    1    4    4    0    0 -0.37253940785E+02 -0.64157501976E+02  0.15036031513E+03  0.20918836877E+03  0.12509000000E+03 0.  0.
<mgrwt>
<rscale>  2 0.45646288E+03</rscale>
<asrwt>0</asrwt>
<pdfrwt beam="1">  1       21 0.11172384E+00 0.45646288E+03</pdfrwt>
<pdfrwt beam="2">  1       21 0.10082942E-01 0.45646288E+03</pdfrwt>
<totfact> 0.45897795E+04</totfact>
</mgrwt>
</event>
<event>
 7    0  0.4685107E-002  0.4543942E+03  0.7546771E-02  0.1026420E+00
         21   -1    0    0  502  501  0.00000000000E+00  0.00000000000E+00  0.18464646942E+03  0.18464646942E+03  0.00000000000E+00 0.  1.
         21   -1    0    0  501  502 -0.00000000000E+00 -0.00000000000E+00 -0.27955320746E+03  0.27955320746E+03  0.00000000000E+00 0.  1.
      99926    2    1    2    0    0  0.14210854715E-13  0.00000000000E+00 -0.94906738038E+02  0.46419967688E+03  0.45439415829E+03 0.  0.
      99925    2    3    3    0    0  0.10434181258E+03 -0.14456947563E+02 -0.10033308864E+03  0.30057458538E+03  0.26302497128E+03 0.  0.
         25    1    4    4    0    0  0.87357309803E+02 -0.60763798963E+01 -0.80172596817E+02  0.17246267813E+03  0.12509000000E+03 0.  0.
         25    1    3    3    0    0 -0.10434181258E+03  0.14456947563E+02  0.54263506014E+01  0.16362509149E+03  0.12509000000E+03 0.  0.
         25    1    4    4    0    0  0.16984502778E+02 -0.83805676670E+01 -0.20160491823E+02  0.12811190725E+03  0.12509000000E+03 0.  0.
<mgrwt>
<rscale>  2 0.45439416E+03</rscale>
<asrwt>0</asrwt>
<pdfrwt beam="1">  1       21 0.27153893E-01 0.45439416E+03</pdfrwt>
<pdfrwt beam="2">  1       21 0.41110766E-01 0.45439416E+03</pdfrwt>
<totfact> 0.68197450E+04</totfact>
</mgrwt>
</event>
<event>
 7    0  0.4685107E-002  0.4561451E+03  0.7546771E-02  0.1025905E+00
         21   -1    0    0  502  501  0.00000000000E+00  0.00000000000E+00  0.10817202927E+03  0.10817202927E+03  0.00000000000E+00 0. -1.
         21   -1    0    0  501  502 -0.00000000000E+00 -0.00000000000E+00 -0.48087371424E+03  0.48087371424E+03  0.00000000000E+00 0. -1.
      99926    2    1    2    0    0 -0.22204460493E-15 -0.71054273576E-14 -0.37270168497E+03  0.58904574351E+03  0.45614508873E+03 0.  0.
      99925    2    3    3    0    0 -0.19976566684E+01 -0.36363909215E+02 -0.37421712055E+03  0.45875326802E+03  0.26284935435E+03 0.  0.
         25    1    4    4    0    0 -0.37826772740E+01 -0.58773715820E+02 -0.19356520766E+03  0.23787319318E+03  0.12509000000E+03 0.  0.
         25    1    4    4    0    0  0.17850206057E+01  0.22409806605E+02 -0.18065191288E+03  0.22088007484E+03  0.12509000000E+03 0.  0.
         25    1    3    3    0    0  0.19976566684E+01  0.36363909215E+02  0.15154355751E+01  0.13029247549E+03  0.12509000000E+03 0.  0.
<mgrwt>
<rscale>  2 0.45614509E+03</rscale>
<asrwt>0</asrwt>
<pdfrwt beam="1">  1       21 0.15907652E-01 0.45614509E+03</pdfrwt>
<pdfrwt beam="2">  1       21 0.70716721E-01 0.45614509E+03</pdfrwt>
<totfact> 0.58823453E+04</totfact>
</mgrwt>
</event>
<event>
 7    0  0.4685107E-002  0.4396942E+03  0.7546771E-02  0.1030841E+00
         21   -1    0    0  502  501  0.00000000000E+00  0.00000000000E+00  0.57636431259E+03  0.57636431259E+03  0.00000000000E+00 0.  1.
         21   -1    0    0  501  502 -0.00000000000E+00 -0.00000000000E+00 -0.83857977261E+02  0.83857977261E+02  0.00000000000E+00 0.  1.
      99926    2    1    2    0    0 -0.71054273576E-14  0.28865798640E-14  0.49250633532E+03  0.66022228985E+03  0.43969419109E+03 0.  0.
      99925    2    3    3    0    0 -0.58828850574E+02 -0.17702995362E+01  0.43093981835E+03  0.50888851393E+03  0.26418634513E+03 0.  0.
         25    1    4    4    0    0 -0.42728694679E+02  0.29081593298E+02  0.16885854714E+03  0.21640748014E+03  0.12509000000E+03 0.  0.
         25    1    4    4    0    0 -0.16100155895E+02 -0.30851892834E+02  0.26208127121E+03  0.29248103379E+03  0.12509000000E+03 0.  0.
         25    1    3    3    0    0  0.58828850574E+02  0.17702995362E+01  0.61566516978E+02  0.15133377592E+03  0.12509000000E+03 0.  0.
<mgrwt>
<rscale>  2 0.43969419E+03</rscale>
<asrwt>0</asrwt>
<pdfrwt beam="1">  1       21 0.84759456E-01 0.43969419E+03</pdfrwt>
<pdfrwt beam="2">  1       21 0.12332056E-01 0.43969419E+03</pdfrwt>
<totfact> 0.62297334E+04</totfact>
</mgrwt>
</event>
<event>
 7    0  0.4685107E-002  0.4579183E+03  0.7546771E-02  0.1025387E+00
         21   -1    0    0  502  501  0.00000000000E+00  0.00000000000E+00  0.11965926485E+03  0.11965926485E+03  0.00000000000E+00 0. -1.
         21   -1    0    0  501  502 -0.00000000000E+00 -0.00000000000E+00 -0.43809645688E+03  0.43809645688E+03  0.00000000000E+00 0. -1.
      99926    2    1    2    0    0 -0.14210854715E-13 -0.14210854715E-13 -0.31843719204E+03  0.55775572173E+03  0.45791833317E+03 0.  0.
      99925    2    3    3    0    0  0.73595803159E+02  0.85835789954E+02 -0.16870894960E+03  0.33225587747E+03  0.26295842515E+03 0.  0.
         25    1    4    4    0    0  0.57930251849E+01  0.15156696298E+02 -0.90011122172E+02  0.15496062338E+03  0.12509000000E+03 0.  0.
         25    1    4    4    0    0  0.67802777974E+02  0.70679093657E+02 -0.78697827432E+02  0.17729525409E+03  0.12509000000E+03 0.  0.
         25    1    3    3    0    0 -0.73595803159E+02 -0.85835789954E+02 -0.14972824243E+03  0.22549984426E+03  0.12509000000E+03 0.  0.
<mgrwt>
<rscale>  2 0.45791833E+03</rscale>
<asrwt>0</asrwt>
<pdfrwt beam="1">  1       21 0.17596951E-01 0.45791833E+03</pdfrwt>
<pdfrwt beam="2">  1       21 0.64425948E-01 0.45791833E+03</pdfrwt>
<totfact> 0.59960663E+04</totfact>
</mgrwt>
</event>
<event>
 7    0  0.4685107E-002  0.4414997E+03  0.7546771E-02  0.1030288E+00
         21   -1    0    0  502  501  0.00000000000E+00  0.00000000000E+00  0.87877954312E+02  0.87877954312E+02  0.00000000000E+00 0.  1.
         21   -1    0    0  501  502 -0.00000000000E+00 -0.00000000000E+00 -0.55452482164E+03  0.55452482164E+03  0.00000000000E+00 0.  1.
      99926    2    1    2    0    0  0.00000000000E+00  0.00000000000E+00 -0.46664686732E+03  0.64240277595E+03  0.44149974831E+03 0.  0.
      99925    2    3    3    0    0 -0.69109776035E+02 -0.59292139667E+02 -0.23712297369E+03  0.36559879328E+03  0.26295142903E+03 0.  0.
         25    1    4    4    0    0 -0.68581527960E+01 -0.37246779480E+02 -0.75976303866E+02  0.15117626696E+03  0.12509000000E+03 0.  0.
         25    1    3    3    0    0  0.69109776035E+02  0.59292139667E+02 -0.22952389364E+03  0.27680398267E+03  0.12509000000E+03 0.  0.
         25    1    4    4    0    0 -0.62251623239E+02 -0.22045360187E+02 -0.16114666982E+03  0.21442252633E+03  0.12509000000E+03 0.  0.
<mgrwt>
<rscale>  2 0.44149975E+03</rscale>
<asrwt>0</asrwt>
<pdfrwt beam="1">  1       21 0.12923228E-01 0.44149975E+03</pdfrwt>
<pdfrwt beam="2">  1       21 0.81547771E-01 0.44149975E+03</pdfrwt>
<totfact> 0.62541565E+04</totfact>
</mgrwt>
</event>
<event>
 7    0  0.4685107E-002  0.4507399E+03  0.7546771E-02  0.1027502E+00
         21   -1    0    0  502  501  0.00000000000E+00  0.00000000000E+00  0.36453077636E+02  0.36453077636E+02  0.00000000000E+00 0.  1.
         21   -1    0    0  501  502 -0.00000000000E+00 -0.00000000000E+00 -0.13933421776E+04  0.13933421776E+04  0.00000000000E+00 0.  1.
      99926    2    1    2    0    0  0.17763568394E-14  0.14210854715E-13 -0.13568890999E+04  0.14297952552E+04  0.45073988318E+03 0.  0.
      99925    2    3    3    0    0 -0.14837484848E+02 -0.97403863651E+02 -0.10062340285E+04  0.10446794923E+04  0.26294611222E+03 0.  0.
         25    1    4    4    0    0 -0.71987641934E+01 -0.70880495224E+02 -0.40151282327E+03  0.42653947316E+03  0.12509000000E+03 0.  0.
         25    1    4    4    0    0 -0.76387206545E+01 -0.26523368427E+02 -0.60472120518E+03  0.61814001911E+03  0.12509000000E+03 0.  0.
         25    1    3    3    0    0  0.14837484848E+02  0.97403863651E+02 -0.35065507148E+03  0.38511576294E+03  0.12509000000E+03 0.  0.
<mgrwt>
<rscale>  2 0.45073988E+03</rscale>
<asrwt>0</asrwt>
<pdfrwt beam="1">  1       21 0.53607471E-02 0.45073988E+03</pdfrwt>
<pdfrwt beam="2">  1       21 0.20490325E+00 0.45073988E+03</pdfrwt>
<totfact> 0.26412284E+04</totfact>
</mgrwt>
</event>
<event>
 7    0  0.4685107E-002  0.4560956E+03  0.7546771E-02  0.1025920E+00
         21   -1    0    0  502  501  0.00000000000E+00  0.00000000000E+00  0.12809729667E+03  0.12809729667E+03  0.00000000000E+00 0. -1.
         21   -1    0    0  501  502 -0.00000000000E+00 -0.00000000000E+00 -0.40598677994E+03  0.40598677994E+03  0.00000000000E+00 0. -1.
      99926    2    1    2    0    0  0.00000000000E+00  0.00000000000E+00 -0.27788948327E+03  0.53408407662E+03  0.45609564346E+03 0.  0.
      99925    2    3    3    0    0 -0.98794751027E+02  0.24265969776E+02 -0.23568968677E+03  0.36741803015E+03  0.26286334912E+03 0.  0.
         25    1    4    4    0    0 -0.23401914393E+02  0.39472232887E+02 -0.13277366757E+03  0.18810120060E+03  0.12509000000E+03 0.  0.
         25    1    3    3    0    0  0.98794751027E+02 -0.24265969776E+02 -0.42199796502E+02  0.16666604647E+03  0.12509000000E+03 0.  0.
         25    1    4    4    0    0 -0.75392836633E+02 -0.15206263111E+02 -0.10291601920E+03  0.17931682956E+03  0.12509000000E+03 0.  0.
<mgrwt>
<rscale>  2 0.45609564E+03</rscale>
<asrwt>0</asrwt>
<pdfrwt beam="1">  1       21 0.18837837E-01 0.45609564E+03</pdfrwt>
<pdfrwt beam="2">  1       21 0.59703940E-01 0.45609564E+03</pdfrwt>
<totfact> 0.62387357E+04</totfact>
</mgrwt>
</event>
<event>
 7    0  0.4685107E-002  0.4525831E+03  0.7546771E-02  0.1026955E+00
         21   -1    0    0  502  501  0.00000000000E+00  0.00000000000E+00  0.16858326266E+04  0.16858326266E+04  0.00000000000E+00 0.  1.
         21   -1    0    0  501  502 -0.00000000000E+00 -0.00000000000E+00 -0.30375421338E+02  0.30375421338E+02  0.00000000000E+00 0.  1.
      99926    2    1    2    0    0  0.17763568394E-14  0.00000000000E+00  0.16554572053E+04  0.17162080480E+04  0.45258314746E+03 0.  0.
      99925    2    3    3    0    0 -0.14487773464E+02  0.32699886396E+02  0.14416832567E+04  0.14659562001E+04  0.26324473387E+03 0.  0.
         25    1    4    4    0    0 -0.95615923642E+00  0.23358285178E+02  0.94359540036E+03  0.95213775863E+03  0.12509000000E+03 0.  0.
         25    1    3    3    0    0  0.14487773464E+02 -0.32699886396E+02  0.21377394863E+03  0.25025184787E+03  0.12509000000E+03 0.  0.
         25    1    4    4    0    0 -0.13531614228E+02  0.93416012185E+01  0.49808785632E+03  0.51381844149E+03  0.12509000000E+03 0.  0.
<mgrwt>
<rscale>  2 0.45258315E+03</rscale>
<asrwt>0</asrwt>
<pdfrwt beam="1">  1       21 0.24791650E+00 0.45258315E+03</pdfrwt>
<pdfrwt beam="2">  1       21 0.44669749E-02 0.45258315E+03</pdfrwt>
<totfact> 0.19285783E+04</totfact>
</mgrwt>
</event>
<event>
 7    0  0.4685107E-002  0.4586319E+03  0.7546771E-02  0.1025179E+00
         21   -1    0    0  502  501  0.00000000000E+00  0.00000000000E+00  0.27533323384E+04  0.27533323384E+04  0.00000000000E+00 0. -1.
         21   -1    0    0  501  502 -0.00000000000E+00 -0.00000000000E+00 -0.19098969948E+02  0.19098969948E+02  0.00000000000E+00 0. -1.
      99926    2    1    2    0    0  0.00000000000E+00  0.00000000000E+00  0.27342333684E+04  0.27724313083E+04  0.45863192905E+03 0.  0.
      99925    2    3    3    0    0 -0.11214332845E+03  0.29147689000E+02  0.16422073541E+04  0.16671738551E+04  0.26305504233E+03 0.  0.
         25    1    4    4    0    0 -0.93573991011E+02  0.37605784023E+02  0.90806714762E+03  0.92217337820E+03  0.12509000000E+03 0.  0.
         25    1    3    3    0    0  0.11214332845E+03 -0.29147689000E+02  0.10920260143E+04  0.11052574532E+04  0.12509000000E+03 0.  0.
         25    1    4    4    0    0 -0.18569337441E+02 -0.84580950239E+01  0.73414020649E+03  0.74500047688E+03  0.12509000000E+03 0.  0.
<mgrwt>
<rscale>  2 0.45863193E+03</rscale>
<asrwt>0</asrwt>
<pdfrwt beam="1">  1       21 0.40490154E+00 0.45863193E+03</pdfrwt>
<pdfrwt beam="2">  1       21 0.28086740E-02 0.45863193E+03</pdfrwt>
<totfact> 0.45957367E+03</totfact>
</mgrwt>
</event>
<event>
 7    0  0.4685107E-002  0.4604641E+03  0.7546771E-02  0.1024647E+00
         21   -1    0    0  502  501  0.00000000000E+00  0.00000000000E+00  0.81408529668E+02  0.81408529668E+02  0.00000000000E+00 0.  1.
         21   -1    0    0  501  502 -0.00000000000E+00 -0.00000000000E+00 -0.65112094736E+03  0.65112094736E+03  0.00000000000E+00 0.  1.
      99926    2    1    2    0    0  0.00000000000E+00 -0.71054273576E-14 -0.56971241769E+03  0.73252947703E+03  0.46046410918E+03 0.  0.
      99925    2    3    3    0    0  0.98325405792E+02 -0.40454254815E+02 -0.43895243084E+03  0.52264828583E+03  0.26301627703E+03 0.  0.
         25    1    3    3    0    0 -0.98325405792E+02  0.40454254815E+02 -0.13075998685E+03  0.20988119120E+03  0.12509000000E+03 0.  0.
         25    1    4    4    0    0  0.46322435273E+02 -0.60967746944E+02 -0.22973552977E+03  0.27255963735E+03  0.12509000000E+03 0.  0.
         25    1    4    4    0    0  0.52002970519E+02  0.20513492129E+02 -0.20921690107E+03  0.25008864848E+03  0.12509000000E+03 0.  0.
<mgrwt>
<rscale>  2 0.46046411E+03</rscale>
<asrwt>0</asrwt>
<pdfrwt beam="1">  1       21 0.11971843E-01 0.46046411E+03</pdfrwt>
<pdfrwt beam="2">  1       21 0.95753079E-01 0.46046411E+03</pdfrwt>
<totfact> 0.49031352E+04</totfact>
</mgrwt>
</event>
<event>
 7    0  0.4685107E-002  0.4507599E+03  0.7546771E-02  0.1027496E+00
         21   -1    0    0  502  501  0.00000000000E+00  0.00000000000E+00  0.64586236279E+03  0.64586236279E+03  0.00000000000E+00 0. -1.
         21   -1    0    0  501  502 -0.00000000000E+00 -0.00000000000E+00 -0.78648518663E+02  0.78648518663E+02  0.00000000000E+00 0. -1.
      99926    2    1    2    0    0  0.13322676296E-14 -0.35527136788E-14  0.56721384413E+03  0.72451088145E+03  0.45075988328E+03 0.  0.
      99925    2    3    3    0    0 -0.32309657853E+01 -0.30552396829E+02  0.18979959799E+03  0.32572157696E+03  0.26291970297E+03 0.  0.
         25    1    4    4    0    0 -0.22603915290E+02  0.12059549657E+02  0.66578878540E+02  0.14400216975E+03  0.12509000000E+03 0.  0.
         25    1    3    3    0    0  0.32309657853E+01  0.30552396829E+02  0.37741424613E+03  0.39878930449E+03  0.12509000000E+03 0.  0.
         25    1    4    4    0    0  0.19372949504E+02 -0.42611946485E+02  0.12322071946E+03  0.18171940722E+03  0.12509000000E+03 0.  0.
<mgrwt>
<rscale>  2 0.45075988E+03</rscale>
<asrwt>0</asrwt>
<pdfrwt beam="1">  1       21 0.94979757E-01 0.45075988E+03</pdfrwt>
<pdfrwt beam="2">  1       21 0.11565959E-01 0.45075988E+03</pdfrwt>
<totfact> 0.53349233E+04</totfact>
</mgrwt>
</event>
<event>
 7    0  0.4685107E-002  0.4390250E+03  0.7546771E-02  0.1031046E+00
         21   -1    0    0  502  501  0.00000000000E+00  0.00000000000E+00  0.41395411223E+02  0.41395411223E+02  0.00000000000E+00 0.  1.
         21   -1    0    0  501  502 -0.00000000000E+00 -0.00000000000E+00 -0.11640355201E+04  0.11640355201E+04  0.00000000000E+00 0.  1.
      99926    2    1    2    0    0  0.00000000000E+00 -0.35527136788E-14 -0.11226401089E+04  0.12054309314E+04  0.43902496072E+03 0.  0.
      99925    2    3    3    0    0  0.57449876667E+02  0.14523173811E+02 -0.92926270979E+03  0.96762063406E+03  0.26315223115E+03 0.  0.
         25    1    4    4    0    0  0.20267695027E+02 -0.31297770199E+02 -0.41174121257E+03  0.43193594908E+03  0.12509000000E+03 0.  0.
         25    1    3    3    0    0 -0.57449876667E+02 -0.14523173811E+02 -0.19337739912E+03  0.23781029729E+03  0.12509000000E+03 0.  0.
         25    1    4    4    0    0  0.37182181639E+02  0.45820944010E+02 -0.51752149722E+03  0.53568468498E+03  0.12509000000E+03 0.  0.
<mgrwt>
<rscale>  2 0.43902496E+03</rscale>
<asrwt>0</asrwt>
<pdfrwt beam="1">  1       21 0.60875598E-02 0.43902496E+03</pdfrwt>
<pdfrwt beam="2">  1       21 0.17118171E+00 0.43902496E+03</pdfrwt>
<totfact> 0.36294425E+04</totfact>
</mgrwt>
</event>
<event>
 7    0  0.4685107E-002  0.4517302E+03  0.7546771E-02  0.1027207E+00
         21   -1    0    0  502  501  0.00000000000E+00  0.00000000000E+00  0.23561406648E+03  0.23561406648E+03  0.00000000000E+00 0.  1.
         21   -1    0    0  501  502 -0.00000000000E+00 -0.00000000000E+00 -0.21651954205E+03  0.21651954205E+03  0.00000000000E+00 0.  1.
      99926    2    1    2    0    0  0.00000000000E+00  0.14210854715E-13  0.19094524424E+02  0.45213360853E+03  0.45173022823E+03 0.  0.
      99925    2    3    3    0    0 -0.45565964805E+02  0.86990579282E+02  0.61697811836E+02  0.28749410467E+03  0.26306391277E+03 0.  0.
         25    1    4    4    0    0 -0.19839916184E+02  0.76333770458E+02  0.66734453558E+01  0.14802874640E+03  0.12509000000E+03 0.  0.
         25    1    4    4    0    0 -0.25726048621E+02  0.10656808824E+02  0.55024366480E+02  0.13946535827E+03  0.12509000000E+03 0.  0.
         25    1    3    3    0    0  0.45565964805E+02 -0.86990579282E+02 -0.42603287412E+02  0.16463950386E+03  0.12509000000E+03 0.  0.
<mgrwt>
<rscale>  2 0.45173023E+03</rscale>
<asrwt>0</asrwt>
<pdfrwt beam="1">  1       21 0.34649127E-01 0.45173023E+03</pdfrwt>
<pdfrwt beam="2">  1       21 0.31841109E-01 0.45173023E+03</pdfrwt>
<totfact> 0.70579786E+04</totfact>
</mgrwt>
</event>
<event>
 7    0  0.4685107E-002  0.4540781E+03  0.7546771E-02  0.1026513E+00
         21   -1    0    0  502  501  0.00000000000E+00  0.00000000000E+00  0.51005991581E+03  0.51005991581E+03  0.00000000000E+00 0. -1.
         21   -1    0    0  501  502 -0.00000000000E+00 -0.00000000000E+00 -0.10106014293E+03  0.10106014293E+03  0.00000000000E+00 0. -1.
      99926    2    1    2    0    0  0.00000000000E+00  0.00000000000E+00  0.40899977288E+03  0.61112005874E+03  0.45407809018E+03 0.  0.
      99925    2    3    3    0    0  0.15536077536E+02  0.53254104230E+02  0.12740573585E+03  0.29803847334E+03  0.26366141307E+03 0.  0.
         25    1    4    4    0    0 -0.29364400834E+02  0.44224372675E+02  0.56903927613E+02  0.14732151320E+03  0.12509000000E+03 0.  0.
         25    1    4    4    0    0  0.44900478370E+02  0.90297315556E+01  0.70501808235E+02  0.15071696014E+03  0.12509000000E+03 0.  0.
         25    1    3    3    0    0 -0.15536077536E+02 -0.53254104230E+02  0.28159403703E+03  0.31308158540E+03  0.12509000000E+03 0.  0.
<mgrwt>
<rscale>  2 0.45407809E+03</rscale>
<asrwt>0</asrwt>
<pdfrwt beam="1">  1       21 0.75008810E-01 0.45407809E+03</pdfrwt>
<pdfrwt beam="2">  1       21 0.14861786E-01 0.45407809E+03</pdfrwt>
<totfact> 0.58423236E+04</totfact>
</mgrwt>
</event>
<event>
 7    0  0.4685107E-002  0.4612526E+03  0.7546771E-02  0.1024419E+00
         21   -1    0    0  502  501  0.00000000000E+00  0.00000000000E+00  0.45286845079E+03  0.45286845079E+03  0.00000000000E+00 0. -1.
         21   -1    0    0  501  502 -0.00000000000E+00 -0.00000000000E+00 -0.11744797537E+03  0.11744797537E+03  0.00000000000E+00 0. -1.
      99926    2    1    2    0    0  0.00000000000E+00  0.00000000000E+00  0.33542047542E+03  0.57031642616E+03  0.46125256706E+03 0.  0.
      99925    2    3    3    0    0 -0.11736942166E+03 -0.17463510380E+02  0.21935519450E+03  0.36247222280E+03  0.26303774561E+03 0.  0.
         25    1    4    4    0    0 -0.45846786138E+02 -0.17410579880E+02  0.58579845270E+02  0.14657476748E+03  0.12509000000E+03 0.  0.
         25    1    3    3    0    0  0.11736942166E+03  0.17463510380E+02  0.11606528092E+03  0.20784420336E+03  0.12509000000E+03 0.  0.
         25    1    4    4    0    0 -0.71522635523E+02 -0.52930499935E-01  0.16077534923E+03  0.21589745532E+03  0.12509000000E+03 0.  0.
<mgrwt>
<rscale>  2 0.46125257E+03</rscale>
<asrwt>0</asrwt>
<pdfrwt beam="1">  1       21 0.66598301E-01 0.46125257E+03</pdfrwt>
<pdfrwt beam="2">  1       21 0.17271761E-01 0.46125257E+03</pdfrwt>
<totfact> 0.57640298E+04</totfact>
</mgrwt>
</event>
<event>
 7    0  0.4685107E-002  0.4560193E+03  0.7546771E-02  0.1025942E+00
         21   -1    0    0  502  501  0.00000000000E+00  0.00000000000E+00  0.63316738504E+03  0.63316738504E+03  0.00000000000E+00 0.  1.
         21   -1    0    0  501  502 -0.00000000000E+00 -0.00000000000E+00 -0.82108446089E+02  0.82108446089E+02  0.00000000000E+00 0.  1.
      99926    2    1    2    0    0 -0.71054273576E-14  0.00000000000E+00  0.55105893895E+03  0.71527583113E+03  0.45601925442E+03 0.  0.
      99925    2    3    3    0    0  0.38044738361E+02 -0.87801546641E+02  0.24911201609E+03  0.37472338871E+03  0.26306711649E+03 0.  0.
         25    1    3    3    0    0 -0.38044738361E+02  0.87801546641E+02  0.30194692286E+03  0.34055244241E+03  0.12509000000E+03 0.  0.
         25    1    4    4    0    0  0.40543378550E+02 -0.15530044998E+02  0.91766873505E+02  0.16110125702E+03  0.12509000000E+03 0.  0.
         25    1    4    4    0    0 -0.24986401897E+01 -0.72271501643E+02  0.15734514258E+03  0.21362213169E+03  0.12509000000E+03 0.  0.
<mgrwt>
<rscale>  2 0.45601925E+03</rscale>
<asrwt>0</asrwt>
<pdfrwt beam="1">  1       21 0.93112848E-01 0.45601925E+03</pdfrwt>
<pdfrwt beam="2">  1       21 0.12074772E-01 0.45601925E+03</pdfrwt>
<totfact> 0.51665936E+04</totfact>
</mgrwt>
</event>
<event>
 7    0  0.4685107E-002  0.4553624E+03  0.7546771E-02  0.1026135E+00
         21   -1    0    0  502  501  0.00000000000E+00  0.00000000000E+00  0.32798889782E+03  0.32798889782E+03  0.00000000000E+00 0. -1.
         21   -1    0    0  501  502 -0.00000000000E+00 -0.00000000000E+00 -0.15805024858E+03  0.15805024858E+03  0.00000000000E+00 0. -1.
      99926    2    1    2    0    0  0.71054273576E-14  0.71054273576E-14  0.16993864924E+03  0.48603914640E+03  0.45536239121E+03 0.  0.
      99925    2    3    3    0    0 -0.63217005648E+02 -0.56931438522E+02  0.26643756211E+02  0.27766805204E+03  0.26296782861E+03 0.  0.
         25    1    4    4    0    0 -0.27549963691E+02  0.36985664600E+01 -0.12951639446E+02  0.12879414955E+03  0.12509000000E+03 0.  0.
         25    1    3    3    0    0  0.63217005648E+02  0.56931438522E+02  0.14329489303E+03  0.20837109436E+03  0.12509000000E+03 0.  0.
         25    1    4    4    0    0 -0.35667041957E+02 -0.60630004982E+02  0.39595395658E+02  0.14887390249E+03  0.12509000000E+03 0.  0.
<mgrwt>
<rscale>  2 0.45536239E+03</rscale>
<asrwt>0</asrwt>
<pdfrwt beam="1">  1       21 0.48233661E-01 0.45536239E+03</pdfrwt>
<pdfrwt beam="2">  1       21 0.23242684E-01 0.45536239E+03</pdfrwt>
<totfact> 0.66072772E+04</totfact>
</mgrwt>
</event>
<event>
 7    0  0.4685107E-002  0.4551406E+03  0.7546771E-02  0.1026200E+00
         21   -1    0    0  502  501  0.00000000000E+00  0.00000000000E+00  0.95946899404E+02  0.95946899404E+02  0.00000000000E+00 0. -1.
         21   -1    0    0  501  502 -0.00000000000E+00 -0.00000000000E+00 -0.53975932585E+03  0.53975932585E+03  0.00000000000E+00 0. -1.
      99926    2    1    2    0    0  0.00000000000E+00  0.00000000000E+00 -0.44381242644E+03  0.63570622525E+03  0.45514056615E+03 0.  0.
      99925    2    3    3    0    0 -0.34643497704E+02 -0.79495438680E+02 -0.38112951024E+03  0.47109652691E+03  0.26296870039E+03 0.  0.
         25    1    4    4    0    0 -0.23486209046E+02 -0.31889612645E+02 -0.12168899500E+03  0.17895325930E+03  0.12509000000E+03 0.  0.
         25    1    4    4    0    0 -0.11157288658E+02 -0.47605826035E+02 -0.25944051524E+03  0.29214326761E+03  0.12509000000E+03 0.  0.
         25    1    3    3    0    0  0.34643497704E+02  0.79495438680E+02 -0.62682916205E+02  0.16460969834E+03  0.12509000000E+03 0.  0.
<mgrwt>
<rscale>  2 0.45514057E+03</rscale>
<asrwt>0</asrwt>
<pdfrwt beam="1">  1       21 0.14109838E-01 0.45514057E+03</pdfrwt>
<pdfrwt beam="2">  1       21 0.79376371E-01 0.45514057E+03</pdfrwt>
<totfact> 0.56469883E+04</totfact>
</mgrwt>
</event>
<event>
 7    0  0.4685107E-002  0.4463352E+03  0.7546771E-02  0.1028821E+00
         21   -1    0    0  502  501  0.00000000000E+00  0.00000000000E+00  0.49834673122E+03  0.49834673122E+03  0.00000000000E+00 0.  1.
         21   -1    0    0  501  502 -0.00000000000E+00 -0.00000000000E+00 -0.99938024264E+02  0.99938024264E+02  0.00000000000E+00 0.  1.
      99926    2    1    2    0    0 -0.71054273576E-14 -0.71054273576E-14  0.39840870695E+03  0.59828475548E+03  0.44633524493E+03 0.  0.
      99925    2    3    3    0    0 -0.35797470280E+02 -0.60285816482E+02  0.14825858805E+03  0.30994740335E+03  0.26300369839E+03 0.  0.
         25    1    4    4    0    0 -0.53223658011E+02 -0.26773636492E+02  0.99062864418E+02  0.17032482083E+03  0.12509000000E+03 0.  0.
         25    1    3    3    0    0  0.35797470280E+02  0.60285816482E+02  0.25015011890E+03  0.28833735213E+03  0.12509000000E+03 0.  0.
         25    1    4    4    0    0  0.17426187731E+02 -0.33512179990E+02  0.49195723634E+02  0.13962258252E+03  0.12509000000E+03 0.  0.
<mgrwt>
<rscale>  2 0.44633524E+03</rscale>
<asrwt>0</asrwt>
<pdfrwt beam="1">  1       21 0.73286283E-01 0.44633524E+03</pdfrwt>
<pdfrwt beam="2">  1       21 0.14696769E-01 0.44633524E+03</pdfrwt>
<totfact> 0.62986737E+04</totfact>
</mgrwt>
</event>
<event>
 7    0  0.4685107E-002  0.4530290E+03  0.7546771E-02  0.1026823E+00
         21   -1    0    0  502  501  0.00000000000E+00  0.00000000000E+00  0.10341651798E+03  0.10341651798E+03  0.00000000000E+00 0. -1.
         21   -1    0    0  501  502 -0.00000000000E+00 -0.00000000000E+00 -0.49613762043E+03  0.49613762043E+03  0.00000000000E+00 0. -1.
      99926    2    1    2    0    0 -0.35527136788E-14 -0.14210854715E-13 -0.39272110245E+03  0.59955413840E+03  0.45302902839E+03 0.  0.
      99925    2    3    3    0    0 -0.64861267497E+01 -0.10367465408E+03 -0.19462865343E+03  0.34327571520E+03  0.26299695849E+03 0.  0.
         25    1    4    4    0    0  0.26798200531E+02 -0.65834683718E+02 -0.71499042467E+02  0.16066104166E+03  0.12509000000E+03 0.  0.
         25    1    3    3    0    0  0.64861267497E+01  0.10367465408E+03 -0.19809244902E+03  0.25627842320E+03  0.12509000000E+03 0.  0.
         25    1    4    4    0    0 -0.33284327281E+02 -0.37839970361E+02 -0.12312961096E+03  0.18261467355E+03  0.12509000000E+03 0.  0.
<mgrwt>
<rscale>  2 0.45302903E+03</rscale>
<asrwt>0</asrwt>
<pdfrwt beam="1">  1       21 0.15208312E-01 0.45302903E+03</pdfrwt>
<pdfrwt beam="2">  1       21 0.72961413E-01 0.45302903E+03</pdfrwt>
<totfact> 0.59628922E+04</totfact>
</mgrwt>
</event>
<event>
 7    0  0.4685107E-002  0.4086282E+03  0.7546771E-02  0.1040832E+00
         21   -1    0    0  502  501  0.00000000000E+00  0.00000000000E+00  0.62639043287E+03  0.62639043287E+03  0.00000000000E+00 0. -1.
         21   -1    0    0  501  502 -0.00000000000E+00 -0.00000000000E+00 -0.66642556376E+02  0.66642556376E+02  0.00000000000E+00 0. -1.
      99926    2    1    2    0    0  0.99920072216E-15  0.35527136788E-14  0.55974787649E+03  0.69303298924E+03  0.40862824051E+03 0.  0.
      99925    2    3    3    0    0 -0.65844723788E+00 -0.31692731373E+02  0.28279625194E+03  0.38749318297E+03  0.26300643331E+03 0.  0.
         25    1    4    4    0    0 -0.19297728111E+02 -0.25409113471E+02  0.19325073421E+03  0.23240348476E+03  0.12509000000E+03 0.  0.
         25    1    4    4    0    0  0.18639280874E+02 -0.62836179019E+01  0.89545517737E+02  0.15508969821E+03  0.12509000000E+03 0.  0.
         25    1    3    3    0    0  0.65844723788E+00  0.31692731373E+02  0.27695162455E+03  0.30553980627E+03  0.12509000000E+03 0.  0.
<mgrwt>
<rscale>  2 0.40862824E+03</rscale>
<asrwt>0</asrwt>
<pdfrwt beam="1">  1       21 0.92116237E-01 0.40862824E+03</pdfrwt>
<pdfrwt beam="2">  1       21 0.98003763E-02 0.40862824E+03</pdfrwt>
<totfact> 0.78129073E+04</totfact>
</mgrwt>
</event>
<event>
 7    0  0.4685107E-002  0.4511872E+03  0.7546771E-02  0.1027369E+00
         21   -1    0    0  502  501  0.00000000000E+00  0.00000000000E+00  0.75295911631E+03  0.75295911631E+03  0.00000000000E+00 0. -1.
         21   -1    0    0  501  502 -0.00000000000E+00 -0.00000000000E+00 -0.67589949054E+02  0.67589949054E+02  0.00000000000E+00 0. -1.
      99926    2    1    2    0    0 -0.14210854715E-13  0.71054273576E-14  0.68536916726E+03  0.82054906537E+03  0.45118718205E+03 0.  0.
      99925    2    3    3    0    0  0.93836050743E+02 -0.35597261829E+02  0.35336955508E+03  0.45184373580E+03  0.26309760480E+03 0.  0.
         25    1    4    4    0    0  0.65929287094E+02 -0.53451292884E+02  0.17112967867E+03  0.22833437461E+03  0.12509000000E+03 0.  0.
         25    1    3    3    0    0 -0.93836050743E+02  0.35597261829E+02  0.33199961217E+03  0.36870532957E+03  0.12509000000E+03 0.  0.
         25    1    4    4    0    0  0.27906763650E+02  0.17854031055E+02  0.18223987641E+03  0.22350936119E+03  0.12509000000E+03 0.  0.
<mgrwt>
<rscale>  2 0.45118718E+03</rscale>
<asrwt>0</asrwt>
<pdfrwt beam="1">  1       21 0.11072928E+00 0.45118718E+03</pdfrwt>
<pdfrwt beam="2">  1       21 0.99396988E-02 0.45118718E+03</pdfrwt>
<totfact> 0.48213220E+04</totfact>
</mgrwt>
</event>
<event>
 7    0  0.4685107E-002  0.4561507E+03  0.7546771E-02  0.1025904E+00
         21   -1    0    0  502  501  0.00000000000E+00  0.00000000000E+00  0.14142404905E+04  0.14142404905E+04  0.00000000000E+00 0. -1.
         21   -1    0    0  501  502 -0.00000000000E+00 -0.00000000000E+00 -0.36781844412E+02  0.36781844412E+02  0.00000000000E+00 0. -1.
      99926    2    1    2    0    0  0.71054273576E-14 -0.17763568394E-14  0.13774586461E+04  0.14510223349E+04  0.45615073685E+03 0.  0.
      99925    2    3    3    0    0 -0.38234056294E+02  0.80980708577E+01  0.12073031001E+04  0.12362484078E+04  0.26306259451E+03 0.  0.
         25    1    4    4    0    0  0.18038082107E+02  0.75187404501E+01  0.65874818701E+03  0.67080443190E+03  0.12509000000E+03 0.  0.
         25    1    4    4    0    0 -0.56272138402E+02  0.57933040759E+00  0.54855491305E+03  0.56544397593E+03  0.12509000000E+03 0.  0.
         25    1    3    3    0    0  0.38234056294E+02 -0.80980708577E+01  0.17015554604E+03  0.21477392710E+03  0.12509000000E+03 0.  0.
<mgrwt>
<rscale>  2 0.45615074E+03</rscale>
<asrwt>0</asrwt>
<pdfrwt beam="1">  1       21 0.20797651E+00 0.45615074E+03</pdfrwt>
<pdfrwt beam="2">  1       21 0.54090957E-02 0.45615074E+03</pdfrwt>
<totfact> 0.24781175E+04</totfact>
</mgrwt>
</event>
<event>
 7    0  0.4685107E-002  0.4568003E+03  0.7546771E-02  0.1025713E+00
         21   -1    0    0  502  501  0.00000000000E+00  0.00000000000E+00  0.72516736320E+02  0.72516736320E+02  0.00000000000E+00 0.  1.
         21   -1    0    0  501  502 -0.00000000000E+00 -0.00000000000E+00 -0.71937364065E+03  0.71937364065E+03  0.00000000000E+00 0.  1.
      99926    2    1    2    0    0  0.00000000000E+00  0.17763568394E-14 -0.64685690434E+03  0.79189037697E+03  0.45680030041E+03 0.  0.
      99925    2    3    3    0    0  0.11186120305E+03  0.14248491457E+02 -0.37458683308E+03  0.47174283589E+03  0.26364760467E+03 0.  0.
         25    1    4    4    0    0  0.73766071653E+02  0.25424532699E+02 -0.14205108970E+03  0.20472874829E+03  0.12509000000E+03 0.  0.
         25    1    3    3    0    0 -0.11186120305E+03 -0.14248491457E+02 -0.27227007126E+03  0.32014754108E+03  0.12509000000E+03 0.  0.
         25    1    4    4    0    0  0.38095131395E+02 -0.11176041242E+02 -0.23253574337E+03  0.26701408761E+03  0.12509000000E+03 0.  0.
<mgrwt>
<rscale>  2 0.45680030E+03</rscale>
<asrwt>0</asrwt>
<pdfrwt beam="1">  1       21 0.10664226E-01 0.45680030E+03</pdfrwt>
<pdfrwt beam="2">  1       21 0.10579024E+00 0.45680030E+03</pdfrwt>
<totfact> 0.47485084E+04</totfact>
</mgrwt>
</event>
<event>
 7    0  0.4685107E-002  0.4134904E+03  0.7546771E-02  0.1039206E+00
         21   -1    0    0  502  501  0.00000000000E+00  0.00000000000E+00  0.12944845258E+03  0.12944845258E+03  0.00000000000E+00 0. -1.
         21   -1    0    0  501  502 -0.00000000000E+00 -0.00000000000E+00 -0.33019773723E+03  0.33019773723E+03  0.00000000000E+00 0. -1.
      99926    2    1    2    0    0  0.00000000000E+00 -0.88817841970E-15 -0.20074928465E+03  0.45964618981E+03  0.41349044067E+03 0.  0.
      99925    2    3    3    0    0 -0.67160751117E+02 -0.79247574576E+01 -0.13583885713E+03  0.30333163524E+03  0.26264903875E+03 0.  0.
         25    1    3    3    0    0  0.67160751117E+02  0.79247574576E+01 -0.64910427513E+02  0.15631455457E+03  0.12509000000E+03 0.  0.
         25    1    4    4    0    0 -0.24996776919E+02  0.37262643426E+01 -0.23841930731E+02  0.12982553548E+03  0.12509000000E+03 0.  0.
         25    1    4    4    0    0 -0.42163974198E+02 -0.11651021800E+02 -0.11199692640E+03  0.17350609976E+03  0.12509000000E+03 0.  0.
<mgrwt>
<rscale>  2 0.41349044E+03</rscale>
<asrwt>0</asrwt>
<pdfrwt beam="1">  1       21 0.19036537E-01 0.41349044E+03</pdfrwt>
<pdfrwt beam="2">  1       21 0.48558490E-01 0.41349044E+03</pdfrwt>
<totfact> 0.96215933E+04</totfact>
</mgrwt>
</event>
<event>
 7    0  0.4685107E-002  0.4586033E+03  0.7546771E-02  0.1025187E+00
         21   -1    0    0  502  501  0.00000000000E+00  0.00000000000E+00  0.39955080141E+03  0.39955080141E+03  0.00000000000E+00 0.  1.
         21   -1    0    0  501  502 -0.00000000000E+00 -0.00000000000E+00 -0.13159589146E+03  0.13159589146E+03  0.00000000000E+00 0.  1.
      99926    2    1    2    0    0  0.00000000000E+00  0.00000000000E+00  0.26795490995E+03  0.53114669288E+03  0.45860328781E+03 0.  0.
      99925    2    3    3    0    0  0.45082138742E+02 -0.85127227791E+02  0.92210300397E+02  0.29489953410E+03  0.26302842349E+03 0.  0.
         25    1    4    4    0    0 -0.11612231375E+02 -0.21147268257E+02  0.55778445766E+02  0.13907118316E+03  0.12509000000E+03 0.  0.
         25    1    3    3    0    0 -0.45082138742E+02  0.85127227791E+02  0.17574460955E+03  0.23624715878E+03  0.12509000000E+03 0.  0.
         25    1    4    4    0    0  0.56694370117E+02 -0.63979959534E+02  0.36431854630E+02  0.15582835094E+03  0.12509000000E+03 0.  0.
<mgrwt>
<rscale>  2 0.45860329E+03</rscale>
<asrwt>0</asrwt>
<pdfrwt beam="1">  1       21 0.58757471E-01 0.45860329E+03</pdfrwt>
<pdfrwt beam="2">  1       21 0.19352337E-01 0.45860329E+03</pdfrwt>
<totfact> 0.61357751E+04</totfact>
</mgrwt>
</event>
<event>
 7    0  0.4685107E-002  0.4532237E+03  0.7546771E-02  0.1026765E+00
         21   -1    0    0  502  501  0.00000000000E+00  0.00000000000E+00  0.23661652932E+03  0.23661652932E+03  0.00000000000E+00 0.  1.
         21   -1    0    0  501  502 -0.00000000000E+00 -0.00000000000E+00 -0.21703017258E+03  0.21703017258E+03  0.00000000000E+00 0.  1.
      99926    2    1    2    0    0 -0.14210854715E-13  0.00000000000E+00  0.19586356742E+02  0.45364670191E+03  0.45322368074E+03 0.  0.
      99925    2    3    3    0    0  0.10184696045E+03  0.42070665818E+02 -0.65028445667E+01  0.28491348407E+03  0.26266073582E+03 0.  0.
         25    1    4    4    0    0  0.40554768157E+02  0.94371514466E+00  0.30577663964E+02  0.13501141230E+03  0.12509000000E+03 0.  0.
         25    1    3    3    0    0 -0.10184696045E+03 -0.42070665818E+02  0.26089201309E+02  0.16873321783E+03  0.12509000000E+03 0.  0.
         25    1    4    4    0    0  0.61292192294E+02  0.41126950674E+02 -0.37080508531E+02  0.14990207177E+03  0.12509000000E+03 0.  0.
<mgrwt>
<rscale>  2 0.45322368E+03</rscale>
<asrwt>0</asrwt>
<pdfrwt beam="1">  1       21 0.34796549E-01 0.45322368E+03</pdfrwt>
<pdfrwt beam="2">  1       21 0.31916202E-01 0.45322368E+03</pdfrwt>
<totfact> 0.69626671E+04</totfact>
</mgrwt>
</event>
<event>
 7    0  0.4685107E-002  0.4540657E+03  0.7546771E-02  0.1026517E+00
         21   -1    0    0  502  501  0.00000000000E+00  0.00000000000E+00  0.15428411390E+03  0.15428411390E+03  0.00000000000E+00 0. -1.
         21   -1    0    0  501  502 -0.00000000000E+00 -0.00000000000E+00 -0.33408436846E+03  0.33408436846E+03  0.00000000000E+00 0. -1.
      99926    2    1    2    0    0 -0.14210854715E-13  0.00000000000E+00 -0.17980025456E+03  0.48836848235E+03  0.45406568139E+03 0.  0.
      99925    2    3    3    0    0  0.10129253056E+03 -0.40343106114E+02 -0.83400534321E+02  0.29646184588E+03  0.26276650087E+03 0.  0.
         25    1    4    4    0    0  0.96195379890E+01 -0.24798888178E+02 -0.26978592143E+02  0.13070146480E+03  0.12509000000E+03 0.  0.
         25    1    3    3    0    0 -0.10129253056E+03  0.40343106114E+02 -0.96399720238E+02  0.19190663647E+03  0.12509000000E+03 0.  0.
         25    1    4    4    0    0  0.91672992573E+02 -0.15544217937E+02 -0.56421942179E+02  0.16576038109E+03  0.12509000000E+03 0.  0.
<mgrwt>
<rscale>  2 0.45406568E+03</rscale>
<asrwt>0</asrwt>
<pdfrwt beam="1">  1       21 0.22688840E-01 0.45406568E+03</pdfrwt>
<pdfrwt beam="2">  1       21 0.49130055E-01 0.45406568E+03</pdfrwt>
<totfact> 0.66588329E+04</totfact>
</mgrwt>
</event>
<event>
 7    0  0.4685107E-002  0.4517772E+03  0.7546771E-02  0.1027193E+00
         21   -1    0    0  502  501  0.00000000000E+00  0.00000000000E+00  0.14284973799E+03  0.14284973799E+03  0.00000000000E+00 0. -1.
         21   -1    0    0  501  502 -0.00000000000E+00 -0.00000000000E+00 -0.35719814427E+03  0.35719814427E+03  0.00000000000E+00 0. -1.
      99926    2    1    2    0    0  0.00000000000E+00 -0.17763568394E-14 -0.21434840628E+03  0.50004788226E+03  0.45177720756E+03 0.  0.
      99925    2    3    3    0    0  0.80821865029E+02 -0.10145091565E+02 -0.53080254542E+02  0.28029797528E+03  0.26289607220E+03 0.  0.
         25    1    4    4    0    0  0.45532053344E+02  0.31219311405E+02 -0.92954434366E+01  0.13704643978E+03  0.12509000000E+03 0.  0.
         25    1    4    4    0    0  0.35289811685E+02 -0.41364402970E+02 -0.43784811105E+02  0.14325153551E+03  0.12509000000E+03 0.  0.
         25    1    3    3    0    0 -0.80821865029E+02  0.10145091565E+02 -0.16126815174E+03  0.21974990697E+03  0.12509000000E+03 0.  0.
<mgrwt>
<rscale>  2 0.45177721E+03</rscale>
<asrwt>0</asrwt>
<pdfrwt beam="1">  1       21 0.21007315E-01 0.45177721E+03</pdfrwt>
<pdfrwt beam="2">  1       21 0.52529139E-01 0.45177721E+03</pdfrwt>
<totfact> 0.66964035E+04</totfact>
</mgrwt>
</event>
<event>
 7    0  0.4685107E-002  0.4303354E+03  0.7546771E-02  0.1033754E+00
         21   -1    0    0  502  501  0.00000000000E+00  0.00000000000E+00  0.89635642336E+02  0.89635642336E+02  0.00000000000E+00 0. -1.
         21   -1    0    0  501  502 -0.00000000000E+00 -0.00000000000E+00 -0.51650366911E+03  0.51650366911E+03  0.00000000000E+00 0. -1.
      99926    2    1    2    0    0  0.00000000000E+00 -0.33306690739E-14 -0.42686802677E+03  0.60613931144E+03  0.43033539547E+03 0.  0.
      99925    2    3    3    0    0 -0.58382490606E+02 -0.18454333579E+01 -0.36752656343E+03  0.45587009236E+03  0.26330561225E+03 0.  0.
         25    1    4    4    0    0 -0.26985261199E+02  0.40040536565E+02 -0.17996716860E+03  0.22442624348E+03  0.12509000000E+03 0.  0.
         25    1    3    3    0    0  0.58382490606E+02  0.18454333579E+01 -0.59341463337E+02  0.15026921909E+03  0.12509000000E+03 0.  0.
         25    1    4    4    0    0 -0.31397229407E+02 -0.41885969923E+02 -0.18755939483E+03  0.23144384887E+03  0.12509000000E+03 0.  0.
<mgrwt>
<rscale>  2 0.43033540E+03</rscale>
<asrwt>0</asrwt>
<pdfrwt beam="1">  1       21 0.13181712E-01 0.43033540E+03</pdfrwt>
<pdfrwt beam="2">  1       21 0.75956420E-01 0.43033540E+03</pdfrwt>
<totfact> 0.71190187E+04</totfact>
</mgrwt>
</event>
<event>
 7    0  0.4685107E-002  0.4526202E+03  0.7546771E-02  0.1026944E+00
         21   -1    0    0  502  501  0.00000000000E+00  0.00000000000E+00  0.31050719399E+02  0.31050719399E+02  0.00000000000E+00 0.  1.
         21   -1    0    0  501  502 -0.00000000000E+00 -0.00000000000E+00 -0.16494388935E+04  0.16494388935E+04  0.00000000000E+00 0.  1.
      99926    2    1    2    0    0  0.00000000000E+00  0.00000000000E+00 -0.16183881741E+04  0.16804896129E+04  0.45262021275E+03 0.  0.
      99925    2    3    3    0    0 -0.73449996350E+02  0.79373674660E+02 -0.92850207970E+03  0.97106349727E+03  0.26296981105E+03 0.  0.
         25    1    4    4    0    0 -0.50411789516E+02  0.43500438615E+02 -0.34877645978E+03  0.37646535522E+03  0.12509000000E+03 0.  0.
         25    1    4    4    0    0 -0.23038206834E+02  0.35873236045E+02 -0.57972561992E+03  0.59459814205E+03  0.12509000000E+03 0.  0.
         25    1    3    3    0    0  0.73449996350E+02 -0.79373674660E+02 -0.68988609443E+03  0.70942611566E+03  0.12509000000E+03 0.  0.
<mgrwt>
<rscale>  2 0.45262021E+03</rscale>
<asrwt>0</asrwt>
<pdfrwt beam="1">  1       21 0.45662808E-02 0.45262021E+03</pdfrwt>
<pdfrwt beam="2">  1       21 0.24256462E+00 0.45262021E+03</pdfrwt>
<totfact> 0.20038303E+04</totfact>
</mgrwt>
</event>
<event>
 7    0  0.4685107E-002  0.4570321E+03  0.7546771E-02  0.1025646E+00
         21   -1    0    0  502  501  0.00000000000E+00  0.00000000000E+00  0.10712180791E+03  0.10712180791E+03  0.00000000000E+00 0. -1.
         21   -1    0    0  501  502 -0.00000000000E+00 -0.00000000000E+00 -0.48747857061E+03  0.48747857061E+03  0.00000000000E+00 0. -1.
      99926    2    1    2    0    0 -0.14210854715E-13  0.27755575616E-16 -0.38035676269E+03  0.59460037852E+03  0.45703210304E+03 0.  0.
      99925    2    3    3    0    0 -0.10572535313E+03 -0.14422724013E+00 -0.29790239450E+03  0.41123161883E+03  0.26303561846E+03 0.  0.
         25    1    3    3    0    0  0.10572535313E+03  0.14422724013E+00 -0.82454368191E+02  0.18336875969E+03  0.12509000000E+03 0.  0.
         25    1    4    4    0    0 -0.96041845892E+02 -0.73908668409E+00 -0.17548201622E+03  0.23593649257E+03  0.12509000000E+03 0.  0.
         25    1    4    4    0    0 -0.96835072384E+01  0.59485944396E+00 -0.12242037829E+03  0.17529512626E+03  0.12509000000E+03 0.  0.
<mgrwt>
<rscale>  2 0.45703210E+03</rscale>
<asrwt>0</asrwt>
<pdfrwt beam="1">  1       21 0.15753207E-01 0.45703210E+03</pdfrwt>
<pdfrwt beam="2">  1       21 0.71688026E-01 0.45703210E+03</pdfrwt>
<totfact> 0.58073636E+04</totfact>
</mgrwt>
</event>
<event>
 7    0  0.4685107E-002  0.4562243E+03  0.7546771E-02  0.1025882E+00
         21   -1    0    0  502  501  0.00000000000E+00  0.00000000000E+00  0.48130556683E+02  0.48130556683E+02  0.00000000000E+00 0.  1.
         21   -1    0    0  501  502 -0.00000000000E+00 -0.00000000000E+00 -0.10811248932E+04  0.10811248932E+04  0.00000000000E+00 0.  1.
      99926    2    1    2    0    0  0.00000000000E+00  0.00000000000E+00 -0.10329943365E+04  0.11292554498E+04  0.45622425605E+03 0.  0.
      99925    2    3    3    0    0  0.73813854910E+02 -0.79956047197E+02 -0.56309133847E+03  0.63096056697E+03  0.26305498846E+03 0.  0.
         25    1    4    4    0    0  0.57368559091E+02 -0.13076254426E+02 -0.32737641397E+03  0.35536595859E+03  0.12509000000E+03 0.  0.
         25    1    3    3    0    0 -0.73813854910E+02  0.79956047197E+02 -0.46990299800E+03  0.49829488286E+03  0.12509000000E+03 0.  0.
         25    1    4    4    0    0  0.16445295820E+02 -0.66879792771E+02 -0.23571492450E+03  0.27559460838E+03  0.12509000000E+03 0.  0.
<mgrwt>
<rscale>  2 0.45622426E+03</rscale>
<asrwt>0</asrwt>
<pdfrwt beam="1">  1       21 0.70780229E-02 0.45622426E+03</pdfrwt>
<pdfrwt beam="2">  1       21 0.15898896E+00 0.45622426E+03</pdfrwt>
<totfact> 0.34155451E+04</totfact>
</mgrwt>
</event>
<event>
 7    0  0.4685107E-002  0.4841062E+03  0.7546771E-02  0.1018013E+00
         21   -1    0    0  502  501  0.00000000000E+00  0.00000000000E+00  0.13272485016E+03  0.13272485016E+03  0.00000000000E+00 0.  1.
         21   -1    0    0  501  502 -0.00000000000E+00 -0.00000000000E+00 -0.44143737540E+03  0.44143737540E+03  0.00000000000E+00 0.  1.
      99926    2    1    2    0    0  0.00000000000E+00  0.00000000000E+00 -0.30871252525E+03  0.57416222556E+03  0.48410622597E+03 0.  0.
      99925    2    3    3    0    0  0.56347089884E+02 -0.55180926050E+02 -0.54287862643E+02  0.27988455706E+03  0.26299860097E+03 0.  0.
         25    1    4    4    0    0  0.40661074835E+02 -0.11383937497E+02  0.86920475483E+01  0.13231015392E+03  0.12509000000E+03 0.  0.
         25    1    4    4    0    0  0.15686015049E+02 -0.43796988553E+02 -0.62979910192E+02  0.14757440314E+03  0.12509000000E+03 0.  0.
         25    1    3    3    0    0 -0.56347089884E+02  0.55180926050E+02 -0.25442466260E+03  0.29427766850E+03  0.12509000000E+03 0.  0.
<mgrwt>
<rscale>  2 0.48410623E+03</rscale>
<asrwt>0</asrwt>
<pdfrwt beam="1">  1       21 0.19518361E-01 0.48410623E+03</pdfrwt>
<pdfrwt beam="2">  1       21 0.64917260E-01 0.48410623E+03</pdfrwt>
<totfact> 0.48203066E+04</totfact>
</mgrwt>
</event>
<event>
 7    0  0.4685107E-002  0.4152239E+03  0.7546771E-02  0.1038632E+00
         21   -1    0    0  502  501  0.00000000000E+00  0.00000000000E+00  0.19098102732E+03  0.19098102732E+03  0.00000000000E+00 0. -1.
         21   -1    0    0  501  502 -0.00000000000E+00 -0.00000000000E+00 -0.22569110170E+03  0.22569110170E+03  0.00000000000E+00 0. -1.
      99926    2    1    2    0    0 -0.17763568394E-14  0.00000000000E+00 -0.34710074382E+02  0.41667212901E+03  0.41522388399E+03 0.  0.
      99925    2    3    3    0    0 -0.48494773449E+01 -0.36604839912E+02  0.36438699662E+02  0.26810198436E+03  0.26303509927E+03 0.  0.
         25    1    4    4    0    0  0.15389944603E+02 -0.16523522707E+02  0.54940155097E+02  0.13847673429E+03  0.12509000000E+03 0.  0.
         25    1    3    3    0    0  0.48494773449E+01  0.36604839912E+02 -0.71148774044E+02  0.14857014466E+03  0.12509000000E+03 0.  0.
         25    1    4    4    0    0 -0.20239421948E+02 -0.20081317206E+02 -0.18501455435E+02  0.12962525007E+03  0.12509000000E+03 0.  0.
<mgrwt>
<rscale>  2 0.41522388E+03</rscale>
<asrwt>0</asrwt>
<pdfrwt beam="1">  1       21 0.28085445E-01 0.41522388E+03</pdfrwt>
<pdfrwt beam="2">  1       21 0.33189868E-01 0.41522388E+03</pdfrwt>
<totfact> 0.99461849E+04</totfact>
</mgrwt>
</event>
<event>
 7    0  0.4685107E-002  0.4377508E+03  0.7546771E-02  0.1031439E+00
         21   -1    0    0  502  501  0.00000000000E+00  0.00000000000E+00  0.44499973706E+02  0.44499973706E+02  0.00000000000E+00 0. -1.
         21   -1    0    0  501  502 -0.00000000000E+00 -0.00000000000E+00 -0.10765499301E+04  0.10765499301E+04  0.00000000000E+00 0. -1.
      99926    2    1    2    0    0 -0.17763568394E-14  0.00000000000E+00 -0.10320499564E+04  0.11210499038E+04  0.43775081306E+03 0.  0.
      99925    2    3    3    0    0  0.94120697757E+01  0.82833353615E+02 -0.78261518738E+03  0.82981947335E+03  0.26299025706E+03 0.  0.
         25    1    3    3    0    0 -0.94120697757E+01 -0.82833353615E+02 -0.24943476901E+03  0.29123043045E+03  0.12509000000E+03 0.  0.
         25    1    4    4    0    0 -0.13406251752E+02  0.76005225125E+02 -0.37496885318E+03  0.40274765150E+03  0.12509000000E+03 0.  0.
         25    1    4    4    0    0  0.22818321527E+02  0.68281284895E+01 -0.40764633420E+03  0.42707182185E+03  0.12509000000E+03 0.  0.
<mgrwt>
<rscale>  2 0.43775081E+03</rscale>
<asrwt>0</asrwt>
<pdfrwt beam="1">  1       21 0.65441140E-02 0.43775081E+03</pdfrwt>
<pdfrwt beam="2">  1       21 0.15831616E+00 0.43775081E+03</pdfrwt>
<totfact> 0.39860263E+04</totfact>
</mgrwt>
</event>
<event>
 7    0  0.4685107E-002  0.4535978E+03  0.7546771E-02  0.1026655E+00
         21   -1    0    0  502  501  0.00000000000E+00  0.00000000000E+00  0.35814682866E+03  0.35814682866E+03  0.00000000000E+00 0. -1.
         21   -1    0    0  501  502 -0.00000000000E+00 -0.00000000000E+00 -0.14362196627E+03  0.14362196627E+03  0.00000000000E+00 0. -1.
      99926    2    1    2    0    0  0.00000000000E+00  0.00000000000E+00  0.21452486239E+03  0.50176879493E+03  0.45359784719E+03 0.  0.
      99925    2    3    3    0    0 -0.71600165179E+02 -0.64676583499E+02  0.73703265656E+02  0.29013733622E+03  0.26351064190E+03 0.  0.
         25    1    4    4    0    0 -0.16474182479E+02 -0.63313966085E+02  0.57688171907E+02  0.15249750905E+03  0.12509000000E+03 0.  0.
         25    1    4    4    0    0 -0.55125982700E+02 -0.13626174137E+01  0.16015093749E+02  0.13763982717E+03  0.12509000000E+03 0.  0.
         25    1    3    3    0    0  0.71600165179E+02  0.64676583499E+02  0.14082159673E+03  0.21163145870E+03  0.12509000000E+03 0.  0.
<mgrwt>
<rscale>  2 0.45359785E+03</rscale>
<asrwt>0</asrwt>
<pdfrwt beam="1">  1       21 0.52668651E-01 0.45359785E+03</pdfrwt>
<pdfrwt beam="2">  1       21 0.21120878E-01 0.45359785E+03</pdfrwt>
<totfact> 0.65876728E+04</totfact>
</mgrwt>
</event>
<event>
 7    0  0.4685107E-002  0.4593342E+03  0.7546771E-02  0.1024974E+00
         21   -1    0    0  502  501  0.00000000000E+00  0.00000000000E+00  0.31294276568E+03  0.31294276568E+03  0.00000000000E+00 0. -1.
         21   -1    0    0  501  502 -0.00000000000E+00 -0.00000000000E+00 -0.16855154791E+03  0.16855154791E+03  0.00000000000E+00 0. -1.
      99926    2    1    2    0    0  0.00000000000E+00  0.00000000000E+00  0.14439121777E+03  0.48149431359E+03  0.45933424676E+03 0.  0.
      99925    2    3    3    0    0  0.69527664442E+02  0.94080328237E+02  0.85453536217E+02  0.30036904563E+03  0.26312364477E+03 0.  0.
         25    1    4    4    0    0  0.48653652796E+02  0.21594691497E+02  0.10929392284E+02  0.13638353400E+03  0.12509000000E+03 0.  0.
         25    1    3    3    0    0 -0.69527664442E+02 -0.94080328237E+02  0.58937681552E+02  0.18112526795E+03  0.12509000000E+03 0.  0.
         25    1    4    4    0    0  0.20874011647E+02  0.72485636741E+02  0.74524143934E+02  0.16398551163E+03  0.12509000000E+03 0.  0.
<mgrwt>
<rscale>  2 0.45933425E+03</rscale>
<asrwt>0</asrwt>
<pdfrwt beam="1">  1       21 0.46020995E-01 0.45933425E+03</pdfrwt>
<pdfrwt beam="2">  1       21 0.24786992E-01 0.45933425E+03</pdfrwt>
<totfact> 0.64349113E+04</totfact>
</mgrwt>
</event>
<event>
 7    0  0.4685107E-002  0.4596838E+03  0.7546771E-02  0.1024873E+00
         21   -1    0    0  502  501  0.00000000000E+00  0.00000000000E+00  0.59345721982E+03  0.59345721982E+03  0.00000000000E+00 0.  1.
         21   -1    0    0  501  502 -0.00000000000E+00 -0.00000000000E+00 -0.89016173578E+02  0.89016173578E+02  0.00000000000E+00 0.  1.
      99926    2    1    2    0    0  0.00000000000E+00  0.71054273576E-14  0.50444104624E+03  0.68247339340E+03  0.45968376474E+03 0.  0.
      99925    2    3    3    0    0  0.10188148745E+03  0.58331722240E+02  0.30590515345E+03  0.42008734931E+03  0.26289349714E+03 0.  0.
         25    1    4    4    0    0  0.23248564762E+02  0.45045540287E+02  0.18330234762E+03  0.22763315928E+03  0.12509000000E+03 0.  0.
         25    1    3    3    0    0 -0.10188148745E+03 -0.58331722240E+02  0.19853589279E+03  0.26238604409E+03  0.12509000000E+03 0.  0.
         25    1    4    4    0    0  0.78632922688E+02  0.13286181953E+02  0.12260280583E+03  0.19245419003E+03  0.12509000000E+03 0.  0.
<mgrwt>
<rscale>  2 0.45968376E+03</rscale>
<asrwt>0</asrwt>
<pdfrwt beam="1">  1       21 0.87273119E-01 0.45968376E+03</pdfrwt>
<pdfrwt beam="2">  1       21 0.13090614E-01 0.45968376E+03</pdfrwt>
<totfact> 0.51922800E+04</totfact>
</mgrwt>
</event>
<event>
 7    0  0.4685107E-002  0.4552587E+03  0.7546771E-02  0.1026165E+00
         21   -1    0    0  502  501  0.00000000000E+00  0.00000000000E+00  0.16345710664E+03  0.16345710664E+03  0.00000000000E+00 0. -1.
         21   -1    0    0  501  502 -0.00000000000E+00 -0.00000000000E+00 -0.31699526284E+03  0.31699526284E+03  0.00000000000E+00 0. -1.
      99926    2    1    2    0    0  0.71054273576E-14  0.00000000000E+00 -0.15353815620E+03  0.48045236948E+03  0.45525873295E+03 0.  0.
      99925    2    3    3    0    0  0.49883538269E+02  0.22481818532E+02  0.81372584595E+01  0.26883893096E+03  0.26308621452E+03 0.  0.
         25    1    4    4    0    0  0.74087348831E+01  0.19825618205E+02 -0.31821386410E+02  0.13079775695E+03  0.12509000000E+03 0.  0.
         25    1    4    4    0    0  0.42474803386E+02  0.26562003270E+01  0.39958644870E+02  0.13804117401E+03  0.12509000000E+03 0.  0.
         25    1    3    3    0    0 -0.49883538269E+02 -0.22481818532E+02 -0.16167541466E+03  0.21161343851E+03  0.12509000000E+03 0.  0.
<mgrwt>
<rscale>  2 0.45525873E+03</rscale>
<asrwt>0</asrwt>
<pdfrwt beam="1">  1       21 0.24037810E-01 0.45525873E+03</pdfrwt>
<pdfrwt beam="2">  1       21 0.46616950E-01 0.45525873E+03</pdfrwt>
<totfact> 0.66530445E+04</totfact>
</mgrwt>
</event>
<event>
 7    0  0.4685107E-002  0.4554649E+03  0.7546771E-02  0.1026105E+00
         21   -1    0    0  502  501  0.00000000000E+00  0.00000000000E+00  0.28787975618E+02  0.28787975618E+02  0.00000000000E+00 0.  1.
         21   -1    0    0  501  502 -0.00000000000E+00 -0.00000000000E+00 -0.18015183447E+04  0.18015183447E+04  0.00000000000E+00 0.  1.
      99926    2    1    2    0    0  0.14210854715E-13  0.00000000000E+00 -0.17727303691E+04  0.18303063204E+04  0.45546488859E+03 0.  0.
      99925    2    3    3    0    0 -0.73574020674E+02 -0.69894607150E+02 -0.13208820304E+04  0.13506055574E+04  0.26288332196E+03 0.  0.
         25    1    4    4    0    0 -0.20336140335E+01 -0.12585286842E+02 -0.53615636117E+03  0.55070289336E+03  0.12509000000E+03 0.  0.
         25    1    3    3    0    0  0.73574020674E+02  0.69894607150E+02 -0.45184833876E+03  0.47970076294E+03  0.12509000000E+03 0.  0.
         25    1    4    4    0    0 -0.71540406640E+02 -0.57309320308E+02 -0.78472566919E+03  0.79990266406E+03  0.12509000000E+03 0.  0.
<mgrwt>
<rscale>  2 0.45546489E+03</rscale>
<asrwt>0</asrwt>
<pdfrwt beam="1">  1       21 0.42335274E-02 0.45546489E+03</pdfrwt>
<pdfrwt beam="2">  1       21 0.26492907E+00 0.45546489E+03</pdfrwt>
<totfact> 0.16624316E+04</totfact>
</mgrwt>
</event>
<event>
 7    0  0.4685107E-002  0.4542366E+03  0.7546771E-02  0.1026466E+00
         21   -1    0    0  502  501  0.00000000000E+00  0.00000000000E+00  0.46822910602E+03  0.46822910602E+03  0.00000000000E+00 0. -1.
         21   -1    0    0  501  502 -0.00000000000E+00 -0.00000000000E+00 -0.11016554747E+03  0.11016554747E+03  0.00000000000E+00 0. -1.
      99926    2    1    2    0    0  0.00000000000E+00  0.88817841970E-15  0.35806355855E+03  0.57839465349E+03  0.45423657187E+03 0.  0.
      99925    2    3    3    0    0 -0.10377139526E+03 -0.72632894765E+01  0.17076996740E+03  0.33030665452E+03  0.26290463367E+03 0.  0.
         25    1    4    4    0    0 -0.52967806151E+02  0.20379977319E+02  0.47315302152E+02  0.14528309565E+03  0.12509000000E+03 0.  0.
         25    1    4    4    0    0 -0.50803589109E+02 -0.27643266796E+02  0.12345466524E+03  0.18502355887E+03  0.12509000000E+03 0.  0.
         25    1    3    3    0    0  0.10377139526E+03  0.72632894765E+01  0.18729359115E+03  0.24808799898E+03  0.12509000000E+03 0.  0.
<mgrwt>
<rscale>  2 0.45423657E+03</rscale>
<asrwt>0</asrwt>
<pdfrwt beam="1">  1       21 0.68857221E-01 0.45423657E+03</pdfrwt>
<pdfrwt beam="2">  1       21 0.16200816E-01 0.45423657E+03</pdfrwt>
<totfact> 0.60391920E+04</totfact>
</mgrwt>
</event>
<event>
 7    0  0.4685107E-002  0.4457939E+03  0.7546771E-02  0.1028984E+00
         21   -1    0    0  502  501  0.00000000000E+00  0.00000000000E+00  0.46616971985E+02  0.46616971985E+02  0.00000000000E+00 0. -1.
         21   -1    0    0  501  502 -0.00000000000E+00 -0.00000000000E+00 -0.10657715187E+04  0.10657715187E+04  0.00000000000E+00 0. -1.
      99926    2    1    2    0    0  0.35527136788E-14  0.71054273576E-14 -0.10191545467E+04  0.11123884907E+04  0.44579385832E+03 0.  0.
      99925    2    3    3    0    0  0.22252698607E+02  0.58632072072E+02 -0.85482558204E+03  0.89655425058E+03  0.26296358312E+03 0.  0.
         25    1    4    4    0    0 -0.19044604041E+01  0.18816957858E+02 -0.53962418024E+03  0.55425577929E+03  0.12509000000E+03 0.  0.
         25    1    3    3    0    0 -0.22252698607E+02 -0.58632072072E+02 -0.16432896467E+03  0.21583424010E+03  0.12509000000E+03 0.  0.
         25    1    4    4    0    0  0.24157159011E+02  0.39815114215E+02 -0.31520140180E+03  0.34229847129E+03  0.12509000000E+03 0.  0.
<mgrwt>
<rscale>  2 0.44579386E+03</rscale>
<asrwt>0</asrwt>
<pdfrwt beam="1">  1       21 0.68554373E-02 0.44579386E+03</pdfrwt>
<pdfrwt beam="2">  1       21 0.15673110E+00 0.44579386E+03</pdfrwt>
<totfact> 0.37697218E+04</totfact>
</mgrwt>
</event>
<event>
 7    0  0.4685107E-002  0.4503202E+03  0.7546771E-02  0.1027627E+00
         21   -1    0    0  502  501  0.00000000000E+00  0.00000000000E+00  0.50592382756E+03  0.50592382756E+03  0.00000000000E+00 0. -1.
         21   -1    0    0  501  502 -0.00000000000E+00 -0.00000000000E+00 -0.10020693471E+03  0.10020693471E+03  0.00000000000E+00 0. -1.
      99926    2    1    2    0    0 -0.14210854715E-13  0.00000000000E+00  0.40571689285E+03  0.60613076226E+03  0.45032022364E+03 0.  0.
      99925    2    3    3    0    0 -0.82424894387E+02 -0.70828253788E+02  0.25971250883E+03  0.38527947066E+03  0.26301935009E+03 0.  0.
         25    1    4    4    0    0 -0.69036881945E+02 -0.40897984383E+02  0.17978253250E+03  0.23325523207E+03  0.12509000000E+03 0.  0.
         25    1    3    3    0    0  0.82424894387E+02  0.70828253788E+02  0.14600438402E+03  0.22085129160E+03  0.12509000000E+03 0.  0.
         25    1    4    4    0    0 -0.13388012443E+02 -0.29930269405E+02  0.79929976327E+02  0.15202423859E+03  0.12509000000E+03 0.  0.
<mgrwt>
<rscale>  2 0.45032022E+03</rscale>
<asrwt>0</asrwt>
<pdfrwt beam="1">  1       21 0.74400561E-01 0.45032022E+03</pdfrwt>
<pdfrwt beam="2">  1       21 0.14736314E-01 0.45032022E+03</pdfrwt>
<totfact> 0.60508563E+04</totfact>
</mgrwt>
</event>
<event>
 7    0  0.4685107E-002  0.4517160E+03  0.7546771E-02  0.1027212E+00
         21   -1    0    0  502  501  0.00000000000E+00  0.00000000000E+00  0.62588983759E+03  0.62588983759E+03  0.00000000000E+00 0.  1.
         21   -1    0    0  501  502 -0.00000000000E+00 -0.00000000000E+00 -0.81502898192E+02  0.81502898192E+02  0.00000000000E+00 0.  1.
      99926    2    1    2    0    0  0.00000000000E+00 -0.14210854715E-13  0.54438693940E+03  0.70739273578E+03  0.45171599800E+03 0.  0.
      99925    2    3    3    0    0  0.42869566963E+02  0.97462127830E+02  0.30007079980E+03  0.41298731752E+03  0.26301972057E+03 0.  0.
         25    1    4    4    0    0 -0.13742020940E+02  0.39185119937E+02  0.16978804371E+03  0.21494139818E+03  0.12509000000E+03 0.  0.
         25    1    3    3    0    0 -0.42869566963E+02 -0.97462127830E+02  0.24431613960E+03  0.29440541826E+03  0.12509000000E+03 0.  0.
         25    1    4    4    0    0  0.56611587903E+02  0.58277007893E+02  0.13028275609E+03  0.19804591934E+03  0.12509000000E+03 0.  0.
<mgrwt>
<rscale>  2 0.45171600E+03</rscale>
<asrwt>0</asrwt>
<pdfrwt beam="1">  1       21 0.92042621E-01 0.45171600E+03</pdfrwt>
<pdfrwt beam="2">  1       21 0.11985721E-01 0.45171600E+03</pdfrwt>
<totfact> 0.53882247E+04</totfact>
</mgrwt>
</event>
<event>
 7    0  0.4685107E-002  0.4541566E+03  0.7546771E-02  0.1026490E+00
         21   -1    0    0  502  501  0.00000000000E+00  0.00000000000E+00  0.56661966558E+02  0.56661966558E+02  0.00000000000E+00 0.  1.
         21   -1    0    0  501  502 -0.00000000000E+00 -0.00000000000E+00 -0.91003819003E+03  0.91003819003E+03  0.00000000000E+00 0.  1.
      99926    2    1    2    0    0  0.71054273576E-14  0.35527136788E-14 -0.85337622347E+03  0.96670015659E+03  0.45415659630E+03 0.  0.
      99925    2    3    3    0    0 -0.47567827751E+02 -0.30743681109E+02 -0.33122345090E+03  0.42679377751E+03  0.26312750128E+03 0.  0.
         25    1    4    4    0    0 -0.17721301284E+02  0.11634573742E+02 -0.11259243185E+03  0.16962892335E+03  0.12509000000E+03 0.  0.
         25    1    3    3    0    0  0.47567827751E+02  0.30743681109E+02 -0.52215277257E+03  0.53990637908E+03  0.12509000000E+03 0.  0.
         25    1    4    4    0    0 -0.29846526467E+02 -0.42378254851E+02 -0.21863101905E+03  0.25716485416E+03  0.12509000000E+03 0.  0.
<mgrwt>
<rscale>  2 0.45415660E+03</rscale>
<asrwt>0</asrwt>
<pdfrwt beam="1">  1       21 0.83326425E-02 0.45415660E+03</pdfrwt>
<pdfrwt beam="2">  1       21 0.13382914E+00 0.45415660E+03</pdfrwt>
<totfact> 0.40739867E+04</totfact>
</mgrwt>
</event>
<event>
 7    0  0.4685107E-002  0.4572008E+03  0.7546771E-02  0.1025596E+00
         21   -1    0    0  502  501  0.00000000000E+00  0.00000000000E+00  0.49448625661E+03  0.49448625661E+03  0.00000000000E+00 0. -1.
         21   -1    0    0  501  502 -0.00000000000E+00 -0.00000000000E+00 -0.10568169939E+03  0.10568169939E+03  0.00000000000E+00 0. -1.
      99926    2    1    2    0    0  0.00000000000E+00  0.00000000000E+00  0.38880455721E+03  0.60016795600E+03  0.45720082207E+03 0.  0.
      99925    2    3    3    0    0 -0.86571732600E+02  0.66300740256E+02  0.19530038103E+03  0.34525262233E+03  0.26299559188E+03 0.  0.
         25    1    3    3    0    0  0.86571732600E+02 -0.66300740256E+02  0.19350417618E+03  0.25491533368E+03  0.12509000000E+03 0.  0.
         25    1    4    4    0    0 -0.54672503584E+02  0.12498803905E+02  0.56692987173E+02  0.14834724683E+03  0.12509000000E+03 0.  0.
         25    1    4    4    0    0 -0.31899229015E+02  0.53801936350E+02  0.13860739386E+03  0.19690537550E+03  0.12509000000E+03 0.  0.
<mgrwt>
<rscale>  2 0.45720082E+03</rscale>
<asrwt>0</asrwt>
<pdfrwt beam="1">  1       21 0.72718566E-01 0.45720082E+03</pdfrwt>
<pdfrwt beam="2">  1       21 0.15541427E-01 0.45720082E+03</pdfrwt>
<totfact> 0.57658722E+04</totfact>
</mgrwt>
</event>
<event>
 7    0  0.4685107E-002  0.4555871E+03  0.7546771E-02  0.1026069E+00
         21   -1    0    0  502  501  0.00000000000E+00  0.00000000000E+00  0.68101825275E+02  0.68101825275E+02  0.00000000000E+00 0. -1.
         21   -1    0    0  501  502 -0.00000000000E+00 -0.00000000000E+00 -0.76194598138E+03  0.76194598138E+03  0.00000000000E+00 0. -1.
      99926    2    1    2    0    0  0.00000000000E+00  0.71054273576E-14 -0.69384415610E+03  0.83004780665E+03  0.45558714685E+03 0.  0.
      99925    2    3    3    0    0  0.47154960423E+02 -0.39755112726E+02 -0.61037703171E+03  0.66751064710E+03  0.26307087235E+03 0.  0.
         25    1    4    4    0    0  0.77203705576E+01  0.17403798016E+02 -0.26433774889E+03  0.29306048846E+03  0.12509000000E+03 0.  0.
         25    1    3    3    0    0 -0.47154960423E+02  0.39755112726E+02 -0.83467124396E+02  0.16253715955E+03  0.12509000000E+03 0.  0.
         25    1    4    4    0    0  0.39434589866E+02 -0.57158910742E+02 -0.34603928281E+03  0.37445015864E+03  0.12509000000E+03 0.  0.
<mgrwt>
<rscale>  2 0.45558715E+03</rscale>
<asrwt>0</asrwt>
<pdfrwt beam="1">  1       21 0.10014974E-01 0.45558715E+03</pdfrwt>
<pdfrwt beam="2">  1       21 0.11205088E+00 0.45558715E+03</pdfrwt>
<totfact> 0.46132632E+04</totfact>
</mgrwt>
</event>
<event>
 7    0  0.4685107E-002  0.4529701E+03  0.7546771E-02  0.1026840E+00
         21   -1    0    0  502  501  0.00000000000E+00  0.00000000000E+00  0.40714401362E+02  0.40714401362E+02  0.00000000000E+00 0. -1.
         21   -1    0    0  501  502 -0.00000000000E+00 -0.00000000000E+00 -0.12598852488E+04  0.12598852488E+04  0.00000000000E+00 0. -1.
      99926    2    1    2    0    0 -0.17763568394E-14  0.71054273576E-14 -0.12191708474E+04  0.13005996501E+04  0.45297008152E+03 0.  0.
      99925    2    3    3    0    0  0.10031749317E+02 -0.52856229295E+02 -0.48889347513E+03  0.55773562116E+03  0.26297866096E+03 0.  0.
         25    1    4    4    0    0 -0.28429632179E+02 -0.57599450974E+01 -0.25793804614E+03  0.28813358828E+03  0.12509000000E+03 0.  0.
         25    1    3    3    0    0 -0.10031749317E+02  0.52856229295E+02 -0.73027737226E+03  0.74286402895E+03  0.12509000000E+03 0.  0.
         25    1    4    4    0    0  0.38461381496E+02 -0.47096284198E+02 -0.23095542899E+03  0.26960203288E+03  0.12509000000E+03 0.  0.
<mgrwt>
<rscale>  2 0.45297008E+03</rscale>
<asrwt>0</asrwt>
<pdfrwt beam="1">  1       21 0.59874114E-02 0.45297008E+03</pdfrwt>
<pdfrwt beam="2">  1       21 0.18527726E+00 0.45297008E+03</pdfrwt>
<totfact> 0.29561200E+04</totfact>
</mgrwt>
</event>
<event>
 7    0  0.4685107E-002  0.4555322E+03  0.7546771E-02  0.1026085E+00
         21   -1    0    0  502  501  0.00000000000E+00  0.00000000000E+00  0.30511958490E+03  0.30511958490E+03  0.00000000000E+00 0. -1.
         21   -1    0    0  501  502 -0.00000000000E+00 -0.00000000000E+00 -0.17002318240E+03  0.17002318240E+03  0.00000000000E+00 0. -1.
      99926    2    1    2    0    0 -0.35527136788E-14  0.00000000000E+00  0.13509640250E+03  0.47514276730E+03  0.45553222866E+03 0.  0.
      99925    2    3    3    0    0 -0.72678212222E+01 -0.99940645919E+02  0.14139554166E+03  0.31474282595E+03  0.26273445406E+03 0.  0.
         25    1    4    4    0    0  0.26319550679E+02 -0.24838148022E+02  0.80633324326E+02  0.15316296366E+03  0.12509000000E+03 0.  0.
         25    1    3    3    0    0  0.72678212222E+01  0.99940645919E+02 -0.62991391651E+01  0.16039994135E+03  0.12509000000E+03 0.  0.
         25    1    4    4    0    0 -0.33587371902E+02 -0.75102497897E+02  0.60762217339E+02  0.16157986229E+03  0.12509000000E+03 0.  0.
<mgrwt>
<rscale>  2 0.45553223E+03</rscale>
<asrwt>0</asrwt>
<pdfrwt beam="1">  1       21 0.44870527E-01 0.45553223E+03</pdfrwt>
<pdfrwt beam="2">  1       21 0.25003409E-01 0.45553223E+03</pdfrwt>
<totfact> 0.66772943E+04</totfact>
</mgrwt>
</event>
<event>
 7    0  0.4685107E-002  0.4561154E+03  0.7546771E-02  0.1025914E+00
         21   -1    0    0  502  501  0.00000000000E+00  0.00000000000E+00  0.11314722163E+03  0.11314722163E+03  0.00000000000E+00 0.  1.
         21   -1    0    0  501  502 -0.00000000000E+00 -0.00000000000E+00 -0.45966946638E+03  0.45966946638E+03  0.00000000000E+00 0.  1.
      99926    2    1    2    0    0  0.00000000000E+00  0.88817841970E-15 -0.34652224475E+03  0.57281668802E+03  0.45611543710E+03 0.  0.
      99925    2    3    3    0    0 -0.87430479518E+02  0.34803503373E+01 -0.31015599237E+03  0.41588927168E+03  0.26288960631E+03 0.  0.
         25    1    3    3    0    0  0.87430479518E+02 -0.34803503373E+01 -0.36366252375E+02  0.15692741634E+03  0.12509000000E+03 0.  0.
         25    1    4    4    0    0 -0.70946026515E+01  0.21764815743E+02 -0.13642753918E+03  0.18650475098E+03  0.12509000000E+03 0.  0.
         25    1    4    4    0    0 -0.80335876866E+02 -0.18284465405E+02 -0.17372845320E+03  0.22938452070E+03  0.12509000000E+03 0.  0.
<mgrwt>
<rscale>  2 0.45611544E+03</rscale>
<asrwt>0</asrwt>
<pdfrwt beam="1">  1       21 0.16639298E-01 0.45611544E+03</pdfrwt>
<pdfrwt beam="2">  1       21 0.67598450E-01 0.45611544E+03</pdfrwt>
<totfact> 0.59853805E+04</totfact>
</mgrwt>
</event>
<event>
 7    0  0.4685107E-002  0.4642930E+03  0.7546771E-02  0.1023543E+00
         21   -1    0    0  502  501  0.00000000000E+00  0.00000000000E+00  0.13887070675E+03  0.13887070675E+03  0.00000000000E+00 0. -1.
         21   -1    0    0  501  502 -0.00000000000E+00 -0.00000000000E+00 -0.38807318188E+03  0.38807318188E+03  0.00000000000E+00 0. -1.
      99926    2    1    2    0    0  0.00000000000E+00  0.00000000000E+00 -0.24920247513E+03  0.52694388863E+03  0.46429299818E+03 0.  0.
      99925    2    3    3    0    0 -0.83674040017E+02  0.69766735746E+02 -0.94463832404E+02  0.30009526501E+03  0.26318246533E+03 0.  0.
         25    1    4    4    0    0 -0.63100667148E+02  0.58640899624E+01 -0.26538052462E+02  0.14271600497E+03  0.12509000000E+03 0.  0.
         25    1    4    4    0    0 -0.20573372868E+02  0.63902645784E+02 -0.67925779942E+02  0.15737926004E+03  0.12509000000E+03 0.  0.
         25    1    3    3    0    0  0.83674040017E+02 -0.69766735746E+02 -0.15473864272E+03  0.22684862363E+03  0.12509000000E+03 0.  0.
<mgrwt>
<rscale>  2 0.46429300E+03</rscale>
<asrwt>0</asrwt>
<pdfrwt beam="1">  1       21 0.20422163E-01 0.46429300E+03</pdfrwt>
<pdfrwt beam="2">  1       21 0.57069585E-01 0.46429300E+03</pdfrwt>
<totfact> 0.58949143E+04</totfact>
</mgrwt>
</event>
<event>
 7    0  0.4685107E-002  0.4421396E+03  0.7546771E-02  0.1030092E+00
         21   -1    0    0  502  501  0.00000000000E+00  0.00000000000E+00  0.17708658073E+03  0.17708658073E+03  0.00000000000E+00 0. -1.
         21   -1    0    0  501  502 -0.00000000000E+00 -0.00000000000E+00 -0.27597716333E+03  0.27597716333E+03  0.00000000000E+00 0. -1.
      99926    2    1    2    0    0  0.00000000000E+00  0.00000000000E+00 -0.98890582595E+02  0.45306374406E+03  0.44213958074E+03 0.  0.
      99925    2    3    3    0    0 -0.16191778574E+02  0.75112164210E+02  0.35896779712E+01  0.27402820901E+03  0.26301057514E+03 0.  0.
         25    1    4    4    0    0 -0.25795181600E+02  0.59302723907E+02  0.32039728992E+02  0.14441695465E+03  0.12509000000E+03 0.  0.
         25    1    3    3    0    0  0.16191778574E+02 -0.75112164210E+02 -0.10248026057E+03  0.17903553505E+03  0.12509000000E+03 0.  0.
         25    1    4    4    0    0  0.96034030267E+01  0.15809440303E+02 -0.28450051021E+02  0.12961125436E+03  0.12509000000E+03 0.  0.
<mgrwt>
<rscale>  2 0.44213958E+03</rscale>
<asrwt>0</asrwt>
<pdfrwt beam="1">  1       21 0.26042144E-01 0.44213958E+03</pdfrwt>
<pdfrwt beam="2">  1       21 0.40584877E-01 0.44213958E+03</pdfrwt>
<totfact> 0.76197579E+04</totfact>
</mgrwt>
</event>
<event>
 7    0  0.4685107E-002  0.4529786E+03  0.7546771E-02  0.1026837E+00
         21   -1    0    0  502  501  0.00000000000E+00  0.00000000000E+00  0.50893272086E+02  0.50893272086E+02  0.00000000000E+00 0. -1.
         21   -1    0    0  501  502 -0.00000000000E+00 -0.00000000000E+00 -0.10079408498E+04  0.10079408498E+04  0.00000000000E+00 0. -1.
      99926    2    1    2    0    0  0.00000000000E+00  0.00000000000E+00 -0.95704757770E+03  0.10588341219E+04  0.45297862163E+03 0.  0.
      99925    2    3    3    0    0  0.10496115878E+03 -0.29079913842E+02 -0.65595625918E+03  0.71508133799E+03  0.26305934642E+03 0.  0.
         25    1    4    4    0    0  0.31464301931E+02  0.12517845820E+02 -0.24279532183E+03  0.27521587011E+03  0.12509000000E+03 0.  0.
         25    1    3    3    0    0 -0.10496115878E+03  0.29079913842E+02 -0.30109131852E+03  0.34375278388E+03  0.12509000000E+03 0.  0.
         25    1    4    4    0    0  0.73496856844E+02 -0.41597759662E+02 -0.41316093735E+03  0.43986546787E+03  0.12509000000E+03 0.  0.
<mgrwt>
<rscale>  2 0.45297862E+03</rscale>
<asrwt>0</asrwt>
<pdfrwt beam="1">  1       21 0.74843053E-02 0.45297862E+03</pdfrwt>
<pdfrwt beam="2">  1       21 0.14822658E+00 0.45297862E+03</pdfrwt>
<totfact> 0.37543696E+04</totfact>
</mgrwt>
</event>
<event>
 7    0  0.4685107E-002  0.4252756E+03  0.7546771E-02  0.1035363E+00
         21   -1    0    0  502  501  0.00000000000E+00  0.00000000000E+00  0.26411856145E+03  0.26411856145E+03  0.00000000000E+00 0. -1.
         21   -1    0    0  501  502 -0.00000000000E+00 -0.00000000000E+00 -0.17119140164E+03  0.17119140164E+03  0.00000000000E+00 0. -1.
      99926    2    1    2    0    0  0.35527136788E-14  0.00000000000E+00  0.92927159812E+02  0.43530996308E+03  0.42527556587E+03 0.  0.
      99925    2    3    3    0    0 -0.27463427293E+02 -0.73258905273E+02  0.33779392185E+02  0.27635376297E+03  0.26288637836E+03 0.  0.
         25    1    4    4    0    0 -0.49934856059E+02 -0.21150085096E+02  0.25826686778E+02  0.13876361843E+03  0.12509000000E+03 0.  0.
         25    1    4    4    0    0  0.22471428766E+02 -0.52108820177E+02  0.79527054073E+01  0.13759014454E+03  0.12509000000E+03 0.  0.
         25    1    3    3    0    0  0.27463427293E+02  0.73258905273E+02  0.59147767627E+02  0.15895620012E+03  0.12509000000E+03 0.  0.
<mgrwt>
<rscale>  2 0.42527557E+03</rscale>
<asrwt>0</asrwt>
<pdfrwt beam="1">  1       21 0.38840965E-01 0.42527557E+03</pdfrwt>
<pdfrwt beam="2">  1       21 0.25175206E-01 0.42527557E+03</pdfrwt>
<totfact> 0.89390077E+04</totfact>
</mgrwt>
</event>
<event>
 7    0  0.4685107E-002  0.4531790E+03  0.7546771E-02  0.1026778E+00
         21   -1    0    0  502  501  0.00000000000E+00  0.00000000000E+00  0.43039515607E+02  0.43039515607E+02  0.00000000000E+00 0.  1.
         21   -1    0    0  501  502 -0.00000000000E+00 -0.00000000000E+00 -0.11929225405E+04  0.11929225405E+04  0.00000000000E+00 0.  1.
      99926    2    1    2    0    0  0.00000000000E+00  0.00000000000E+00 -0.11498830249E+04  0.12359620561E+04  0.45317902997E+03 0.  0.
      99925    2    3    3    0    0 -0.83177564195E+02 -0.73313041509E+02 -0.74941530204E+03  0.80200904669E+03  0.26325255325E+03 0.  0.
         25    1    4    4    0    0 -0.66044238824E+02 -0.73037530744E+02 -0.43253134459E+03  0.46089824748E+03  0.12509000000E+03 0.  0.
         25    1    4    4    0    0 -0.17133325370E+02 -0.27551076436E+00 -0.31688395745E+03  0.34111079920E+03  0.12509000000E+03 0.  0.
         25    1    3    3    0    0  0.83177564195E+02  0.73313041509E+02 -0.40046772288E+03  0.43395300945E+03  0.12509000000E+03 0.  0.
<mgrwt>
<rscale>  2 0.45317903E+03</rscale>
<asrwt>0</asrwt>
<pdfrwt beam="1">  1       21 0.63293404E-02 0.45317903E+03</pdfrwt>
<pdfrwt beam="2">  1       21 0.17542979E+00 0.45317903E+03</pdfrwt>
<totfact> 0.31476553E+04</totfact>
</mgrwt>
</event>
<event>
 7    0  0.4685107E-002  0.4381413E+03  0.7546771E-02  0.1031319E+00
         21   -1    0    0  502  501  0.00000000000E+00  0.00000000000E+00  0.14948342498E+04  0.14948342498E+04  0.00000000000E+00 0.  1.
         21   -1    0    0  501  502 -0.00000000000E+00 -0.00000000000E+00 -0.32105201278E+02  0.32105201278E+02  0.00000000000E+00 0.  1.
      99926    2    1    2    0    0  0.00000000000E+00 -0.71054273576E-14  0.14627290485E+04  0.15269394511E+04  0.43814132181E+03 0.  0.
      99925    2    3    3    0    0  0.71992162383E+02  0.57897927072E+02  0.83640756789E+03  0.88160144150E+03  0.26288484291E+03 0.  0.
         25    1    3    3    0    0 -0.71992162383E+02 -0.57897927072E+02  0.62632148065E+03  0.64533800960E+03  0.12509000000E+03 0.  0.
         25    1    4    4    0    0  0.65925243046E+01  0.18220312927E+02  0.47515184552E+03  0.49172372892E+03  0.12509000000E+03 0.  0.
         25    1    4    4    0    0  0.65399638079E+02  0.39677614144E+02  0.36125572237E+03  0.38987771259E+03  0.12509000000E+03 0.  0.
<mgrwt>
<rscale>  2 0.43814132E+03</rscale>
<asrwt>0</asrwt>
<pdfrwt beam="1">  1       21 0.21982852E+00 0.43814132E+03</pdfrwt>
<pdfrwt beam="2">  1       21 0.47213541E-02 0.43814132E+03</pdfrwt>
<totfact> 0.26420454E+04</totfact>
</mgrwt>
</event>
<event>
 7    0  0.4685107E-002  0.4461556E+03  0.7546771E-02  0.1028875E+00
         21   -1    0    0  502  501  0.00000000000E+00  0.00000000000E+00  0.24916941107E+03  0.24916941107E+03  0.00000000000E+00 0. -1.
         21   -1    0    0  501  502 -0.00000000000E+00 -0.00000000000E+00 -0.19971831222E+03  0.19971831222E+03  0.00000000000E+00 0. -1.
      99926    2    1    2    0    0  0.00000000000E+00  0.00000000000E+00  0.49451098844E+02  0.44888772329E+03  0.44615555241E+03 0.  0.
      99925    2    3    3    0    0 -0.23647117506E+02  0.88662697832E+02 -0.19222274191E+02  0.27922983100E+03  0.26302004209E+03 0.  0.
         25    1    3    3    0    0  0.23647117506E+02 -0.88662697832E+02  0.68673373035E+02  0.16965789229E+03  0.12509000000E+03 0.  0.
         25    1    4    4    0    0 -0.92356013575E+01  0.21199326234E+02  0.25097102199E+02  0.12966140676E+03  0.12509000000E+03 0.  0.
         25    1    4    4    0    0 -0.14411516148E+02  0.67463371597E+02 -0.44319376390E+02  0.14956842424E+03  0.12509000000E+03 0.  0.
<mgrwt>
<rscale>  2 0.44615555E+03</rscale>
<asrwt>0</asrwt>
<pdfrwt beam="1">  1       21 0.36642560E-01 0.44615555E+03</pdfrwt>
<pdfrwt beam="2">  1       21 0.29370340E-01 0.44615555E+03</pdfrwt>
<totfact> 0.74087430E+04</totfact>
</mgrwt>
</event>
<event>
 7    0  0.4685107E-002  0.4666594E+03  0.7546771E-02  0.1022867E+00
         21   -1    0    0  502  501  0.00000000000E+00  0.00000000000E+00  0.27376255760E+03  0.27376255760E+03  0.00000000000E+00 0. -1.
         21   -1    0    0  501  502 -0.00000000000E+00 -0.00000000000E+00 -0.19886846915E+03  0.19886846915E+03  0.00000000000E+00 0. -1.
      99926    2    1    2    0    0  0.71054273576E-14  0.00000000000E+00  0.74894088447E+02  0.47263102675E+03  0.46665936502E+03 0.  0.
      99925    2    3    3    0    0  0.36618806551E+02  0.19242649376E+02 -0.71552881553E+02  0.27564006332E+03  0.26295705562E+03 0.  0.
         25    1    4    4    0    0 -0.17573022813E+02  0.23948127869E+02 -0.47887486633E+02  0.13719709704E+03  0.12509000000E+03 0.  0.
         25    1    3    3    0    0 -0.36618806551E+02 -0.19242649376E+02  0.14644697000E+03  0.19699096342E+03  0.12509000000E+03 0.  0.
         25    1    4    4    0    0  0.54191829364E+02 -0.47054784932E+01 -0.23665394920E+02  0.13844296629E+03  0.12509000000E+03 0.  0.
<mgrwt>
<rscale>  2 0.46665937E+03</rscale>
<asrwt>0</asrwt>
<pdfrwt beam="1">  1       21 0.40259200E-01 0.46665937E+03</pdfrwt>
<pdfrwt beam="2">  1       21 0.29245363E-01 0.46665937E+03</pdfrwt>
<totfact> 0.61359993E+04</totfact>
</mgrwt>
</event>
<event>
 7    0  0.4685107E-002  0.4636398E+03  0.7546771E-02  0.1023731E+00
         21   -1    0    0  502  501  0.00000000000E+00  0.00000000000E+00  0.95894773507E+02  0.95894773507E+02  0.00000000000E+00 0.  1.
         21   -1    0    0  501  502 -0.00000000000E+00 -0.00000000000E+00 -0.56041069040E+03  0.56041069040E+03  0.00000000000E+00 0.  1.
      99926    2    1    2    0    0  0.00000000000E+00 -0.14210854715E-13 -0.46451591689E+03  0.65630546391E+03  0.46363975769E+03 0.  0.
      99925    2    3    3    0    0 -0.76635700152E+02 -0.93606090658E+02 -0.29846770632E+03  0.41577553421E+03  0.26296614304E+03 0.  0.
         25    1    4    4    0    0 -0.12399944769E+02 -0.49647430021E+02 -0.18843330522E+03  0.23189058746E+03  0.12509000000E+03 0.  0.
         25    1    3    3    0    0  0.76635700152E+02  0.93606090658E+02 -0.16604821057E+03  0.24052992970E+03  0.12509000000E+03 0.  0.
         25    1    4    4    0    0 -0.64235755383E+02 -0.43958660637E+02 -0.11003440110E+03  0.18388494675E+03  0.12509000000E+03 0.  0.
<mgrwt>
<rscale>  2 0.46363976E+03</rscale>
<asrwt>0</asrwt>
<pdfrwt beam="1">  1       21 0.14102173E-01 0.46363976E+03</pdfrwt>
<pdfrwt beam="2">  1       21 0.82413332E-01 0.46363976E+03</pdfrwt>
<totfact> 0.51723584E+04</totfact>
</mgrwt>
</event>
<event>
 7    0  0.4685107E-002  0.4604642E+03  0.7546771E-02  0.1024647E+00
         21   -1    0    0  502  501  0.00000000000E+00  0.00000000000E+00  0.35838448952E+03  0.35838448952E+03  0.00000000000E+00 0. -1.
         21   -1    0    0  501  502 -0.00000000000E+00 -0.00000000000E+00 -0.14790488003E+03  0.14790488003E+03  0.00000000000E+00 0. -1.
      99926    2    1    2    0    0  0.00000000000E+00  0.00000000000E+00  0.21047960949E+03  0.50628936954E+03  0.46046417852E+03 0.  0.
      99925    2    3    3    0    0  0.10966837465E+03  0.22206237608E+02  0.90293755831E+02  0.29986161727E+03  0.26314208668E+03 0.  0.
         25    1    4    4    0    0  0.62461360884E+02  0.93411455172E+01  0.88104219510E+02  0.16552504402E+03  0.12509000000E+03 0.  0.
         25    1    3    3    0    0 -0.10966837465E+03 -0.22206237608E+02  0.12018585366E+03  0.20642775227E+03  0.12509000000E+03 0.  0.
         25    1    4    4    0    0  0.47207013766E+02  0.12865092091E+02  0.21895363202E+01  0.13433657325E+03  0.12509000000E+03 0.  0.
<mgrwt>
<rscale>  2 0.46046418E+03</rscale>
<asrwt>0</asrwt>
<pdfrwt beam="1">  1       21 0.52703601E-01 0.46046418E+03</pdfrwt>
<pdfrwt beam="2">  1       21 0.21750718E-01 0.46046418E+03</pdfrwt>
<totfact> 0.62093856E+04</totfact>
</mgrwt>
</event>
<event>
 7    0  0.4685107E-002  0.4417979E+03  0.7546771E-02  0.1030197E+00
         21   -1    0    0  502  501  0.00000000000E+00  0.00000000000E+00  0.23224362548E+03  0.23224362548E+03  0.00000000000E+00 0. -1.
         21   -1    0    0  501  502 -0.00000000000E+00 -0.00000000000E+00 -0.21010846191E+03  0.21010846191E+03  0.00000000000E+00 0. -1.
      99926    2    1    2    0    0  0.00000000000E+00  0.00000000000E+00  0.22135163578E+02  0.44235208739E+03  0.44179792185E+03 0.  0.
      99925    2    3    3    0    0 -0.65941347902E+02  0.55727450675E+02  0.64772247418E+02  0.28449379923E+03  0.26322512730E+03 0.  0.
         25    1    4    4    0    0 -0.61073729429E+02  0.60417824989E+02  0.35227777348E+02  0.15578452555E+03  0.12509000000E+03 0.  0.
         25    1    4    4    0    0 -0.48676184729E+01 -0.46903743145E+01  0.29544470070E+02  0.12870927368E+03  0.12509000000E+03 0.  0.
         25    1    3    3    0    0  0.65941347902E+02 -0.55727450675E+02 -0.42637083840E+02  0.15785828816E+03  0.12509000000E+03 0.  0.
<mgrwt>
<rscale>  2 0.44179792E+03</rscale>
<asrwt>0</asrwt>
<pdfrwt beam="1">  1       21 0.34153474E-01 0.44179792E+03</pdfrwt>
<pdfrwt beam="2">  1       21 0.30898303E-01 0.44179792E+03</pdfrwt>
<totfact> 0.77310899E+04</totfact>
</mgrwt>
</event>
<event>
 7    0  0.4685107E-002  0.4414443E+03  0.7546771E-02  0.1030305E+00
         21   -1    0    0  502  501  0.00000000000E+00  0.00000000000E+00  0.74182508515E+03  0.74182508515E+03  0.00000000000E+00 0.  1.
         21   -1    0    0  501  502 -0.00000000000E+00 -0.00000000000E+00 -0.65673529989E+02  0.65673529989E+02  0.00000000000E+00 0.  1.
      99926    2    1    2    0    0 -0.35527136788E-14 -0.14210854715E-13  0.67615155516E+03  0.80749861514E+03  0.44144432028E+03 0.  0.
      99925    2    3    3    0    0 -0.16110979294E+02 -0.93762160184E+02  0.48728539361E+03  0.56179790001E+03  0.26290477229E+03 0.  0.
         25    1    4    4    0    0  0.15962666425E+02 -0.19901501444E+02  0.18349125832E+03  0.22353394923E+03  0.12509000000E+03 0.  0.
         25    1    4    4    0    0 -0.32073645719E+02 -0.73860658740E+02  0.30379413529E+03  0.33826395078E+03  0.12509000000E+03 0.  0.
         25    1    3    3    0    0  0.16110979294E+02  0.93762160184E+02  0.18886616155E+03  0.24570071513E+03  0.12509000000E+03 0.  0.
<mgrwt>
<rscale>  2 0.44144432E+03</rscale>
<asrwt>0</asrwt>
<pdfrwt beam="1">  1       21 0.10909192E+00 0.44144432E+03</pdfrwt>
<pdfrwt beam="2">  1       21 0.96578725E-02 0.44144432E+03</pdfrwt>
<totfact> 0.52800975E+04</totfact>
</mgrwt>
</event>
<event>
 7    0  0.4685107E-002  0.4508703E+03  0.7546771E-02  0.1027463E+00
         21   -1    0    0  502  501  0.00000000000E+00  0.00000000000E+00  0.30624651580E+03  0.30624651580E+03  0.00000000000E+00 0. -1.
         21   -1    0    0  501  502 -0.00000000000E+00 -0.00000000000E+00 -0.16594801010E+03  0.16594801010E+03  0.00000000000E+00 0. -1.
      99926    2    1    2    0    0  0.35527136788E-14  0.00000000000E+00  0.14029850570E+03  0.47219452590E+03  0.45087026913E+03 0.  0.
      99925    2    3    3    0    0  0.17293649566E+02  0.22716878511E+02 -0.21806568320E+02  0.26545630977E+03  0.26301406634E+03 0.  0.
         25    1    3    3    0    0 -0.17293649566E+02 -0.22716878511E+02  0.16210507402E+03  0.20673821613E+03  0.12509000000E+03 0.  0.
         25    1    4    4    0    0 -0.17831807400E+02  0.30378569984E+02 -0.35137423390E+02  0.13462160856E+03  0.12509000000E+03 0.  0.
         25    1    4    4    0    0  0.35125456965E+02 -0.76616914725E+01  0.13330855070E+02  0.13083470121E+03  0.12509000000E+03 0.  0.
<mgrwt>
<rscale>  2 0.45087027E+03</rscale>
<asrwt>0</asrwt>
<pdfrwt beam="1">  1       21 0.45036252E-01 0.45087027E+03</pdfrwt>
<pdfrwt beam="2">  1       21 0.24404119E-01 0.45087027E+03</pdfrwt>
<totfact> 0.69523483E+04</totfact>
</mgrwt>
</event>
<event>
 7    0  0.4685107E-002  0.4566367E+03  0.7546771E-02  0.1025761E+00
         21   -1    0    0  502  501  0.00000000000E+00  0.00000000000E+00  0.15875129980E+04  0.15875129980E+04  0.00000000000E+00 0.  1.
         21   -1    0    0  501  502 -0.00000000000E+00 -0.00000000000E+00 -0.32837069904E+02  0.32837069904E+02  0.00000000000E+00 0.  1.
      99926    2    1    2    0    0  0.00000000000E+00  0.00000000000E+00  0.15546759281E+04  0.16203500679E+04  0.45663672778E+03 0.  0.
      99925    2    3    3    0    0 -0.97186476009E+02 -0.40184537417E+02  0.11396398185E+04  0.11742979537E+04  0.26293870032E+03 0.  0.
         25    1    4    4    0    0 -0.30314169774E+02 -0.45438621776E+02  0.66616524156E+03  0.68000533410E+03  0.12509000000E+03 0.  0.
         25    1    3    3    0    0  0.97186476009E+02  0.40184537417E+02  0.41503610963E+03  0.44605211418E+03  0.12509000000E+03 0.  0.
         25    1    4    4    0    0 -0.66872306235E+02  0.52540843585E+01  0.47347457691E+03  0.49429261964E+03  0.12509000000E+03 0.  0.
<mgrwt>
<rscale>  2 0.45663673E+03</rscale>
<asrwt>0</asrwt>
<pdfrwt beam="1">  1       21 0.23345774E+00 0.45663673E+03</pdfrwt>
<pdfrwt beam="2">  1       21 0.48289819E-02 0.45663673E+03</pdfrwt>
<totfact> 0.20709368E+04</totfact>
</mgrwt>
</event>
<event>
 7    0  0.4685107E-002  0.4529034E+03  0.7546771E-02  0.1026860E+00
         21   -1    0    0  502  501  0.00000000000E+00  0.00000000000E+00  0.13072799143E+03  0.13072799143E+03  0.00000000000E+00 0. -1.
         21   -1    0    0  501  502 -0.00000000000E+00 -0.00000000000E+00 -0.39226781215E+03  0.39226781215E+03  0.00000000000E+00 0. -1.
      99926    2    1    2    0    0  0.00000000000E+00 -0.35527136788E-14 -0.26153982072E+03  0.52299580358E+03  0.45290344748E+03 0.  0.
      99925    2    3    3    0    0 -0.71397806382E+02  0.27142771015E+02 -0.25825524977E+03  0.37639200662E+03  0.26294636686E+03 0.  0.
         25    1    3    3    0    0  0.71397806382E+02 -0.27142771015E+02 -0.32845709512E+01  0.14660379695E+03  0.12509000000E+03 0.  0.
         25    1    4    4    0    0 -0.20051639265E+02 -0.23634194664E+02 -0.13321455172E+03  0.18534904447E+03  0.12509000000E+03 0.  0.
         25    1    4    4    0    0 -0.51346167117E+02  0.50776965679E+02 -0.12504069805E+03  0.19104296216E+03  0.12509000000E+03 0.  0.
<mgrwt>
<rscale>  2 0.45290345E+03</rscale>
<asrwt>0</asrwt>
<pdfrwt beam="1">  1       21 0.19224705E-01 0.45290345E+03</pdfrwt>
<pdfrwt beam="2">  1       21 0.57686442E-01 0.45290345E+03</pdfrwt>
<totfact> 0.64752670E+04</totfact>
</mgrwt>
</event>
<event>
 7    0  0.4685107E-002  0.4469852E+03  0.7546771E-02  0.1028625E+00
         21   -1    0    0  502  501  0.00000000000E+00  0.00000000000E+00  0.38513532089E+02  0.38513532089E+02  0.00000000000E+00 0.  1.
         21   -1    0    0  501  502 -0.00000000000E+00 -0.00000000000E+00 -0.12969193674E+04  0.12969193674E+04  0.00000000000E+00 0.  1.
      99926    2    1    2    0    0  0.14210854715E-13  0.35527136788E-14 -0.12584058353E+04  0.13354328995E+04  0.44698521529E+03 0.  0.
      99925    2    3    3    0    0  0.98799473060E+02  0.11812249594E+02 -0.90295258862E+03  0.94569531624E+03  0.26289805768E+03 0.  0.
         25    1    3    3    0    0 -0.98799473060E+02 -0.11812249594E+02 -0.35545324668E+03  0.38973758324E+03  0.12509000000E+03 0.  0.
         25    1    4    4    0    0  0.73397380454E+02 -0.26382498623E+02 -0.50091327722E+03  0.52215403004E+03  0.12509000000E+03 0.  0.
         25    1    4    4    0    0  0.25402092606E+02  0.38194748217E+02 -0.40203931140E+03  0.42354128619E+03  0.12509000000E+03 0.  0.
<mgrwt>
<rscale>  2 0.44698522E+03</rscale>
<asrwt>0</asrwt>
<pdfrwt beam="1">  1       21 0.56637543E-02 0.44698522E+03</pdfrwt>
<pdfrwt beam="2">  1       21 0.19072345E+00 0.44698522E+03</pdfrwt>
<totfact> 0.29924627E+04</totfact>
</mgrwt>
</event>
<event>
 7    0  0.4685107E-002  0.4478087E+03  0.7546771E-02  0.1028378E+00
         21   -1    0    0  502  501  0.00000000000E+00  0.00000000000E+00  0.16188374422E+03  0.16188374422E+03  0.00000000000E+00 0.  1.
         21   -1    0    0  501  502 -0.00000000000E+00 -0.00000000000E+00 -0.30968621114E+03  0.30968621114E+03  0.00000000000E+00 0.  1.
      99926    2    1    2    0    0  0.00000000000E+00 -0.17763568394E-14 -0.14780246693E+03  0.47156995536E+03  0.44780872431E+03 0.  0.
      99925    2    3    3    0    0  0.31898628217E+02 -0.15001662314E+02 -0.19924257700E+03  0.33179812208E+03  0.26296352784E+03 0.  0.
         25    1    4    4    0    0 -0.69657154838E+00  0.29553638658E+02 -0.99759728774E+02  0.16270652831E+03  0.12509000000E+03 0.  0.
         25    1    3    3    0    0 -0.31898628217E+02  0.15001662314E+02  0.51440110074E+02  0.13977183328E+03  0.12509000000E+03 0.  0.
         25    1    4    4    0    0  0.32595199765E+02 -0.44555300971E+02 -0.99482848225E+02  0.16909159377E+03  0.12509000000E+03 0.  0.
<mgrwt>
<rscale>  2 0.44780872E+03</rscale>
<asrwt>0</asrwt>
<pdfrwt beam="1">  1       21 0.23806433E-01 0.44780872E+03</pdfrwt>
<pdfrwt beam="2">  1       21 0.45542090E-01 0.44780872E+03</pdfrwt>
<totfact> 0.71302259E+04</totfact>
</mgrwt>
</event>
<event>
 7    0  0.4685107E-002  0.4509907E+03  0.7546771E-02  0.1027427E+00
         21   -1    0    0  502  501  0.00000000000E+00  0.00000000000E+00  0.37558502116E+03  0.37558502116E+03  0.00000000000E+00 0. -1.
         21   -1    0    0  501  502 -0.00000000000E+00 -0.00000000000E+00 -0.13538384037E+03  0.13538384037E+03  0.00000000000E+00 0. -1.
      99926    2    1    2    0    0  0.00000000000E+00  0.00000000000E+00  0.24020118079E+03  0.51096886153E+03  0.45099065423E+03 0.  0.
      99925    2    3    3    0    0 -0.47024894251E+02 -0.56638199771E+02  0.59850126347E+02  0.27946672916E+03  0.26286952796E+03 0.  0.
         25    1    3    3    0    0  0.47024894251E+02  0.56638199771E+02  0.18035105444E+03  0.23150213237E+03  0.12509000000E+03 0.  0.
         25    1    4    4    0    0 -0.42146379978E+02 -0.20928090304E+02 -0.55905734124E+01  0.13376496148E+03  0.12509000000E+03 0.  0.
         25    1    4    4    0    0 -0.48785142721E+01 -0.35710109466E+02  0.65440699760E+02  0.14570176768E+03  0.12509000000E+03 0.  0.
<mgrwt>
<rscale>  2 0.45099065E+03</rscale>
<asrwt>0</asrwt>
<pdfrwt beam="1">  1       21 0.55233091E-01 0.45099065E+03</pdfrwt>
<pdfrwt beam="2">  1       21 0.19909388E-01 0.45099065E+03</pdfrwt>
<totfact> 0.66600621E+04</totfact>
</mgrwt>
</event>
<event>
 7    0  0.4685107E-002  0.4380869E+03  0.7546771E-02  0.1031335E+00
         21   -1    0    0  502  501  0.00000000000E+00  0.00000000000E+00  0.25440769437E+02  0.25440769437E+02  0.00000000000E+00 0. -1.
         21   -1    0    0  501  502 -0.00000000000E+00 -0.00000000000E+00 -0.18859509205E+04  0.18859509205E+04  0.00000000000E+00 0. -1.
      99926    2    1    2    0    0 -0.71054273576E-14  0.14210854715E-13 -0.18605101511E+04  0.19113916900E+04  0.43808694361E+03 0.  0.
      99925    2    3    3    0    0 -0.57748201630E+02  0.74165932051E+02 -0.12883892604E+04  0.13182599492E+04  0.26272983656E+03 0.  0.
         25    1    3    3    0    0  0.57748201630E+02 -0.74165932051E+02 -0.57212089072E+03  0.59313174082E+03  0.12509000000E+03 0.  0.
         25    1    4    4    0    0 -0.25914185725E+02  0.73991151064E+02 -0.60177472385E+03  0.61961807739E+03  0.12509000000E+03 0.  0.
         25    1    4    4    0    0 -0.31834015906E+02  0.17478098660E+00 -0.68661453653E+03  0.69864187177E+03  0.12509000000E+03 0.  0.
<mgrwt>
<rscale>  2 0.43808694E+03</rscale>
<asrwt>0</asrwt>
<pdfrwt beam="1">  1       21 0.37412890E-02 0.43808694E+03</pdfrwt>
<pdfrwt beam="2">  1       21 0.27734577E+00 0.43808694E+03</pdfrwt>
<totfact> 0.17383127E+04</totfact>
</mgrwt>
</event>
<event>
 7    0  0.4685107E-002  0.4538487E+03  0.7546771E-02  0.1026581E+00
         21   -1    0    0  502  501  0.00000000000E+00  0.00000000000E+00  0.37606681464E+02  0.37606681464E+02  0.00000000000E+00 0.  1.
         21   -1    0    0  501  502 -0.00000000000E+00 -0.00000000000E+00 -0.13692954969E+04  0.13692954969E+04  0.00000000000E+00 0.  1.
      99926    2    1    2    0    0  0.00000000000E+00 -0.35527136788E-14 -0.13316888155E+04  0.14069021784E+04  0.45384869541E+03 0.  0.
      99925    2    3    3    0    0 -0.65179359349E+02 -0.27013730161E+02 -0.56890587674E+03  0.63071701349E+03  0.26300563495E+03 0.  0.
         25    1    4    4    0    0 -0.52027938390E+02  0.21227431312E+02 -0.26864539601E+03  0.30162123120E+03  0.12509000000E+03 0.  0.
         25    1    4    4    0    0 -0.13151420958E+02 -0.48241161473E+02 -0.30026048073E+03  0.32909578229E+03  0.12509000000E+03 0.  0.
         25    1    3    3    0    0  0.65179359349E+02  0.27013730161E+02 -0.76278293871E+03  0.77618516488E+03  0.12509000000E+03 0.  0.
<mgrwt>
<rscale>  2 0.45384870E+03</rscale>
<asrwt>0</asrwt>
<pdfrwt beam="1">  1       21 0.55303938E-02 0.45384870E+03</pdfrwt>
<pdfrwt beam="2">  1       21 0.20136701E+00 0.45384870E+03</pdfrwt>
<totfact> 0.26383908E+04</totfact>
</mgrwt>
</event>
<event>
 7    0  0.4685107E-002  0.4539889E+03  0.7546771E-02  0.1026539E+00
         21   -1    0    0  502  501  0.00000000000E+00  0.00000000000E+00  0.50847425033E+02  0.50847425033E+02  0.00000000000E+00 0.  1.
         21   -1    0    0  501  502 -0.00000000000E+00 -0.00000000000E+00 -0.10133547925E+04  0.10133547925E+04  0.00000000000E+00 0.  1.
      99926    2    1    2    0    0  0.00000000000E+00  0.00000000000E+00 -0.96250736748E+03  0.10642022175E+04  0.45398890667E+03 0.  0.
      99925    2    3    3    0    0 -0.91743278801E+02  0.16890850215E+02 -0.45777524592E+03  0.53589912967E+03  0.26254060901E+03 0.  0.
         25    1    4    4    0    0 -0.69301402298E+02 -0.13423046745E+02 -0.28642068394E+03  0.32041719497E+03  0.12509000000E+03 0.  0.
         25    1    4    4    0    0 -0.22441876502E+02  0.30313896960E+02 -0.17135456197E+03  0.21548193469E+03  0.12509000000E+03 0.  0.
         25    1    3    3    0    0  0.91743278801E+02 -0.16890850215E+02 -0.50473212157E+03  0.52830308788E+03  0.12509000000E+03 0.  0.
<mgrwt>
<rscale>  2 0.45398891E+03</rscale>
<asrwt>0</asrwt>
<pdfrwt beam="1">  1       21 0.74775626E-02 0.45398891E+03</pdfrwt>
<pdfrwt beam="2">  1       21 0.14902276E+00 0.45398891E+03</pdfrwt>
<totfact> 0.37052050E+04</totfact>
</mgrwt>
</event>
<event>
 7    0  0.4685107E-002  0.4468231E+03  0.7546771E-02  0.1028674E+00
         21   -1    0    0  502  501  0.00000000000E+00  0.00000000000E+00  0.74505110709E+03  0.74505110709E+03  0.00000000000E+00 0. -1.
         21   -1    0    0  501  502 -0.00000000000E+00 -0.00000000000E+00 -0.66992335502E+02  0.66992335502E+02  0.00000000000E+00 0. -1.
      99926    2    1    2    0    0  0.00000000000E+00 -0.28865798640E-14  0.67805877159E+03  0.81204344259E+03  0.44682306893E+03 0.  0.
      99925    2    3    3    0    0  0.75536506530E+02 -0.11309084549E+01  0.56321324053E+03  0.62618315400E+03  0.26303829620E+03 0.  0.
         25    1    3    3    0    0 -0.75536506530E+02  0.11309084549E+01  0.11484553106E+03  0.18586028860E+03  0.12509000000E+03 0.  0.
         25    1    4    4    0    0  0.27454755232E+02  0.30684879675E+02  0.33038129086E+03  0.35566083686E+03  0.12509000000E+03 0.  0.
         25    1    4    4    0    0  0.48081751298E+02 -0.31815788130E+02  0.23283194967E+03  0.27052231714E+03  0.12509000000E+03 0.  0.
<mgrwt>
<rscale>  2 0.44682307E+03</rscale>
<asrwt>0</asrwt>
<pdfrwt beam="1">  1       21 0.10956633E+00 0.44682307E+03</pdfrwt>
<pdfrwt beam="2">  1       21 0.98518145E-02 0.44682307E+03</pdfrwt>
<totfact> 0.50341059E+04</totfact>
</mgrwt>
</event>
<event>
 7    0  0.4685107E-002  0.4118564E+03  0.7546771E-02  0.1039750E+00
         21   -1    0    0  502  501  0.00000000000E+00  0.00000000000E+00  0.13484399085E+04  0.13484399085E+04  0.00000000000E+00 0.  1.
         21   -1    0    0  501  502 -0.00000000000E+00 -0.00000000000E+00 -0.31448513627E+02  0.31448513627E+02  0.00000000000E+00 0.  1.
      99926    2    1    2    0    0  0.00000000000E+00  0.35527136788E-14  0.13169913949E+04  0.13798884221E+04  0.41185643537E+03 0.  0.
      99925    2    3    3    0    0 -0.22679111456E+02  0.20124488951E+02  0.10586113914E+04  0.10912241336E+04  0.26304504309E+03 0.  0.
         25    1    4    4    0    0 -0.19559116493E+02 -0.21863418448E+02  0.42430310662E+03  0.44332967698E+03  0.12509000000E+03 0.  0.
         25    1    3    3    0    0  0.22679111456E+02 -0.20124488951E+02  0.25838000351E+03  0.28866428852E+03  0.12509000000E+03 0.  0.
         25    1    4    4    0    0 -0.31199949635E+01  0.41987907399E+02  0.63430828476E+03  0.64789445664E+03  0.12509000000E+03 0.  0.
<mgrwt>
<rscale>  2 0.41185644E+03</rscale>
<asrwt>0</asrwt>
<pdfrwt beam="1">  1       21 0.19829995E+00 0.41185644E+03</pdfrwt>
<pdfrwt beam="2">  1       21 0.46247823E-02 0.41185644E+03</pdfrwt>
<totfact> 0.38150742E+04</totfact>
</mgrwt>
</event>
<event>
 7    0  0.4685107E-002  0.4575664E+03  0.7546771E-02  0.1025489E+00
         21   -1    0    0  502  501  0.00000000000E+00  0.00000000000E+00  0.91540527414E+02  0.91540527414E+02  0.00000000000E+00 0.  1.
         21   -1    0    0  501  502 -0.00000000000E+00 -0.00000000000E+00 -0.57178785509E+03  0.57178785509E+03  0.00000000000E+00 0.  1.
      99926    2    1    2    0    0  0.00000000000E+00  0.00000000000E+00 -0.48024732768E+03  0.66332838251E+03  0.45756644031E+03 0.  0.
      99925    2    3    3    0    0  0.47569843473E+02 -0.10213413943E+03 -0.26440282337E+03  0.38959378369E+03  0.26302127451E+03 0.  0.
         25    1    4    4    0    0  0.18120790109E+02 -0.87584387913E+02 -0.17154992428E+03  0.23038288274E+03  0.12509000000E+03 0.  0.
         25    1    4    4    0    0  0.29449053364E+02 -0.14549751515E+02 -0.92852899082E+02  0.15921090095E+03  0.12509000000E+03 0.  0.
         25    1    3    3    0    0 -0.47569843473E+02  0.10213413943E+03 -0.21584450431E+03  0.27373459881E+03  0.12509000000E+03 0.  0.
<mgrwt>
<rscale>  2 0.45756644E+03</rscale>
<asrwt>0</asrwt>
<pdfrwt beam="1">  1       21 0.13461843E-01 0.45756644E+03</pdfrwt>
<pdfrwt beam="2">  1       21 0.84086446E-01 0.45756644E+03</pdfrwt>
<totfact> 0.53841482E+04</totfact>
</mgrwt>
</event>
<event>
 7    0  0.4685107E-002  0.4555608E+03  0.7546771E-02  0.1026077E+00
         21   -1    0    0  502  501  0.00000000000E+00  0.00000000000E+00  0.20116366229E+03  0.20116366229E+03  0.00000000000E+00 0. -1.
         21   -1    0    0  501  502 -0.00000000000E+00 -0.00000000000E+00 -0.25791889184E+03  0.25791889184E+03  0.00000000000E+00 0. -1.
      99926    2    1    2    0    0 -0.14210854715E-13  0.00000000000E+00 -0.56755229558E+02  0.45908255413E+03  0.45556079224E+03 0.  0.
      99925    2    3    3    0    0 -0.68668003586E+02  0.72768493671E+02 -0.90082277771E+02  0.29547097560E+03  0.26301660074E+03 0.  0.
         25    1    3    3    0    0  0.68668003586E+02 -0.72768493671E+02  0.33327048213E+02  0.16361157853E+03  0.12509000000E+03 0.  0.
         25    1    4    4    0    0 -0.51890190332E+02  0.52799357782E+02 -0.12288752749E+02  0.14587284044E+03  0.12509000000E+03 0.  0.
         25    1    4    4    0    0 -0.16777813253E+02  0.19969135889E+02 -0.77793525022E+02  0.14959813515E+03  0.12509000000E+03 0.  0.
<mgrwt>
<rscale>  2 0.45556079E+03</rscale>
<asrwt>0</asrwt>
<pdfrwt beam="1">  1       21 0.29582892E-01 0.45556079E+03</pdfrwt>
<pdfrwt beam="2">  1       21 0.37929249E-01 0.45556079E+03</pdfrwt>
<totfact> 0.67943079E+04</totfact>
</mgrwt>
</event>
<event>
 7    0  0.4685107E-002  0.4097852E+03  0.7546771E-02  0.1040443E+00
         21   -1    0    0  502  501  0.00000000000E+00  0.00000000000E+00  0.94569434073E+03  0.94569434073E+03  0.00000000000E+00 0. -1.
         21   -1    0    0  501  502 -0.00000000000E+00 -0.00000000000E+00 -0.44391707208E+02  0.44391707208E+02  0.00000000000E+00 0. -1.
      99926    2    1    2    0    0  0.00000000000E+00 -0.71054273576E-14  0.90130263353E+03  0.99008604794E+03  0.40978524269E+03 0.  0.
      99925    2    3    3    0    0 -0.39031542307E+02  0.41946278469E+02  0.64331581358E+03  0.69770332113E+03  0.26391615476E+03 0.  0.
         25    1    4    4    0    0 -0.74808561871E+01 -0.46691290207E+00  0.39857548865E+03  0.41781109304E+03  0.12509000000E+03 0.  0.
         25    1    4    4    0    0 -0.31550686120E+02  0.42413191371E+02  0.24474032493E+03  0.27989222809E+03  0.12509000000E+03 0.  0.
         25    1    3    3    0    0  0.39031542307E+02 -0.41946278469E+02  0.25798681995E+03  0.29238272681E+03  0.12509000000E+03 0.  0.
<mgrwt>
<rscale>  2 0.40978524E+03</rscale>
<asrwt>0</asrwt>
<pdfrwt beam="1">  1       21 0.13907268E+00 0.40978524E+03</pdfrwt>
<pdfrwt beam="2">  1       21 0.65281928E-02 0.40978524E+03</pdfrwt>
<totfact> 0.57257531E+04</totfact>
</mgrwt>
</event>
<event>
 7    0  0.4685107E-002  0.4629436E+03  0.7546771E-02  0.1023931E+00
         21   -1    0    0  502  501  0.00000000000E+00  0.00000000000E+00  0.10678813429E+04  0.10678813429E+04  0.00000000000E+00 0.  1.
         21   -1    0    0  501  502 -0.00000000000E+00 -0.00000000000E+00 -0.50173363334E+02  0.50173363334E+02  0.00000000000E+00 0.  1.
      99926    2    1    2    0    0  0.00000000000E+00 -0.71054273576E-14  0.10177079796E+04  0.11180547063E+04  0.46294361910E+03 0.  0.
      99925    2    3    3    0    0  0.54436631837E+02 -0.48346778467E+02  0.86779848854E+03  0.90967735269E+03  0.26294088956E+03 0.  0.
         25    1    3    3    0    0 -0.54436631837E+02  0.48346778467E+02  0.14990949104E+03  0.20837735357E+03  0.12509000000E+03 0.  0.
         25    1    4    4    0    0  0.60987785227E+02 -0.48414447409E+02  0.45051941281E+03  0.47400286717E+03  0.12509000000E+03 0.  0.
         25    1    4    4    0    0 -0.65511533903E+01  0.67668942178E-01  0.41727907573E+03  0.43567448552E+03  0.12509000000E+03 0.  0.
<mgrwt>
<rscale>  2 0.46294362E+03</rscale>
<asrwt>0</asrwt>
<pdfrwt beam="1">  1       21 0.15704136E+00 0.46294362E+03</pdfrwt>
<pdfrwt beam="2">  1       21 0.73784364E-02 0.46294362E+03</pdfrwt>
<totfact> 0.32788787E+04</totfact>
</mgrwt>
</event>
<event>
 7    0  0.4685107E-002  0.4526981E+03  0.7546771E-02  0.1026920E+00
         21   -1    0    0  502  501  0.00000000000E+00  0.00000000000E+00  0.17190550347E+03  0.17190550347E+03  0.00000000000E+00 0. -1.
         21   -1    0    0  501  502 -0.00000000000E+00 -0.00000000000E+00 -0.29803516071E+03  0.29803516071E+03  0.00000000000E+00 0. -1.
      99926    2    1    2    0    0  0.00000000000E+00  0.00000000000E+00 -0.12612965724E+03  0.46994066417E+03  0.45269806428E+03 0.  0.
      99925    2    3    3    0    0 -0.53807429957E+02  0.74664343229E+02 -0.14417871562E+03  0.31359719524E+03  0.26284157806E+03 0.  0.
         25    1    3    3    0    0  0.53807429957E+02 -0.74664343229E+02  0.18049058384E+02  0.15634346893E+03  0.12509000000E+03 0.  0.
         25    1    4    4    0    0 -0.47931607778E+02  0.34107089597E+01 -0.61027899912E+02  0.14724464210E+03  0.12509000000E+03 0.  0.
         25    1    4    4    0    0 -0.58758221784E+01  0.71253634269E+02 -0.83150815711E+02  0.16635255314E+03  0.12509000000E+03 0.  0.
<mgrwt>
<rscale>  2 0.45269806E+03</rscale>
<asrwt>0</asrwt>
<pdfrwt beam="1">  1       21 0.25280222E-01 0.45269806E+03</pdfrwt>
<pdfrwt beam="2">  1       21 0.43828699E-01 0.45269806E+03</pdfrwt>
<totfact> 0.68685977E+04</totfact>
</mgrwt>
</event>
<event>
 7    0  0.4685107E-002  0.4548140E+03  0.7546771E-02  0.1026296E+00
         21   -1    0    0  502  501  0.00000000000E+00  0.00000000000E+00  0.28813132687E+02  0.28813132687E+02  0.00000000000E+00 0. -1.
         21   -1    0    0  501  502 -0.00000000000E+00 -0.00000000000E+00 -0.17948045411E+04  0.17948045411E+04  0.00000000000E+00 0. -1.
      99926    2    1    2    0    0  0.00000000000E+00  0.00000000000E+00 -0.17659914084E+04  0.18236176738E+04  0.45481399006E+03 0.  0.
      99925    2    3    3    0    0 -0.75367375363E+02 -0.31121643718E+02 -0.79798789789E+03  0.84416522345E+03  0.26302365166E+03 0.  0.
         25    1    4    4    0    0 -0.67014450107E+02 -0.29538266287E+02 -0.50703715762E+03  0.52734963071E+03  0.12509000000E+03 0.  0.
         25    1    4    4    0    0 -0.83529252560E+01 -0.15833774319E+01 -0.29095074027E+03  0.31681559274E+03  0.12509000000E+03 0.  0.
         25    1    3    3    0    0  0.75367375363E+02  0.31121643718E+02 -0.96800351052E+03  0.97945245033E+03  0.12509000000E+03 0.  0.
<mgrwt>
<rscale>  2 0.45481399E+03</rscale>
<asrwt>0</asrwt>
<pdfrwt beam="1">  1       21 0.42372258E-02 0.45481399E+03</pdfrwt>
<pdfrwt beam="2">  1       21 0.26394182E+00 0.45481399E+03</pdfrwt>
<totfact> 0.16834371E+04</totfact>
</mgrwt>
</event>
<event>
 7    0  0.4685107E-002  0.4282529E+03  0.7546771E-02  0.1034413E+00
         21   -1    0    0  502  501  0.00000000000E+00  0.00000000000E+00  0.95516920688E+02  0.95516920688E+02  0.00000000000E+00 0. -1.
         21   -1    0    0  501  502 -0.00000000000E+00 -0.00000000000E+00 -0.48002112359E+03  0.48002112359E+03  0.00000000000E+00 0. -1.
      99926    2    1    2    0    0  0.00000000000E+00  0.00000000000E+00 -0.38450420290E+03  0.57553804428E+03  0.42825291401E+03 0.  0.
      99925    2    3    3    0    0  0.10745890625E+02  0.22819040549E+02 -0.35843795672E+03  0.44529542427E+03  0.26300962583E+03 0.  0.
         25    1    4    4    0    0  0.16219798789E+02  0.29333915622E+02 -0.24056718511E+03  0.27320988110E+03  0.12509000000E+03 0.  0.
         25    1    4    4    0    0 -0.54739081638E+01 -0.65148750725E+01 -0.11787077160E+03  0.17208554316E+03  0.12509000000E+03 0.  0.
         25    1    3    3    0    0 -0.10745890625E+02 -0.22819040549E+02 -0.26066246183E+02  0.13024262001E+03  0.12509000000E+03 0.  0.
<mgrwt>
<rscale>  2 0.42825291E+03</rscale>
<asrwt>0</asrwt>
<pdfrwt beam="1">  1       21 0.14046606E-01 0.42825291E+03</pdfrwt>
<pdfrwt beam="2">  1       21 0.70591342E-01 0.42825291E+03</pdfrwt>
<totfact> 0.74820286E+04</totfact>
</mgrwt>
</event>
<event>
 7    0  0.4685107E-002  0.4545279E+03  0.7546771E-02  0.1026380E+00
         21   -1    0    0  502  501  0.00000000000E+00  0.00000000000E+00  0.22219691543E+04  0.22219691543E+04  0.00000000000E+00 0. -1.
         21   -1    0    0  501  502 -0.00000000000E+00 -0.00000000000E+00 -0.23244653578E+02  0.23244653578E+02  0.00000000000E+00 0. -1.
      99926    2    1    2    0    0 -0.17763568394E-14  0.71054273576E-14  0.21987245008E+04  0.22452138079E+04  0.45452790125E+03 0.  0.
      99925    2    3    3    0    0  0.68129805658E+01 -0.38212193766E+02  0.86051013884E+03  0.90060539838E+03  0.26287981300E+03 0.  0.
         25    1    3    3    0    0 -0.68129805658E+01  0.38212193766E+02  0.13382143619E+04  0.13446084095E+04  0.12509000000E+03 0.  0.
         25    1    4    4    0    0 -0.19633065536E+02 -0.32614703346E+02  0.53728979009E+03  0.55297106866E+03  0.12509000000E+03 0.  0.
         25    1    4    4    0    0  0.26446046102E+02 -0.55974904190E+01  0.32322034875E+03  0.34763432972E+03  0.12509000000E+03 0.  0.
<mgrwt>
<rscale>  2 0.45452790E+03</rscale>
<asrwt>0</asrwt>
<pdfrwt beam="1">  1       21 0.32676002E+00 0.45452790E+03</pdfrwt>
<pdfrwt beam="2">  1       21 0.34183329E-02 0.45452790E+03</pdfrwt>
<totfact> 0.10140585E+04</totfact>
</mgrwt>
</event>
<event>
 6    0  0.4685107E-002  0.4301371E+03  0.7546771E-02  0.1033817E+00
         21   -1    0    0  502  501  0.00000000000E+00  0.00000000000E+00  0.67825044308E+02  0.67825044308E+02  0.00000000000E+00 0.  1.
         21   -1    0    0  501  502 -0.00000000000E+00 -0.00000000000E+00 -0.68196759488E+03  0.68196759488E+03  0.00000000000E+00 0.  1.
      99926    2    1    2    0    0  0.00000000000E+00  0.88817841970E-15 -0.61414255058E+03  0.74979263919E+03  0.43013710530E+03 0.  0.
         25    1    3    3    0    0 -0.21368925493E+02  0.13745406868E+02 -0.12893588207E+03  0.18143190726E+03  0.12509000000E+03 0.  0.
         25    1    3    3    0    0 -0.38469830813E+02  0.68411059998E+01 -0.34944936576E+03  0.37321454412E+03  0.12509000000E+03 0.  0.
         25    1    3    3    0    0  0.59838756306E+02 -0.20586512868E+02 -0.13575730275E+03  0.19514618782E+03  0.12509000000E+03 0.  0.
<mgrwt>
<rscale>  2 0.43013711E+03</rscale>
<asrwt>0</asrwt>
<pdfrwt beam="1">  1       21 0.99742710E-02 0.43013711E+03</pdfrwt>
<pdfrwt beam="2">  1       21 0.10028935E+00 0.43013711E+03</pdfrwt>
<totfact> 0.61432772E+04</totfact>
</mgrwt>
</event>
<event>
 6    0  0.4685107E-002  0.4550698E+03  0.7546771E-02  0.1026221E+00
         21   -1    0    0  502  501  0.00000000000E+00  0.00000000000E+00  0.42255113001E+03  0.42255113001E+03  0.00000000000E+00 0. -1.
         21   -1    0    0  501  502 -0.00000000000E+00 -0.00000000000E+00 -0.12252273868E+03  0.12252273868E+03  0.00000000000E+00 0. -1.
      99926    2    1    2    0    0  0.14210854715E-13  0.00000000000E+00  0.30002839134E+03  0.54507386869E+03  0.45506976028E+03 0.  0.
         25    1    3    3    0    0 -0.16000721531E+02 -0.22795092179E+02  0.99749034982E+02  0.16239771364E+03  0.12509000000E+03 0.  0.
         25    1    3    3    0    0 -0.81183781729E+02  0.15309877623E+01  0.15818164901E+03  0.21739846486E+03  0.12509000000E+03 0.  0.
         25    1    3    3    0    0  0.97184503261E+02  0.21264104416E+02  0.42097707350E+02  0.16527769019E+03  0.12509000000E+03 0.  0.
<mgrwt>
<rscale>  2 0.45506976E+03</rscale>
<asrwt>0</asrwt>
<pdfrwt beam="1">  1       21 0.62139872E-01 0.45506976E+03</pdfrwt>
<pdfrwt beam="2">  1       21 0.18018050E-01 0.45506976E+03</pdfrwt>
<totfact> 0.62158894E+04</totfact>
</mgrwt>
</event>
<event>
 7    0  0.4685107E-002  0.4525521E+03  0.7546771E-02  0.1026964E+00
         21   -1    0    0  502  501  0.00000000000E+00  0.00000000000E+00  0.17974448328E+03  0.17974448328E+03  0.00000000000E+00 0. -1.
         21   -1    0    0  501  502 -0.00000000000E+00 -0.00000000000E+00 -0.28485353199E+03  0.28485353199E+03  0.00000000000E+00 0. -1.
      99926    2    1    2    0    0  0.00000000000E+00  0.35527136788E-14 -0.10510904870E+03  0.46459801527E+03  0.45255210051E+03 0.  0.
      99925    2    3    3    0    0 -0.10183106277E+03  0.31573557434E+02 -0.98027559566E+02  0.30008628176E+03  0.26282298072E+03 0.  0.
         25    1    4    4    0    0 -0.84541357436E+02  0.38979332244E+02 -0.67778012775E+02  0.17002351771E+03  0.12509000000E+03 0.  0.
         25    1    4    4    0    0 -0.17289705332E+02 -0.74057748101E+01 -0.30249546790E+02  0.13006276405E+03  0.12509000000E+03 0.  0.
         25    1    3    3    0    0  0.10183106277E+03 -0.31573557434E+02 -0.70814891372E+01  0.16451173351E+03  0.12509000000E+03 0.  0.
<mgrwt>
<rscale>  2 0.45255210E+03</rscale>
<asrwt>0</asrwt>
<pdfrwt beam="1">  1       21 0.26433012E-01 0.45255210E+03</pdfrwt>
<pdfrwt beam="2">  1       21 0.41890225E-01 0.45255210E+03</pdfrwt>
<totfact> 0.69173295E+04</totfact>
</mgrwt>
</event>
<event>
 7    0  0.4685107E-002  0.4537732E+03  0.7546771E-02  0.1026603E+00
         21   -1    0    0  502  501  0.00000000000E+00  0.00000000000E+00  0.16465835362E+04  0.16465835362E+04  0.00000000000E+00 0. -1.
         21   -1    0    0  501  502 -0.00000000000E+00 -0.00000000000E+00 -0.31263229642E+02  0.31263229642E+02  0.00000000000E+00 0. -1.
      99926    2    1    2    0    0  0.00000000000E+00 -0.14210854715E-13  0.16153203066E+04  0.16778467659E+04  0.45377315574E+03 0.  0.
      99925    2    3    3    0    0 -0.51621409007E+02 -0.66354627967E+02  0.74376735594E+03  0.79335834854E+03  0.26298266655E+03 0.  0.
         25    1    4    4    0    0 -0.63067131909E+02 -0.29217773316E+02  0.43572988283E+03  0.45862749623E+03  0.12509000000E+03 0.  0.
         25    1    3    3    0    0  0.51621409007E+02  0.66354627967E+02  0.87155295064E+03  0.88448841733E+03  0.12509000000E+03 0.  0.
         25    1    4    4    0    0  0.11445722902E+02 -0.37136854651E+02  0.30803747311E+03  0.33473085231E+03  0.12509000000E+03 0.  0.
<mgrwt>
<rscale>  2 0.45377316E+03</rscale>
<asrwt>0</asrwt>
<pdfrwt beam="1">  1       21 0.24214458E+00 0.45377316E+03</pdfrwt>
<pdfrwt beam="2">  1       21 0.45975349E-02 0.45377316E+03</pdfrwt>
<totfact> 0.19915557E+04</totfact>
</mgrwt>
</event>
<event>
 7    0  0.4685107E-002  0.4547375E+03  0.7546771E-02  0.1026319E+00
         21   -1    0    0  502  501  0.00000000000E+00  0.00000000000E+00  0.59733864427E+02  0.59733864427E+02  0.00000000000E+00 0. -1.
         21   -1    0    0  501  502 -0.00000000000E+00 -0.00000000000E+00 -0.86544793020E+03  0.86544793020E+03  0.00000000000E+00 0. -1.
      99926    2    1    2    0    0  0.00000000000E+00  0.00000000000E+00 -0.80571406577E+03  0.92518179463E+03  0.45473750376E+03 0.  0.
      99925    2    3    3    0    0 -0.53843023445E+02  0.74444206627E+02 -0.64010339687E+03  0.69821172429E+03  0.26329876980E+03 0.  0.
         25    1    4    4    0    0 -0.56938841871E+01  0.56428622088E+02 -0.24874980318E+03  0.28414887364E+03  0.12509000000E+03 0.  0.
         25    1    4    4    0    0 -0.48149139258E+02  0.18015584538E+02 -0.39135359369E+03  0.41406285065E+03  0.12509000000E+03 0.  0.
         25    1    3    3    0    0  0.53843023445E+02 -0.74444206627E+02 -0.16561066891E+03  0.22697007034E+03  0.12509000000E+03 0.  0.
<mgrwt>
<rscale>  2 0.45473750E+03</rscale>
<asrwt>0</asrwt>
<pdfrwt beam="1">  1       21 0.87843917E-02 0.45473750E+03</pdfrwt>
<pdfrwt beam="2">  1       21 0.12727176E+00 0.45473750E+03</pdfrwt>
<totfact> 0.42249183E+04</totfact>
</mgrwt>
</event>
<event>
 7    0  0.4685107E-002  0.4487635E+03  0.7546771E-02  0.1028091E+00
         21   -1    0    0  502  501  0.00000000000E+00  0.00000000000E+00  0.46288901165E+03  0.46288901165E+03  0.00000000000E+00 0.  1.
         21   -1    0    0  501  502 -0.00000000000E+00 -0.00000000000E+00 -0.10876728168E+03  0.10876728168E+03  0.00000000000E+00 0.  1.
      99926    2    1    2    0    0  0.71054273576E-14  0.17763568394E-14  0.35412172996E+03  0.57165629333E+03  0.44876354360E+03 0.  0.
      99925    2    3    3    0    0  0.57311618479E+02 -0.12750358185E+02  0.10922290796E+03  0.29046217112E+03  0.26266220889E+03 0.  0.
         25    1    3    3    0    0 -0.57311618479E+02  0.12750358185E+02  0.24489882200E+03  0.28119412221E+03  0.12509000000E+03 0.  0.
         25    1    4    4    0    0  0.28392386759E+02  0.30698670940E+02  0.37541168746E+02  0.13713272211E+03  0.12509000000E+03 0.  0.
         25    1    4    4    0    0  0.28919231720E+02 -0.43449029125E+02  0.71681739215E+02  0.15332944900E+03  0.12509000000E+03 0.  0.
<mgrwt>
<rscale>  2 0.44876354E+03</rscale>
<asrwt>0</asrwt>
<pdfrwt beam="1">  1       21 0.68071913E-01 0.44876354E+03</pdfrwt>
<pdfrwt beam="2">  1       21 0.15995189E-01 0.44876354E+03</pdfrwt>
<totfact> 0.63533304E+04</totfact>
</mgrwt>
</event>
<event>
 7    0  0.4685107E-002  0.4531243E+03  0.7546771E-02  0.1026794E+00
         21   -1    0    0  502  501  0.00000000000E+00  0.00000000000E+00  0.12832389531E+03  0.12832389531E+03  0.00000000000E+00 0.  1.
         21   -1    0    0  501  502 -0.00000000000E+00 -0.00000000000E+00 -0.40000665710E+03  0.40000665710E+03  0.00000000000E+00 0.  1.
      99926    2    1    2    0    0  0.15543122345E-14  0.00000000000E+00 -0.27168276179E+03  0.52833055241E+03  0.45312432020E+03 0.  0.
      99925    2    3    3    0    0 -0.15380407436E+01  0.11123510352E+03 -0.18060687309E+03  0.33775789061E+03  0.26284203667E+03 0.  0.
         25    1    4    4    0    0 -0.29240808533E+02  0.29823447974E+02 -0.10259984738E+03  0.16708889764E+03  0.12509000000E+03 0.  0.
         25    1    4    4    0    0  0.27702767790E+02  0.81411655542E+02 -0.78007025712E+02  0.17066899297E+03  0.12509000000E+03 0.  0.
         25    1    3    3    0    0  0.15380407436E+01 -0.11123510352E+03 -0.91075888700E+02  0.19057266180E+03  0.12509000000E+03 0.  0.
<mgrwt>
<rscale>  2 0.45312432E+03</rscale>
<asrwt>0</asrwt>
<pdfrwt beam="1">  1       21 0.18871161E-01 0.45312432E+03</pdfrwt>
<pdfrwt beam="2">  1       21 0.58824508E-01 0.45312432E+03</pdfrwt>
<totfact> 0.64269878E+04</totfact>
</mgrwt>
</event>
<event>
 7    0  0.4685107E-002  0.4474636E+03  0.7546771E-02  0.1028481E+00
         21   -1    0    0  502  501  0.00000000000E+00  0.00000000000E+00  0.22611524434E+03  0.22611524434E+03  0.00000000000E+00 0. -1.
         21   -1    0    0  501  502 -0.00000000000E+00 -0.00000000000E+00 -0.22137344550E+03  0.22137344550E+03  0.00000000000E+00 0. -1.
      99926    2    1    2    0    0  0.00000000000E+00 -0.71054273576E-14  0.47417988367E+01  0.44748868984E+03  0.44746356598E+03 0.  0.
      99925    2    3    3    0    0  0.45335526385E+02  0.55415975586E+02 -0.75269405713E+02  0.28263863295E+03  0.26285523221E+03 0.  0.
         25    1    4    4    0    0 -0.16696094354E+02  0.36957948618E+02 -0.40003121455E+02  0.13744965391E+03  0.12509000000E+03 0.  0.
         25    1    4    4    0    0  0.62031620738E+02  0.18458026968E+02 -0.35266284258E+02  0.14518897905E+03  0.12509000000E+03 0.  0.
         25    1    3    3    0    0 -0.45335526385E+02 -0.55415975586E+02  0.80011204550E+02  0.16485005689E+03  0.12509000000E+03 0.  0.
<mgrwt>
<rscale>  2 0.44746357E+03</rscale>
<asrwt>0</asrwt>
<pdfrwt beam="1">  1       21 0.33252242E-01 0.44746357E+03</pdfrwt>
<pdfrwt beam="2">  1       21 0.32554919E-01 0.44746357E+03</pdfrwt>
<totfact> 0.73415991E+04</totfact>
</mgrwt>
</event>
<event>
 7    0  0.4685107E-002  0.4481622E+03  0.7546771E-02  0.1028272E+00
         21   -1    0    0  502  501  0.00000000000E+00  0.00000000000E+00  0.63611691740E+02  0.63611691740E+02  0.00000000000E+00 0. -1.
         21   -1    0    0  501  502 -0.00000000000E+00 -0.00000000000E+00 -0.78935720117E+03  0.78935720117E+03  0.00000000000E+00 0. -1.
      99926    2    1    2    0    0  0.00000000000E+00  0.14210854715E-13 -0.72574550943E+03  0.85296889291E+03  0.44816223381E+03 0.  0.
      99925    2    3    3    0    0  0.21204414558E+02  0.99569933311E+02 -0.39920763129E+03  0.48877348824E+03  0.26299998311E+03 0.  0.
         25    1    4    4    0    0  0.67319066989E+00  0.11692469029E+02 -0.14965905404E+03  0.19540344822E+03  0.12509000000E+03 0.  0.
         25    1    3    3    0    0 -0.21204414558E+02 -0.99569933311E+02 -0.32653787814E+03  0.36419540466E+03  0.12509000000E+03 0.  0.
         25    1    4    4    0    0  0.20531223888E+02  0.87877464282E+02 -0.24954857724E+03  0.29337004003E+03  0.12509000000E+03 0.  0.
<mgrwt>
<rscale>  2 0.44816223E+03</rscale>
<asrwt>0</asrwt>
<pdfrwt beam="1">  1       21 0.93546610E-02 0.44816223E+03</pdfrwt>
<pdfrwt beam="2">  1       21 0.11608194E+00 0.44816223E+03</pdfrwt>
<totfact> 0.47820639E+04</totfact>
</mgrwt>
</event>
<event>
 7    0  0.4685107E-002  0.4491556E+03  0.7546771E-02  0.1027974E+00
         21   -1    0    0  502  501  0.00000000000E+00  0.00000000000E+00  0.32306615423E+02  0.32306615423E+02  0.00000000000E+00 0. -1.
         21   -1    0    0  501  502 -0.00000000000E+00 -0.00000000000E+00 -0.15611413299E+04  0.15611413299E+04  0.00000000000E+00 0. -1.
      99926    2    1    2    0    0  0.00000000000E+00  0.17763568394E-14 -0.15288347145E+04  0.15934479453E+04  0.44915561921E+03 0.  0.
      99925    2    3    3    0    0 -0.10718475813E+03  0.98595139716E+01 -0.96822054602E+03  0.10090495056E+04  0.26295265087E+03 0.  0.
         25    1    4    4    0    0 -0.51390678240E+02 -0.54636407108E+01 -0.61883007676E+03  0.63345799007E+03  0.12509000000E+03 0.  0.
         25    1    3    3    0    0  0.10718475813E+03 -0.98595139716E+01 -0.56061416845E+03  0.58439843973E+03  0.12509000000E+03 0.  0.
         25    1    4    4    0    0 -0.55794079886E+02  0.15323154682E+02 -0.34939046926E+03  0.37559151552E+03  0.12509000000E+03 0.  0.
<mgrwt>
<rscale>  2 0.44915562E+03</rscale>
<asrwt>0</asrwt>
<pdfrwt beam="1">  1       21 0.47509726E-02 0.44915562E+03</pdfrwt>
<pdfrwt beam="2">  1       21 0.22957962E+00 0.44915562E+03</pdfrwt>
<totfact> 0.22585988E+04</totfact>
</mgrwt>
</event>
<event>
 7    0  0.4685107E-002  0.4465663E+03  0.7546771E-02  0.1028751E+00
         21   -1    0    0  502  501  0.00000000000E+00  0.00000000000E+00  0.34746848456E+03  0.34746848456E+03  0.00000000000E+00 0.  1.
         21   -1    0    0  501  502 -0.00000000000E+00 -0.00000000000E+00 -0.14348168817E+03  0.14348168817E+03  0.00000000000E+00 0.  1.
      99926    2    1    2    0    0  0.00000000000E+00  0.00000000000E+00  0.20398679639E+03  0.49095017272E+03  0.44656629854E+03 0.  0.
      99925    2    3    3    0    0 -0.74350098125E+02  0.38935374249E+02  0.60156420184E+02  0.28267490852E+03  0.26313952299E+03 0.  0.
         25    1    4    4    0    0 -0.62621229891E+02 -0.16418434336E+01  0.61685631478E+01  0.14003454343E+03  0.12509000000E+03 0.  0.
         25    1    4    4    0    0 -0.11728868234E+02  0.40577217682E+02  0.53987857036E+02  0.14264036509E+03  0.12509000000E+03 0.  0.
         25    1    3    3    0    0  0.74350098125E+02 -0.38935374249E+02  0.14383037621E+03  0.20827526421E+03  0.12509000000E+03 0.  0.
<mgrwt>
<rscale>  2 0.44656630E+03</rscale>
<asrwt>0</asrwt>
<pdfrwt beam="1">  1       21 0.51098307E-01 0.44656630E+03</pdfrwt>
<pdfrwt beam="2">  1       21 0.21100248E-01 0.44656630E+03</pdfrwt>
<totfact> 0.70515334E+04</totfact>
</mgrwt>
</event>
<event>
 7    0  0.4685107E-002  0.4301099E+03  0.7546771E-02  0.1033825E+00
         21   -1    0    0  502  501  0.00000000000E+00  0.00000000000E+00  0.44171896074E+03  0.44171896074E+03  0.00000000000E+00 0. -1.
         21   -1    0    0  501  502 -0.00000000000E+00 -0.00000000000E+00 -0.10470148475E+03  0.10470148475E+03  0.00000000000E+00 0. -1.
      99926    2    1    2    0    0 -0.35527136788E-14  0.00000000000E+00  0.33701747599E+03  0.54642044548E+03  0.43010989772E+03 0.  0.
      99925    2    3    3    0    0  0.27860474625E+02  0.55588207131E+02  0.29604450634E+03  0.40084384311E+03  0.26299654371E+03 0.  0.
         25    1    4    4    0    0  0.82237075957E+01 -0.21199438895E+01  0.99684540715E+02  0.16017689998E+03  0.12509000000E+03 0.  0.
         25    1    4    4    0    0  0.19636767029E+02  0.57708151021E+02  0.19635996563E+03  0.24066694313E+03  0.12509000000E+03 0.  0.
         25    1    3    3    0    0 -0.27860474625E+02 -0.55588207131E+02  0.40972969647E+02  0.14557660238E+03  0.12509000000E+03 0.  0.
<mgrwt>
<rscale>  2 0.43010990E+03</rscale>
<asrwt>0</asrwt>
<pdfrwt beam="1">  1       21 0.64958670E-01 0.43010990E+03</pdfrwt>
<pdfrwt beam="2">  1       21 0.15397277E-01 0.43010990E+03</pdfrwt>
<totfact> 0.76001735E+04</totfact>
</mgrwt>
</event>
<event>
 7    0  0.4685107E-002  0.4556868E+03  0.7546771E-02  0.1026040E+00
         21   -1    0    0  502  501  0.00000000000E+00  0.00000000000E+00  0.45625876889E+03  0.45625876889E+03  0.00000000000E+00 0. -1.
         21   -1    0    0  501  502 -0.00000000000E+00 -0.00000000000E+00 -0.11377889544E+03  0.11377889544E+03  0.00000000000E+00 0. -1.
      99926    2    1    2    0    0  0.00000000000E+00  0.00000000000E+00  0.34247987345E+03  0.57003766433E+03  0.45568681683E+03 0.  0.
      99925    2    3    3    0    0  0.68988044618E+02 -0.88847012275E+02  0.23681314582E+03  0.37137687978E+03  0.26303455840E+03 0.  0.
         25    1    4    4    0    0  0.67737403004E+02 -0.52761498843E+02  0.95730601657E+02  0.17939896243E+03  0.12509000000E+03 0.  0.
         25    1    4    4    0    0  0.12506416137E+01 -0.36085513432E+02  0.14108254416E+03  0.19197791735E+03  0.12509000000E+03 0.  0.
         25    1    3    3    0    0 -0.68988044618E+02  0.88847012275E+02  0.10566672763E+03  0.19866078455E+03  0.12509000000E+03 0.  0.
<mgrwt>
<rscale>  2 0.45568682E+03</rscale>
<asrwt>0</asrwt>
<pdfrwt beam="1">  1       21 0.67096877E-01 0.45568682E+03</pdfrwt>
<pdfrwt beam="2">  1       21 0.16732191E-01 0.45568682E+03</pdfrwt>
<totfact> 0.60233693E+04</totfact>
</mgrwt>
</event>
<event>
 6    0  0.4685107E-002  0.4564751E+03  0.7546771E-02  0.1025809E+00
         21   -1    0    0  502  501  0.00000000000E+00  0.00000000000E+00  0.50809341781E+03  0.50809341781E+03  0.00000000000E+00 0. -1.
         21   -1    0    0  501  502 -0.00000000000E+00 -0.00000000000E+00 -0.10252521202E+03  0.10252521202E+03  0.00000000000E+00 0. -1.
      99926    2    1    2    0    0  0.14210854715E-13 -0.17763568394E-14  0.40556820579E+03  0.61061862983E+03  0.45647512697E+03 0.  0.
         25    1    3    3    0    0 -0.95214399048E+02 -0.69372973050E+01  0.21698545452E+03  0.26803750382E+03  0.12509000000E+03 0.  0.
         25    1    3    3    0    0  0.91790985345E+02  0.17929323532E+02  0.75148923251E+02  0.17332603497E+03  0.12509000000E+03 0.  0.
         25    1    3    3    0    0  0.34234137023E+01 -0.10992026227E+02  0.11343382802E+03  0.16925509104E+03  0.12509000000E+03 0.  0.
<mgrwt>
<rscale>  2 0.45647513E+03</rscale>
<asrwt>0</asrwt>
<pdfrwt beam="1">  1       21 0.74719620E-01 0.45647513E+03</pdfrwt>
<pdfrwt beam="2">  1       21 0.15077237E-01 0.45647513E+03</pdfrwt>
<totfact> 0.57358128E+04</totfact>
</mgrwt>
</event>
<event>
 7    0  0.4685107E-002  0.4596688E+03  0.7546771E-02  0.1024877E+00
         21   -1    0    0  502  501  0.00000000000E+00  0.00000000000E+00  0.10629708699E+03  0.10629708699E+03  0.00000000000E+00 0. -1.
         21   -1    0    0  501  502 -0.00000000000E+00 -0.00000000000E+00 -0.49694540920E+03  0.49694540920E+03  0.00000000000E+00 0. -1.
      99926    2    1    2    0    0 -0.14210854715E-13  0.00000000000E+00 -0.39064832222E+03  0.60324249619E+03  0.45966879115E+03 0.  0.
      99925    2    3    3    0    0  0.82794478811E+02  0.40933866475E+02 -0.14981889463E+03  0.31657748536E+03  0.26314462924E+03 0.  0.
         25    1    4    4    0    0  0.78206711576E+02  0.33206381092E+02 -0.10178150045E+03  0.18227982723E+03  0.12509000000E+03 0.  0.
         25    1    4    4    0    0  0.45877672354E+01  0.77274853834E+01 -0.48037394181E+02  0.13429765813E+03  0.12509000000E+03 0.  0.
         25    1    3    3    0    0 -0.82794478811E+02 -0.40933866475E+02 -0.24082942759E+03  0.28666501084E+03  0.12509000000E+03 0.  0.
<mgrwt>
<rscale>  2 0.45966879E+03</rscale>
<asrwt>0</asrwt>
<pdfrwt beam="1">  1       21 0.15631925E-01 0.45966879E+03</pdfrwt>
<pdfrwt beam="2">  1       21 0.73080205E-01 0.45966879E+03</pdfrwt>
<totfact> 0.56370838E+04</totfact>
</mgrwt>
</event>
<event>
 7    0  0.4685107E-002  0.4556617E+03  0.7546771E-02  0.1026047E+00
         21   -1    0    0  502  501  0.00000000000E+00  0.00000000000E+00  0.11332077925E+03  0.11332077925E+03  0.00000000000E+00 0.  1.
         21   -1    0    0  501  502 -0.00000000000E+00 -0.00000000000E+00 -0.45805276345E+03  0.45805276345E+03  0.00000000000E+00 0.  1.
      99926    2    1    2    0    0  0.00000000000E+00  0.28865798640E-14 -0.34473198419E+03  0.57137354270E+03  0.45566169948E+03 0.  0.
      99925    2    3    3    0    0  0.70558392703E+02 -0.51107047474E+00 -0.32777975331E+03  0.42675807255E+03  0.26401541212E+03 0.  0.
         25    1    3    3    0    0 -0.70558392703E+02  0.51107047474E+00 -0.16952230883E+02  0.14461547015E+03  0.12509000000E+03 0.  0.
         25    1    4    4    0    0  0.29847832800E+02 -0.40915748486E+02 -0.14687690706E+03  0.19946259179E+03  0.12509000000E+03 0.  0.
         25    1    4    4    0    0  0.40710559903E+02  0.40404678011E+02 -0.18090284625E+03  0.22729548076E+03  0.12509000000E+03 0.  0.
<mgrwt>
<rscale>  2 0.45566170E+03</rscale>
<asrwt>0</asrwt>
<pdfrwt beam="1">  1       21 0.16664821E-01 0.45566170E+03</pdfrwt>
<pdfrwt beam="2">  1       21 0.67360700E-01 0.45566170E+03</pdfrwt>
<totfact> 0.60160430E+04</totfact>
</mgrwt>
</event>
<event>
 7    0  0.4685107E-002  0.4542437E+03  0.7546771E-02  0.1026464E+00
         21   -1    0    0  502  501  0.00000000000E+00  0.00000000000E+00  0.69746406586E+02  0.69746406586E+02  0.00000000000E+00 0. -1.
         21   -1    0    0  501  502 -0.00000000000E+00 -0.00000000000E+00 -0.73959839600E+03  0.73959839600E+03  0.00000000000E+00 0. -1.
      99926    2    1    2    0    0  0.00000000000E+00  0.00000000000E+00 -0.66985198942E+03  0.80934480259E+03  0.45424368103E+03 0.  0.
      99925    2    3    3    0    0  0.62115866097E+02  0.60518041406E+02 -0.54922371768E+03  0.61512970997E+03  0.26309134132E+03 0.  0.
         25    1    4    4    0    0 -0.97785724423E+01  0.30052213990E+02 -0.27543973620E+03  0.30416001122E+03  0.12509000000E+03 0.  0.
         25    1    3    3    0    0 -0.62115866097E+02 -0.60518041406E+02 -0.12062827174E+03  0.19421509262E+03  0.12509000000E+03 0.  0.
         25    1    4    4    0    0  0.71894438539E+02  0.30465827416E+02 -0.27378398147E+03  0.31096969876E+03  0.12509000000E+03 0.  0.
<mgrwt>
<rscale>  2 0.45424368E+03</rscale>
<asrwt>0</asrwt>
<pdfrwt beam="1">  1       21 0.10256825E-01 0.45424368E+03</pdfrwt>
<pdfrwt beam="2">  1       21 0.10876447E+00 0.45424368E+03</pdfrwt>
<totfact> 0.47598000E+04</totfact>
</mgrwt>
</event>
<event>
 7    0  0.4685107E-002  0.4583147E+03  0.7546771E-02  0.1025271E+00
         21   -1    0    0  502  501  0.00000000000E+00  0.00000000000E+00  0.29787651776E+03  0.29787651776E+03  0.00000000000E+00 0. -1.
         21   -1    0    0  501  502 -0.00000000000E+00 -0.00000000000E+00 -0.17629148805E+03  0.17629148805E+03  0.00000000000E+00 0. -1.
      99926    2    1    2    0    0  0.00000000000E+00  0.00000000000E+00  0.12158502970E+03  0.47416800581E+03  0.45831471533E+03 0.  0.
      99925    2    3    3    0    0  0.91059331357E+02 -0.30799053115E+02  0.14385232516E+03  0.31484530169E+03  0.26304693316E+03 0.  0.
         25    1    4    4    0    0  0.69898551047E+02  0.15848628096E+02  0.85515314870E+02  0.16762268232E+03  0.12509000000E+03 0.  0.
         25    1    4    4    0    0  0.21160780310E+02 -0.46647681211E+02  0.58337010288E+02  0.14722261937E+03  0.12509000000E+03 0.  0.
         25    1    3    3    0    0 -0.91059331357E+02  0.30799053115E+02 -0.22267295455E+02  0.15932270412E+03  0.12509000000E+03 0.  0.
<mgrwt>
<rscale>  2 0.45831472E+03</rscale>
<asrwt>0</asrwt>
<pdfrwt beam="1">  1       21 0.43805370E-01 0.45831472E+03</pdfrwt>
<pdfrwt beam="2">  1       21 0.25925219E-01 0.45831472E+03</pdfrwt>
<totfact> 0.65390389E+04</totfact>
</mgrwt>
</event>
<event>
 7    0  0.4685107E-002  0.4532170E+03  0.7546771E-02  0.1026767E+00
         21   -1    0    0  502  501  0.00000000000E+00  0.00000000000E+00  0.74023104824E+03  0.74023104824E+03  0.00000000000E+00 0.  1.
         21   -1    0    0  501  502 -0.00000000000E+00 -0.00000000000E+00 -0.69372133300E+02  0.69372133300E+02  0.00000000000E+00 0.  1.
      99926    2    1    2    0    0  0.00000000000E+00  0.71054273576E-14  0.67085891494E+03  0.80960318154E+03  0.45321697652E+03 0.  0.
      99925    2    3    3    0    0 -0.66963074293E+02  0.61494429850E+02  0.30702757168E+03  0.41427246852E+03  0.26285001461E+03 0.  0.
         25    1    4    4    0    0 -0.50735119252E+02  0.54847383479E+02  0.20705978036E+03  0.25318678588E+03  0.12509000000E+03 0.  0.
         25    1    4    4    0    0 -0.16227955041E+02  0.66470463704E+01  0.99967791323E+02  0.16108568264E+03  0.12509000000E+03 0.  0.
         25    1    3    3    0    0  0.66963074293E+02 -0.61494429850E+02  0.36383134325E+03  0.39533071302E+03  0.12509000000E+03 0.  0.
<mgrwt>
<rscale>  2 0.45321698E+03</rscale>
<asrwt>0</asrwt>
<pdfrwt beam="1">  1       21 0.10885750E+00 0.45321698E+03</pdfrwt>
<pdfrwt beam="2">  1       21 0.10201785E-01 0.45321698E+03</pdfrwt>
<totfact> 0.47971517E+04</totfact>
</mgrwt>
</event>
<event>
 7    0  0.4685107E-002  0.4877303E+03  0.7546771E-02  0.1017032E+00
         21   -1    0    0  502  501  0.00000000000E+00  0.00000000000E+00  0.34436714756E+02  0.34436714756E+02  0.00000000000E+00 0. -1.
         21   -1    0    0  501  502 -0.00000000000E+00 -0.00000000000E+00 -0.17269422196E+04  0.17269422196E+04  0.00000000000E+00 0. -1.
      99926    2    1    2    0    0  0.71054273576E-14  0.00000000000E+00 -0.16925055048E+04  0.17613789343E+04  0.48773032145E+03 0.  0.
      99925    2    3    3    0    0 -0.61147885334E+02 -0.92379237478E+02 -0.13554526448E+04  0.13851806808E+04  0.26306018098E+03 0.  0.
         25    1    4    4    0    0  0.49894917784E+01 -0.37166932495E+02 -0.72684500301E+03  0.73848320387E+03  0.12509000000E+03 0.  0.
         25    1    3    3    0    0  0.61147885334E+02  0.92379237478E+02 -0.33705286000E+03  0.37619825350E+03  0.12509000000E+03 0.  0.
         25    1    4    4    0    0 -0.66137377112E+02 -0.55212304983E+02 -0.62860764182E+03  0.64669747697E+03  0.12509000000E+03 0.  0.
<mgrwt>
<rscale>  2 0.48773032E+03</rscale>
<asrwt>0</asrwt>
<pdfrwt beam="1">  1       21 0.50642228E-02 0.48773032E+03</pdfrwt>
<pdfrwt beam="2">  1       21 0.25396209E+00 0.48773032E+03</pdfrwt>
<totfact> 0.14081142E+04</totfact>
</mgrwt>
</event>
<event>
 7    0  0.4685107E-002  0.4518565E+03  0.7546771E-02  0.1027170E+00
         21   -1    0    0  502  501  0.00000000000E+00  0.00000000000E+00  0.55965118380E+02  0.55965118380E+02  0.00000000000E+00 0. -1.
         21   -1    0    0  501  502 -0.00000000000E+00 -0.00000000000E+00 -0.91206053858E+03  0.91206053858E+03  0.00000000000E+00 0. -1.
      99926    2    1    2    0    0  0.35527136788E-14  0.00000000000E+00 -0.85609542020E+03  0.96802565696E+03  0.45185650825E+03 0.  0.
      99925    2    3    3    0    0 -0.25372654455E+02 -0.23076962772E+02 -0.76470004078E+03  0.80935322304E+03  0.26288813112E+03 0.  0.
         25    1    4    4    0    0 -0.38451620168E+02 -0.55475382612E+01 -0.29465597440E+03  0.32245767726E+03  0.12509000000E+03 0.  0.
         25    1    4    4    0    0  0.13078965713E+02 -0.17529424511E+02 -0.47004406637E+03  0.48689554578E+03  0.12509000000E+03 0.  0.
         25    1    3    3    0    0  0.25372654455E+02  0.23076962772E+02 -0.91395379421E+02  0.15867243391E+03  0.12509000000E+03 0.  0.
<mgrwt>
<rscale>  2 0.45185651E+03</rscale>
<asrwt>0</asrwt>
<pdfrwt beam="1">  1       21 0.82301643E-02 0.45185651E+03</pdfrwt>
<pdfrwt beam="2">  1       21 0.13412655E+00 0.45185651E+03</pdfrwt>
<totfact> 0.41428221E+04</totfact>
</mgrwt>
</event>
<event>
 7    0  0.4685107E-002  0.4571613E+03  0.7546771E-02  0.1025608E+00
         21   -1    0    0  502  501  0.00000000000E+00  0.00000000000E+00  0.25440041391E+03  0.25440041391E+03  0.00000000000E+00 0.  1.
         21   -1    0    0  501  502 -0.00000000000E+00 -0.00000000000E+00 -0.20538140658E+03  0.20538140658E+03  0.00000000000E+00 0.  1.
      99926    2    1    2    0    0  0.35527136788E-14  0.00000000000E+00  0.49019007327E+02  0.45978182049E+03  0.45716130564E+03 0.  0.
      99925    2    3    3    0    0  0.16806211476E+02 -0.35631530712E+02  0.13967675491E+03  0.30035036179E+03  0.26296138355E+03 0.  0.
         25    1    4    4    0    0  0.28274582512E+02 -0.53362262521E+02  0.77721531762E+02  0.15917012181E+03  0.12509000000E+03 0.  0.
         25    1    4    4    0    0 -0.11468371036E+02  0.17730731809E+02  0.61955223151E+02  0.14118023998E+03  0.12509000000E+03 0.  0.
         25    1    3    3    0    0 -0.16806211476E+02  0.35631530712E+02 -0.90657747586E+02  0.15943145870E+03  0.12509000000E+03 0.  0.
<mgrwt>
<rscale>  2 0.45716131E+03</rscale>
<asrwt>0</asrwt>
<pdfrwt beam="1">  1       21 0.37411826E-01 0.45716131E+03</pdfrwt>
<pdfrwt beam="2">  1       21 0.30203148E-01 0.45716131E+03</pdfrwt>
<totfact> 0.67033448E+04</totfact>
</mgrwt>
</event>
<event>
 7    0  0.4685107E-002  0.4470943E+03  0.7546771E-02  0.1028592E+00
         21   -1    0    0  502  501  0.00000000000E+00  0.00000000000E+00  0.24404690936E+03  0.24404690936E+03  0.00000000000E+00 0.  1.
         21   -1    0    0  501  502 -0.00000000000E+00 -0.00000000000E+00 -0.20476932149E+03  0.20476932149E+03  0.00000000000E+00 0.  1.
      99926    2    1    2    0    0  0.14210854715E-13 -0.35527136788E-14  0.39277587872E+02  0.44881623085E+03  0.44709426318E+03 0.  0.
      99925    2    3    3    0    0  0.44538021821E+02 -0.28374774713E+02  0.11667166387E+03  0.29252766977E+03  0.26300455738E+03 0.  0.
         25    1    3    3    0    0 -0.44538021821E+02  0.28374774713E+02 -0.77394075994E+02  0.15628856109E+03  0.12509000000E+03 0.  0.
         25    1    4    4    0    0  0.56190528735E+02 -0.34935102198E+02  0.73954254169E+02  0.15967021230E+03  0.12509000000E+03 0.  0.
         25    1    4    4    0    0 -0.11652506914E+02  0.65603274856E+01  0.42717409697E+02  0.13285745747E+03  0.12509000000E+03 0.  0.
<mgrwt>
<rscale>  2 0.44709426E+03</rscale>
<asrwt>0</asrwt>
<pdfrwt beam="1">  1       21 0.35889251E-01 0.44709426E+03</pdfrwt>
<pdfrwt beam="2">  1       21 0.30113136E-01 0.44709426E+03</pdfrwt>
<totfact> 0.73531038E+04</totfact>
</mgrwt>
</event>
<event>
 7    0  0.4685107E-002  0.4531474E+03  0.7546771E-02  0.1026788E+00
         21   -1    0    0  502  501  0.00000000000E+00  0.00000000000E+00  0.64971667894E+03  0.64971667894E+03  0.00000000000E+00 0. -1.
         21   -1    0    0  501  502 -0.00000000000E+00 -0.00000000000E+00 -0.79012335526E+02  0.79012335526E+02  0.00000000000E+00 0. -1.
      99926    2    1    2    0    0  0.00000000000E+00  0.35527136788E-14  0.57070434342E+03  0.72872901447E+03  0.45314735896E+03 0.  0.
      99925    2    3    3    0    0  0.10579719058E+03  0.21752601450E+02  0.40293415330E+03  0.49322834357E+03  0.26315783438E+03 0.  0.
         25    1    4    4    0    0  0.70076636991E+02 -0.10259688112E+02  0.15488442224E+03  0.21131182788E+03  0.12509000000E+03 0.  0.
         25    1    4    4    0    0  0.35720553593E+02  0.32012289562E+02  0.24804973106E+03  0.28191651568E+03  0.12509000000E+03 0.  0.
         25    1    3    3    0    0 -0.10579719058E+03 -0.21752601450E+02  0.16777019012E+03  0.23550067091E+03  0.12509000000E+03 0.  0.
<mgrwt>
<rscale>  2 0.45314736E+03</rscale>
<asrwt>0</asrwt>
<pdfrwt beam="1">  1       21 0.95546568E-01 0.45314736E+03</pdfrwt>
<pdfrwt beam="2">  1       21 0.11619461E-01 0.45314736E+03</pdfrwt>
<totfact> 0.52126068E+04</totfact>
</mgrwt>
</event>
<event>
 6    0  0.4685107E-002  0.5714820E+03  0.7546771E-02  0.9966405E-01
         21   -1    0    0  502  501  0.00000000000E+00  0.00000000000E+00  0.19556993033E+04  0.19556993033E+04  0.00000000000E+00 0. -1.
         21   -1    0    0  501  502 -0.00000000000E+00 -0.00000000000E+00 -0.41748701832E+02  0.41748701832E+02  0.00000000000E+00 0. -1.
      99925    2    1    2    0    0 -0.19862815372E+03  0.36140362744E+02  0.12059755033E+04  0.12506980356E+04  0.26288665319E+03 0.  0.
         25    1    3    3    0    0 -0.72281553462E+02  0.30322028895E+02  0.66642103246E+03  0.68257494021E+03  0.12509000000E+03 0.  0.
         25    1    3    3    0    0 -0.12634660025E+03  0.58183338490E+01  0.53955447087E+03  0.56812309542E+03  0.12509000000E+03 0.  0.
         25    1    1    2    0    0  0.19862815372E+03 -0.36140362744E+02  0.70797509811E+03  0.74674996948E+03  0.12509000000E+03 0.  0.
<mgrwt>
<rscale>  2 0.57148196E+03</rscale>
<asrwt>0</asrwt>
<pdfrwt beam="1">  1       21 0.28760278E+00 0.57148196E+03</pdfrwt>
<pdfrwt beam="2">  1       21 0.61395163E-02 0.57148196E+03</pdfrwt>
<totfact> 0.60979454E+03</totfact>
</mgrwt>
</event>
<event>
 7    0  0.4685107E-002  0.4528644E+03  0.7546771E-02  0.1026871E+00
         21   -1    0    0  502  501  0.00000000000E+00  0.00000000000E+00  0.46781001957E+03  0.46781001957E+03  0.00000000000E+00 0.  1.
         21   -1    0    0  501  502 -0.00000000000E+00 -0.00000000000E+00 -0.10959905681E+03  0.10959905681E+03  0.00000000000E+00 0.  1.
      99926    2    1    2    0    0  0.00000000000E+00  0.00000000000E+00  0.35821096276E+03  0.57740907637E+03  0.45286438106E+03 0.  0.
      99925    2    3    3    0    0  0.68911810404E+02 -0.86993652660E+02  0.23448638782E+03  0.36938981823E+03  0.26296052654E+03 0.  0.
         25    1    4    4    0    0 -0.64726530960E+01 -0.40841568976E+02  0.97504865420E+02  0.16390434977E+03  0.12509000000E+03 0.  0.
         25    1    4    4    0    0  0.75384463500E+02 -0.46152083683E+02  0.13698152240E+03  0.20548546845E+03  0.12509000000E+03 0.  0.
         25    1    3    3    0    0 -0.68911810404E+02  0.86993652660E+02  0.12372457494E+03  0.20801925815E+03  0.12509000000E+03 0.  0.
<mgrwt>
<rscale>  2 0.45286438E+03</rscale>
<asrwt>0</asrwt>
<pdfrwt beam="1">  1       21 0.68795591E-01 0.45286438E+03</pdfrwt>
<pdfrwt beam="2">  1       21 0.16117508E-01 0.45286438E+03</pdfrwt>
<totfact> 0.61116207E+04</totfact>
</mgrwt>
</event>
<event>
 7    0  0.4685107E-002  0.4441655E+03  0.7546771E-02  0.1029476E+00
         21   -1    0    0  502  501  0.00000000000E+00  0.00000000000E+00  0.11656371951E+04  0.11656371951E+04  0.00000000000E+00 0.  1.
         21   -1    0    0  501  502 -0.00000000000E+00 -0.00000000000E+00 -0.42312268408E+02  0.42312268408E+02  0.00000000000E+00 0.  1.
      99926    2    1    2    0    0 -0.71054273576E-14  0.00000000000E+00  0.11233249267E+04  0.12079494635E+04  0.44416552710E+03 0.  0.
      99925    2    3    3    0    0  0.33796821545E+02  0.12120638979E+02  0.97578637578E+03  0.10112154625E+04  0.26288500428E+03 0.  0.
         25    1    4    4    0    0  0.56795657088E+02  0.61356811418E+00  0.48426905542E+03  0.50337873343E+03  0.12509000000E+03 0.  0.
         25    1    3    3    0    0 -0.33796821545E+02 -0.12120638979E+02  0.14753855093E+03  0.19673400099E+03  0.12509000000E+03 0.  0.
         25    1    4    4    0    0 -0.22998835543E+02  0.11507070865E+02  0.49151732035E+03  0.50783672910E+03  0.12509000000E+03 0.  0.
<mgrwt>
<rscale>  2 0.44416553E+03</rscale>
<asrwt>0</asrwt>
<pdfrwt beam="1">  1       21 0.17141721E+00 0.44416553E+03</pdfrwt>
<pdfrwt beam="2">  1       21 0.62223932E-02 0.44416553E+03</pdfrwt>
<totfact> 0.34746003E+04</totfact>
</mgrwt>
</event>
<event>
 7    0  0.4685107E-002  0.4574478E+03  0.7546771E-02  0.1025524E+00
         21   -1    0    0  502  501  0.00000000000E+00  0.00000000000E+00  0.35772148653E+03  0.35772148653E+03  0.00000000000E+00 0. -1.
         21   -1    0    0  501  502 -0.00000000000E+00 -0.00000000000E+00 -0.14624399607E+03  0.14624399607E+03  0.00000000000E+00 0. -1.
      99926    2    1    2    0    0  0.00000000000E+00  0.14210854715E-13  0.21147749046E+03  0.50396548260E+03  0.45744778793E+03 0.  0.
      99925    2    3    3    0    0  0.60376434393E+02 -0.85716965100E+02  0.18599874846E+03  0.33877048773E+03  0.26301558318E+03 0.  0.
         25    1    4    4    0    0  0.29992477166E+02 -0.38765179662E+01  0.10478521128E+03  0.16595790033E+03  0.12509000000E+03 0.  0.
         25    1    3    3    0    0 -0.60376434393E+02  0.85716965100E+02  0.25478741997E+02  0.16519499487E+03  0.12509000000E+03 0.  0.
         25    1    4    4    0    0  0.30383957226E+02 -0.81840447134E+02  0.81213537182E+02  0.17281258740E+03  0.12509000000E+03 0.  0.
<mgrwt>
<rscale>  2 0.45744779E+03</rscale>
<asrwt>0</asrwt>
<pdfrwt beam="1">  1       21 0.52606101E-01 0.45744779E+03</pdfrwt>
<pdfrwt beam="2">  1       21 0.21506470E-01 0.45744779E+03</pdfrwt>
<totfact> 0.63745372E+04</totfact>
</mgrwt>
</event>
<event>
 7    0  0.4685107E-002  0.4561121E+03  0.7546771E-02  0.1025915E+00
         21   -1    0    0  502  501  0.00000000000E+00  0.00000000000E+00  0.42308546102E+03  0.42308546102E+03  0.00000000000E+00 0. -1.
         21   -1    0    0  501  502 -0.00000000000E+00 -0.00000000000E+00 -0.12292923426E+03  0.12292923426E+03  0.00000000000E+00 0. -1.
      99926    2    1    2    0    0 -0.35527136788E-14  0.00000000000E+00  0.30015622676E+03  0.54601469528E+03  0.45611214300E+03 0.  0.
      99925    2    3    3    0    0  0.27320734385E+02  0.37295234364E+02  0.63646363773E+02  0.27449714442E+03  0.26298377448E+03 0.  0.
         25    1    4    4    0    0  0.28462899461E+02  0.13189374578E+02  0.70388456784E+02  0.14692222159E+03  0.12509000000E+03 0.  0.
         25    1    3    3    0    0 -0.27320734385E+02 -0.37295234364E+02  0.23650986299E+03  0.27151755086E+03  0.12509000000E+03 0.  0.
         25    1    4    4    0    0 -0.11421650762E+01  0.24105859786E+02 -0.67420930108E+01  0.12757492283E+03  0.12509000000E+03 0.  0.
<mgrwt>
<rscale>  2 0.45611214E+03</rscale>
<asrwt>0</asrwt>
<pdfrwt beam="1">  1       21 0.62218449E-01 0.45611214E+03</pdfrwt>
<pdfrwt beam="2">  1       21 0.18077829E-01 0.45611214E+03</pdfrwt>
<totfact> 0.61586874E+04</totfact>
</mgrwt>
</event>
<event>
 7    0  0.4685107E-002  0.4526291E+03  0.7546771E-02  0.1026941E+00
         21   -1    0    0  502  501  0.00000000000E+00  0.00000000000E+00  0.17042124031E+03  0.17042124031E+03  0.00000000000E+00 0. -1.
         21   -1    0    0  501  502 -0.00000000000E+00 -0.00000000000E+00 -0.30053931421E+03  0.30053931421E+03  0.00000000000E+00 0. -1.
      99926    2    1    2    0    0  0.00000000000E+00  0.00000000000E+00 -0.13011807390E+03  0.47096055452E+03  0.45262913159E+03 0.  0.
      99925    2    3    3    0    0 -0.44019242826E+02  0.40468519673E+02  0.15114236493E+02  0.27017378478E+03  0.26303999508E+03 0.  0.
         25    1    4    4    0    0  0.12591620633E+02  0.10257790618E+01  0.19609638231E+02  0.12724640327E+03  0.12509000000E+03 0.  0.
         25    1    3    3    0    0  0.44019242826E+02 -0.40468519673E+02 -0.14523231039E+03  0.20078676974E+03  0.12509000000E+03 0.  0.
         25    1    4    4    0    0 -0.56610863459E+02  0.39442740611E+02 -0.44954017378E+01  0.14292738151E+03  0.12509000000E+03 0.  0.
<mgrwt>
<rscale>  2 0.45262913E+03</rscale>
<asrwt>0</asrwt>
<pdfrwt beam="1">  1       21 0.25061947E-01 0.45262913E+03</pdfrwt>
<pdfrwt beam="2">  1       21 0.44196958E-01 0.45262913E+03</pdfrwt>
<totfact> 0.68646604E+04</totfact>
</mgrwt>
</event>
<event>
 7    0  0.4685107E-002  0.4569336E+03  0.7546771E-02  0.1025674E+00
         21   -1    0    0  502  501  0.00000000000E+00  0.00000000000E+00  0.71257435865E+02  0.71257435865E+02  0.00000000000E+00 0. -1.
         21   -1    0    0  501  502 -0.00000000000E+00 -0.00000000000E+00 -0.73251397892E+03  0.73251397892E+03  0.00000000000E+00 0. -1.
      99926    2    1    2    0    0  0.14210854715E-13  0.00000000000E+00 -0.66125654305E+03  0.80377141478E+03  0.45693355260E+03 0.  0.
      99925    2    3    3    0    0  0.90581501122E+02 -0.64072510069E+02 -0.36201623596E+03  0.46098494425E+03  0.26294689356E+03 0.  0.
         25    1    4    4    0    0  0.65743338184E+01 -0.45310697670E+02 -0.15786858750E+03  0.20655817632E+03  0.12509000000E+03 0.  0.
         25    1    3    3    0    0 -0.90581501122E+02  0.64072510069E+02 -0.29924030709E+03  0.34278647053E+03  0.12509000000E+03 0.  0.
         25    1    4    4    0    0  0.84007167303E+02 -0.18761812400E+02 -0.20414764846E+03  0.25442676792E+03  0.12509000000E+03 0.  0.
<mgrwt>
<rscale>  2 0.45693355E+03</rscale>
<asrwt>0</asrwt>
<pdfrwt beam="1">  1       21 0.10479036E-01 0.45693355E+03</pdfrwt>
<pdfrwt beam="2">  1       21 0.10772263E+00 0.45693355E+03</pdfrwt>
<totfact> 0.46867718E+04</totfact>
</mgrwt>
</event>
<event>
 7    0  0.4685107E-002  0.4623533E+03  0.7546771E-02  0.1024101E+00
         21   -1    0    0  502  501  0.00000000000E+00  0.00000000000E+00  0.38061323589E+03  0.38061323589E+03  0.00000000000E+00 0.  1.
         21   -1    0    0  501  502 -0.00000000000E+00 -0.00000000000E+00 -0.14041194238E+03  0.14041194238E+03  0.00000000000E+00 0.  1.
      99926    2    1    2    0    0 -0.71054273576E-14 -0.17763568394E-14  0.24020129351E+03  0.52102517826E+03  0.46235330104E+03 0.  0.
      99925    2    3    3    0    0 -0.62251051780E+02 -0.80232910825E+01  0.35588861361E+02  0.27312737243E+03  0.26342442535E+03 0.  0.
         25    1    3    3    0    0  0.62251051780E+02  0.80232910825E+01  0.20461243215E+03  0.24789780583E+03  0.12509000000E+03 0.  0.
         25    1    4    4    0    0 -0.32856950519E+02 -0.45238495592E+02  0.18769173160E+02  0.13829638694E+03  0.12509000000E+03 0.  0.
         25    1    4    4    0    0 -0.29394101261E+02  0.37215204510E+02  0.16819688201E+02  0.13483098548E+03  0.12509000000E+03 0.  0.
<mgrwt>
<rscale>  2 0.46235330E+03</rscale>
<asrwt>0</asrwt>
<pdfrwt beam="1">  1       21 0.55972534E-01 0.46235330E+03</pdfrwt>
<pdfrwt beam="2">  1       21 0.20648815E-01 0.46235330E+03</pdfrwt>
<totfact> 0.60226073E+04</totfact>
</mgrwt>
</event>
<event>
 7    0  0.4685107E-002  0.4355151E+03  0.7546771E-02  0.1032132E+00
         21   -1    0    0  502  501  0.00000000000E+00  0.00000000000E+00  0.75354256624E+02  0.75354256624E+02  0.00000000000E+00 0.  1.
         21   -1    0    0  501  502 -0.00000000000E+00 -0.00000000000E+00 -0.62927229982E+03  0.62927229982E+03  0.00000000000E+00 0.  1.
      99926    2    1    2    0    0  0.00000000000E+00  0.00000000000E+00 -0.55391804320E+03  0.70462655645E+03  0.43551508064E+03 0.  0.
      99925    2    3    3    0    0  0.54142081407E+02  0.76740302154E+02 -0.34730841134E+03  0.44548279899E+03  0.26270011924E+03 0.  0.
         25    1    4    4    0    0 -0.12718874800E+02  0.32324868077E+02 -0.17567214238E+03  0.21843735162E+03  0.12509000000E+03 0.  0.
         25    1    4    4    0    0  0.66860956207E+02  0.44415434077E+02 -0.17163626896E+03  0.22704544737E+03  0.12509000000E+03 0.  0.
         25    1    3    3    0    0 -0.54142081407E+02 -0.76740302154E+02 -0.20660963185E+03  0.25914375746E+03  0.12509000000E+03 0.  0.
<mgrwt>
<rscale>  2 0.43551508E+03</rscale>
<asrwt>0</asrwt>
<pdfrwt beam="1">  1       21 0.11081509E-01 0.43551508E+03</pdfrwt>
<pdfrwt beam="2">  1       21 0.92540041E-01 0.43551508E+03</pdfrwt>
<totfact> 0.61562029E+04</totfact>
</mgrwt>
</event>
<event>
 7    0  0.4685107E-002  0.4427890E+03  0.7546771E-02  0.1029895E+00
         21   -1    0    0  502  501  0.00000000000E+00  0.00000000000E+00  0.10142224683E+04  0.10142224683E+04  0.00000000000E+00 0. -1.
         21   -1    0    0  501  502 -0.00000000000E+00 -0.00000000000E+00 -0.48328174076E+02  0.48328174076E+02  0.00000000000E+00 0. -1.
      99926    2    1    2    0    0 -0.71054273576E-14  0.17763568394E-14  0.96589429424E+03  0.10625506424E+04  0.44278897909E+03 0.  0.
      99925    2    3    3    0    0 -0.47155325969E+02 -0.87569262970E+01  0.82883546677E+03  0.87089225147E+03  0.26302998719E+03 0.  0.
         25    1    4    4    0    0 -0.44928355834E+02 -0.39262767813E+02  0.42993538520E+03  0.45172122559E+03  0.12509000000E+03 0.  0.
         25    1    4    4    0    0 -0.22269701356E+01  0.30505841516E+02  0.39890008157E+03  0.41917102588E+03  0.12509000000E+03 0.  0.
         25    1    3    3    0    0  0.47155325969E+02  0.87569262970E+01  0.13705882747E+03  0.19165839093E+03  0.12509000000E+03 0.  0.
<mgrwt>
<rscale>  2 0.44278898E+03</rscale>
<asrwt>0</asrwt>
<pdfrwt beam="1">  1       21 0.14915035E+00 0.44278898E+03</pdfrwt>
<pdfrwt beam="2">  1       21 0.71070850E-02 0.44278898E+03</pdfrwt>
<totfact> 0.40548730E+04</totfact>
</mgrwt>
</event>
<event>
 7    0  0.4685107E-002  0.4593846E+03  0.7546771E-02  0.1024960E+00
         21   -1    0    0  502  501  0.00000000000E+00  0.00000000000E+00  0.17419455525E+04  0.17419455525E+04  0.00000000000E+00 0. -1.
         21   -1    0    0  501  502 -0.00000000000E+00 -0.00000000000E+00 -0.30287139433E+02  0.30287139433E+02  0.00000000000E+00 0. -1.
      99926    2    1    2    0    0 -0.14210854715E-13  0.88817841970E-15  0.17116584130E+04  0.17722326919E+04  0.45938457889E+03 0.  0.
      99925    2    3    3    0    0 -0.10360266290E+03  0.71513428444E+01  0.12827388356E+04  0.13135343537E+04  0.26299985650E+03 0.  0.
         25    1    4    4    0    0 -0.65241189600E+02 -0.84439327139E+00  0.48523271133E+03  0.50532704070E+03  0.12509000000E+03 0.  0.
         25    1    3    3    0    0  0.10360266290E+03 -0.71513428444E+01  0.42891957746E+03  0.45869833822E+03  0.12509000000E+03 0.  0.
         25    1    4    4    0    0 -0.38361473300E+02  0.79957361157E+01  0.79750612423E+03  0.80820731296E+03  0.12509000000E+03 0.  0.
<mgrwt>
<rscale>  2 0.45938458E+03</rscale>
<asrwt>0</asrwt>
<pdfrwt beam="1">  1       21 0.25616840E+00 0.45938458E+03</pdfrwt>
<pdfrwt beam="2">  1       21 0.44539923E-02 0.45938458E+03</pdfrwt>
<totfact> 0.17205972E+04</totfact>
</mgrwt>
</event>
<event>
 7    0  0.4685107E-002  0.4518684E+03  0.7546771E-02  0.1027166E+00
         21   -1    0    0  502  501  0.00000000000E+00  0.00000000000E+00  0.13058569122E+03  0.13058569122E+03  0.00000000000E+00 0.  1.
         21   -1    0    0  501  502 -0.00000000000E+00 -0.00000000000E+00 -0.39090237415E+03  0.39090237415E+03  0.00000000000E+00 0.  1.
      99926    2    1    2    0    0  0.00000000000E+00  0.00000000000E+00 -0.26031668293E+03  0.52148806537E+03  0.45186837343E+03 0.  0.
      99925    2    3    3    0    0 -0.99439953524E+02  0.39037478263E+02 -0.13299638922E+03  0.31347317562E+03  0.26299270564E+03 0.  0.
         25    1    4    4    0    0 -0.81197934174E+02 -0.68281745829E+01 -0.65897974110E+02  0.16318633391E+03  0.12509000000E+03 0.  0.
         25    1    3    3    0    0  0.99439953524E+02 -0.39037478263E+02 -0.12732029371E+03  0.20801488975E+03  0.12509000000E+03 0.  0.
         25    1    4    4    0    0 -0.18242019350E+02  0.45865652846E+02 -0.67098415106E+02  0.15028684171E+03  0.12509000000E+03 0.  0.
<mgrwt>
<rscale>  2 0.45186837E+03</rscale>
<asrwt>0</asrwt>
<pdfrwt beam="1">  1       21 0.19203778E-01 0.45186837E+03</pdfrwt>
<pdfrwt beam="2">  1       21 0.57485643E-01 0.45186837E+03</pdfrwt>
<totfact> 0.65394877E+04</totfact>
</mgrwt>
</event>
<event>
 7    0  0.4685107E-002  0.4562766E+03  0.7546771E-02  0.1025867E+00
         21   -1    0    0  502  501  0.00000000000E+00  0.00000000000E+00  0.20433503910E+03  0.20433503910E+03  0.00000000000E+00 0.  1.
         21   -1    0    0  501  502 -0.00000000000E+00 -0.00000000000E+00 -0.25471445213E+03  0.25471445213E+03  0.00000000000E+00 0.  1.
      99926    2    1    2    0    0  0.00000000000E+00  0.00000000000E+00 -0.50379413029E+02  0.45904949122E+03  0.45627661581E+03 0.  0.
      99925    2    3    3    0    0 -0.48455746629E+02 -0.18219913015E+02  0.70592359757E+02  0.27749618631E+03  0.26332665560E+03 0.  0.
         25    1    4    4    0    0 -0.10039026009E+02 -0.35069335855E+02  0.64571706263E+02  0.14542232879E+03  0.12509000000E+03 0.  0.
         25    1    4    4    0    0 -0.38416720620E+02  0.16849422840E+02  0.60206534945E+01  0.13207385753E+03  0.12509000000E+03 0.  0.
         25    1    3    3    0    0  0.48455746629E+02  0.18219913015E+02 -0.12097177279E+03  0.18155330491E+03  0.12509000000E+03 0.  0.
<mgrwt>
<rscale>  2 0.45627662E+03</rscale>
<asrwt>0</asrwt>
<pdfrwt beam="1">  1       21 0.30049270E-01 0.45627662E+03</pdfrwt>
<pdfrwt beam="2">  1       21 0.37458008E-01 0.45627662E+03</pdfrwt>
<totfact> 0.67559338E+04</totfact>
</mgrwt>
</event>
<event>
 7    0  0.4685107E-002  0.5025821E+03  0.7546771E-02  0.1013107E+00
         21   -1    0    0  502  501  0.00000000000E+00  0.00000000000E+00  0.13029208730E+03  0.13029208730E+03  0.00000000000E+00 0. -1.
         21   -1    0    0  501  502 -0.00000000000E+00 -0.00000000000E+00 -0.48465869812E+03  0.48465869812E+03  0.00000000000E+00 0. -1.
      99926    2    1    2    0    0  0.00000000000E+00  0.00000000000E+00 -0.35436661083E+03  0.61495078542E+03  0.50258210634E+03 0.  0.
      99925    2    3    3    0    0  0.88545862087E+02  0.10888675908E+03 -0.13858903913E+03  0.32876174904E+03  0.26302218513E+03 0.  0.
         25    1    4    4    0    0  0.24110875499E+02  0.56422969663E+02 -0.27625392262E+02  0.14204068509E+03  0.12509000000E+03 0.  0.
         25    1    3    3    0    0 -0.88545862087E+02 -0.10888675908E+03 -0.21577757169E+03  0.28618903638E+03  0.12509000000E+03 0.  0.
         25    1    4    4    0    0  0.64434986588E+02  0.52463789417E+02 -0.11096364687E+03  0.18672106395E+03  0.12509000000E+03 0.  0.
<mgrwt>
<rscale>  2 0.50258211E+03</rscale>
<asrwt>0</asrwt>
<pdfrwt beam="1">  1       21 0.19160601E-01 0.50258211E+03</pdfrwt>
<pdfrwt beam="2">  1       21 0.71273337E-01 0.50258211E+03</pdfrwt>
<totfact> 0.40329959E+04</totfact>
</mgrwt>
</event>
<event>
 6    0  0.4685107E-002  0.4553505E+03  0.7546771E-02  0.1026138E+00
         21   -1    0    0  502  501  0.00000000000E+00  0.00000000000E+00  0.22523651793E+03  0.22523651793E+03  0.00000000000E+00 0.  1.
         21   -1    0    0  501  502 -0.00000000000E+00 -0.00000000000E+00 -0.23014039827E+03  0.23014039827E+03  0.00000000000E+00 0.  1.
      99926    2    1    2    0    0 -0.71054273576E-14  0.14210854715E-13 -0.49038803362E+01  0.45537691620E+03  0.45535051089E+03 0.  0.
         25    1    3    3    0    0 -0.62352041484E+02  0.77915692924E+02 -0.51928337154E+02  0.16823404109E+03  0.12509000000E+03 0.  0.
         25    1    3    3    0    0  0.40827076136E+02 -0.83958113621E+02  0.29834463780E+02  0.15891324148E+03  0.12509000000E+03 0.  0.
         25    1    3    3    0    0  0.21524965347E+02  0.60424206962E+01  0.17189993038E+02  0.12822963363E+03  0.12509000000E+03 0.  0.
<mgrwt>
<rscale>  2 0.45535051E+03</rscale>
<asrwt>0</asrwt>
<pdfrwt beam="1">  1       21 0.33123017E-01 0.45535051E+03</pdfrwt>
<pdfrwt beam="2">  1       21 0.33844176E-01 0.45535051E+03</pdfrwt>
<totfact> 0.68326897E+04</totfact>
</mgrwt>
</event>
<event>
 7    0  0.4685107E-002  0.4402098E+03  0.7546771E-02  0.1030682E+00
         21   -1    0    0  502  501  0.00000000000E+00  0.00000000000E+00  0.14737751243E+03  0.14737751243E+03  0.00000000000E+00 0. -1.
         21   -1    0    0  501  502 -0.00000000000E+00 -0.00000000000E+00 -0.32872151560E+03  0.32872151560E+03  0.00000000000E+00 0. -1.
      99926    2    1    2    0    0  0.00000000000E+00  0.00000000000E+00 -0.18134400316E+03  0.47609902803E+03  0.44020976478E+03 0.  0.
      99925    2    3    3    0    0  0.38690486045E+02 -0.81949205072E+01 -0.21330794347E+03  0.34106824631E+03  0.26317894950E+03 0.  0.
         25    1    3    3    0    0 -0.38690486045E+02  0.81949205072E+01  0.31963940305E+02  0.13503078172E+03  0.12509000000E+03 0.  0.
         25    1    4    4    0    0  0.57175687172E+02  0.11975877464E+02 -0.10815549945E+03  0.17537845080E+03  0.12509000000E+03 0.  0.
         25    1    4    4    0    0 -0.18485201128E+02 -0.20170797972E+02 -0.10515244402E+03  0.16568979550E+03  0.12509000000E+03 0.  0.
<mgrwt>
<rscale>  2 0.44020976E+03</rscale>
<asrwt>0</asrwt>
<pdfrwt beam="1">  1       21 0.21673164E-01 0.44020976E+03</pdfrwt>
<pdfrwt beam="2">  1       21 0.48341398E-01 0.44020976E+03</pdfrwt>
<totfact> 0.75463501E+04</totfact>
</mgrwt>
</event>
<event>
 7    0  0.4685107E-002  0.4530553E+03  0.7546771E-02  0.1026815E+00
         21   -1    0    0  502  501  0.00000000000E+00  0.00000000000E+00  0.10024508994E+03  0.10024508994E+03  0.00000000000E+00 0. -1.
         21   -1    0    0  501  502 -0.00000000000E+00 -0.00000000000E+00 -0.51189306255E+03  0.51189306255E+03  0.00000000000E+00 0. -1.
      99926    2    1    2    0    0  0.14210854715E-13 -0.71054273576E-14 -0.41164797261E+03  0.61213815248E+03  0.45305525532E+03 0.  0.
      99925    2    3    3    0    0  0.65887570963E+02 -0.56355029093E+02 -0.35396886026E+03  0.44937621156E+03  0.26292197354E+03 0.  0.
         25    1    4    4    0    0  0.40916004409E+02 -0.12432436988E+02 -0.11623360437E+03  0.17602966736E+03  0.12509000000E+03 0.  0.
         25    1    3    3    0    0 -0.65887570963E+02  0.56355029093E+02 -0.57679112355E+02  0.16276194092E+03  0.12509000000E+03 0.  0.
         25    1    4    4    0    0  0.24971566555E+02 -0.43922592105E+02 -0.23773525589E+03  0.27334654420E+03  0.12509000000E+03 0.  0.
<mgrwt>
<rscale>  2 0.45305526E+03</rscale>
<asrwt>0</asrwt>
<pdfrwt beam="1">  1       21 0.14741925E-01 0.45305526E+03</pdfrwt>
<pdfrwt beam="2">  1       21 0.75278392E-01 0.45305526E+03</pdfrwt>
<totfact> 0.58835824E+04</totfact>
</mgrwt>
</event>
<event>
 7    0  0.4685107E-002  0.4551150E+03  0.7546771E-02  0.1026208E+00
         21   -1    0    0  502  501  0.00000000000E+00  0.00000000000E+00  0.21184270503E+03  0.21184270503E+03  0.00000000000E+00 0. -1.
         21   -1    0    0  501  502 -0.00000000000E+00 -0.00000000000E+00 -0.24443799873E+03  0.24443799873E+03  0.00000000000E+00 0. -1.
      99926    2    1    2    0    0  0.00000000000E+00  0.00000000000E+00 -0.32595293695E+02  0.45628070376E+03  0.45511496070E+03 0.  0.
      99925    2    3    3    0    0  0.12418608271E+02  0.55345689593E+02 -0.11887827551E+03  0.29407827394E+03  0.26293082670E+03 0.  0.
         25    1    3    3    0    0 -0.12418608271E+02 -0.55345689593E+02  0.86282981812E+02  0.16220242982E+03  0.12509000000E+03 0.  0.
         25    1    4    4    0    0  0.17733596859E+01  0.13123755840E+01 -0.90698782959E+02  0.15452716416E+03  0.12509000000E+03 0.  0.
         25    1    4    4    0    0  0.10645248585E+02  0.54033314009E+02 -0.28179492549E+02  0.13955110978E+03  0.12509000000E+03 0.  0.
<mgrwt>
<rscale>  2 0.45511496E+03</rscale>
<asrwt>0</asrwt>
<pdfrwt beam="1">  1       21 0.31153339E-01 0.45511496E+03</pdfrwt>
<pdfrwt beam="2">  1       21 0.35946764E-01 0.45511496E+03</pdfrwt>
<totfact> 0.68389356E+04</totfact>
</mgrwt>
</event>
<event>
 7    0  0.4685107E-002  0.4432155E+03  0.7546771E-02  0.1029765E+00
         21   -1    0    0  502  501  0.00000000000E+00  0.00000000000E+00  0.13871812109E+04  0.13871812109E+04  0.00000000000E+00 0.  1.
         21   -1    0    0  501  502 -0.00000000000E+00 -0.00000000000E+00 -0.35402725355E+02  0.35402725355E+02  0.00000000000E+00 0.  1.
      99926    2    1    2    0    0 -0.17763568394E-14  0.35527136788E-14  0.13517784856E+04  0.14225839363E+04  0.44321550256E+03 0.  0.
      99925    2    3    3    0    0 -0.12047674037E+02 -0.20392227698E+02  0.54229857133E+03  0.60315350661E+03  0.26295517237E+03 0.  0.
         25    1    4    4    0    0  0.74708386383E+01 -0.41412771249E+02  0.32517293806E+03  0.35093557642E+03  0.12509000000E+03 0.  0.
         25    1    3    3    0    0  0.12047674037E+02  0.20392227698E+02  0.80947991427E+03  0.81943042969E+03  0.12509000000E+03 0.  0.
         25    1    4    4    0    0 -0.19518512675E+02  0.21020543551E+02  0.21712563327E+03  0.25221793019E+03  0.12509000000E+03 0.  0.
<mgrwt>
<rscale>  2 0.44321550E+03</rscale>
<asrwt>0</asrwt>
<pdfrwt beam="1">  1       21 0.20399720E+00 0.44321550E+03</pdfrwt>
<pdfrwt beam="2">  1       21 0.52062840E-02 0.44321550E+03</pdfrwt>
<totfact> 0.28234732E+04</totfact>
</mgrwt>
</event>
<event>
 7    0  0.4685107E-002  0.4569608E+03  0.7546771E-02  0.1025666E+00
         21   -1    0    0  502  501  0.00000000000E+00  0.00000000000E+00  0.10042316007E+04  0.10042316007E+04  0.00000000000E+00 0.  1.
         21   -1    0    0  501  502 -0.00000000000E+00 -0.00000000000E+00 -0.51983312741E+02  0.51983312741E+02  0.00000000000E+00 0.  1.
      99926    2    1    2    0    0  0.88817841970E-15  0.00000000000E+00  0.95224828793E+03  0.10562149134E+04  0.45696076576E+03 0.  0.
      99925    2    3    3    0    0  0.51175531532E+01 -0.10827548121E+03  0.68945287560E+03  0.74563689419E+03  0.26244874000E+03 0.  0.
         25    1    3    3    0    0 -0.51175531532E+01  0.10827548121E+03  0.26279541233E+03  0.31057801922E+03  0.12509000000E+03 0.  0.
         25    1    4    4    0    0  0.17924637424E+02 -0.73890647152E+02  0.28035729625E+03  0.31627336597E+03  0.12509000000E+03 0.  0.
         25    1    4    4    0    0 -0.12807084271E+02 -0.34384834054E+02  0.40909557935E+03  0.42936352822E+03  0.12509000000E+03 0.  0.
<mgrwt>
<rscale>  2 0.45696077E+03</rscale>
<asrwt>0</asrwt>
<pdfrwt beam="1">  1       21 0.14768111E+00 0.45696077E+03</pdfrwt>
<pdfrwt beam="2">  1       21 0.76446055E-02 0.45696077E+03</pdfrwt>
<totfact> 0.36488567E+04</totfact>
</mgrwt>
</event>
<event>
 7    0  0.4685107E-002  0.4471061E+03  0.7546771E-02  0.1028589E+00
         21   -1    0    0  502  501  0.00000000000E+00  0.00000000000E+00  0.87274859169E+02  0.87274859169E+02  0.00000000000E+00 0. -1.
         21   -1    0    0  501  502 -0.00000000000E+00 -0.00000000000E+00 -0.57262738846E+03  0.57262738846E+03  0.00000000000E+00 0. -1.
      99926    2    1    2    0    0  0.00000000000E+00 -0.88817841970E-15 -0.48535252929E+03  0.65990224763E+03  0.44710613811E+03 0.  0.
      99925    2    3    3    0    0 -0.37402170498E+02  0.56688820750E+01 -0.45310573217E+03  0.52529755749E+03  0.26306208545E+03 0.  0.
         25    1    4    4    0    0 -0.62205669877E+01  0.16587704111E+02 -0.29560033550E+03  0.32146681606E+03  0.12509000000E+03 0.  0.
         25    1    3    3    0    0  0.37402170498E+02 -0.56688820750E+01 -0.32246797120E+02  0.13460469014E+03  0.12509000000E+03 0.  0.
         25    1    4    4    0    0 -0.31181603510E+02 -0.10918822036E+02 -0.15750539667E+03  0.20383074143E+03  0.12509000000E+03 0.  0.
<mgrwt>
<rscale>  2 0.44710614E+03</rscale>
<asrwt>0</asrwt>
<pdfrwt beam="1">  1       21 0.12834538E-01 0.44710614E+03</pdfrwt>
<pdfrwt beam="2">  1       21 0.84209913E-01 0.44710614E+03</pdfrwt>
<totfact> 0.58703201E+04</totfact>
</mgrwt>
</event>
<event>
 7    0  0.4685107E-002  0.4489223E+03  0.7546771E-02  0.1028044E+00
         21   -1    0    0  502  501  0.00000000000E+00  0.00000000000E+00  0.21580731504E+04  0.21580731504E+04  0.00000000000E+00 0.  1.
         21   -1    0    0  501  502 -0.00000000000E+00 -0.00000000000E+00 -0.23346205372E+02  0.23346205372E+02  0.00000000000E+00 0.  1.
      99926    2    1    2    0    0  0.00000000000E+00  0.00000000000E+00  0.21347269451E+04  0.21814193558E+04  0.44892234953E+03 0.  0.
      99925    2    3    3    0    0 -0.10112690118E+03  0.19555848119E+02  0.12049381811E+04  0.12376165506E+04  0.26307722216E+03 0.  0.
         25    1    4    4    0    0 -0.14199824759E+02  0.29634720989E+02  0.59045583499E+03  0.60445467397E+03  0.12509000000E+03 0.  0.
         25    1    4    4    0    0 -0.86927076422E+02 -0.10078872871E+02  0.61448234609E+03  0.63316187665E+03  0.12509000000E+03 0.  0.
         25    1    3    3    0    0  0.10112690118E+03 -0.19555848119E+02  0.92978876398E+03  0.94380280518E+03  0.12509000000E+03 0.  0.
<mgrwt>
<rscale>  2 0.44892235E+03</rscale>
<asrwt>0</asrwt>
<pdfrwt beam="1">  1       21 0.31736356E+00 0.44892235E+03</pdfrwt>
<pdfrwt beam="2">  1       21 0.34332670E-02 0.44892235E+03</pdfrwt>
<totfact> 0.11501015E+04</totfact>
</mgrwt>
</event>
<event>
 7    0  0.4685107E-002  0.4520774E+03  0.7546771E-02  0.1027104E+00
         21   -1    0    0  502  501  0.00000000000E+00  0.00000000000E+00  0.10343873364E+03  0.10343873364E+03  0.00000000000E+00 0. -1.
         21   -1    0    0  501  502 -0.00000000000E+00 -0.00000000000E+00 -0.49394931858E+03  0.49394931858E+03  0.00000000000E+00 0. -1.
      99926    2    1    2    0    0  0.00000000000E+00  0.00000000000E+00 -0.39051058494E+03  0.59738805222E+03  0.45207739159E+03 0.  0.
      99925    2    3    3    0    0  0.58866823560E+02 -0.82600775948E+02 -0.18937676277E+03  0.33972448549E+03  0.26317480248E+03 0.  0.
         25    1    4    4    0    0  0.26554252244E+02 -0.32764914739E+02 -0.44483374743E+02  0.13930163918E+03  0.12509000000E+03 0.  0.
         25    1    4    4    0    0  0.32312571316E+02 -0.49835861209E+02 -0.14489338803E+03  0.20042284631E+03  0.12509000000E+03 0.  0.
         25    1    3    3    0    0 -0.58866823560E+02  0.82600775948E+02 -0.20113382216E+03  0.25766356673E+03  0.12509000000E+03 0.  0.
<mgrwt>
<rscale>  2 0.45207739E+03</rscale>
<asrwt>0</asrwt>
<pdfrwt beam="1">  1       21 0.15211579E-01 0.45207739E+03</pdfrwt>
<pdfrwt beam="2">  1       21 0.72639605E-01 0.45207739E+03</pdfrwt>
<totfact> 0.60217982E+04</totfact>
</mgrwt>
</event>
<event>
 7    0  0.4685107E-002  0.4518333E+03  0.7546771E-02  0.1027177E+00
         21   -1    0    0  502  501  0.00000000000E+00  0.00000000000E+00  0.72179720963E+03  0.72179720963E+03  0.00000000000E+00 0. -1.
         21   -1    0    0  501  502 -0.00000000000E+00 -0.00000000000E+00 -0.70710059700E+02  0.70710059700E+02  0.00000000000E+00 0. -1.
      99926    2    1    2    0    0  0.14210854715E-13 -0.71054273576E-14  0.65108714993E+03  0.79250726933E+03  0.45183326033E+03 0.  0.
      99925    2    3    3    0    0 -0.68673232064E+02  0.53655248400E+02  0.52924132901E+03  0.59734372085E+03  0.26292249431E+03 0.  0.
         25    1    3    3    0    0  0.68673232064E+02 -0.53655248400E+02  0.12184582092E+03  0.19516354849E+03  0.12509000000E+03 0.  0.
         25    1    4    4    0    0  0.44478468767E+01  0.96556447702E+01  0.23619611664E+03  0.26748668833E+03  0.12509000000E+03 0.  0.
         25    1    4    4    0    0 -0.73121078941E+02  0.43999603630E+02  0.29304521237E+03  0.32985703252E+03  0.12509000000E+03 0.  0.
<mgrwt>
<rscale>  2 0.45183326E+03</rscale>
<asrwt>0</asrwt>
<pdfrwt beam="1">  1       21 0.10614664E+00 0.45183326E+03</pdfrwt>
<pdfrwt beam="2">  1       21 0.10398539E-01 0.45183326E+03</pdfrwt>
<totfact> 0.49344372E+04</totfact>
</mgrwt>
</event>
<event>
 7    0  0.4685107E-002  0.4529965E+03  0.7546771E-02  0.1026832E+00
         21   -1    0    0  502  501  0.00000000000E+00  0.00000000000E+00  0.38416065039E+03  0.38416065039E+03  0.00000000000E+00 0. -1.
         21   -1    0    0  501  502 -0.00000000000E+00 -0.00000000000E+00 -0.13354168846E+03  0.13354168846E+03  0.00000000000E+00 0. -1.
      99926    2    1    2    0    0 -0.35527136788E-14  0.14210854715E-13  0.25061896193E+03  0.51770233884E+03  0.45299652048E+03 0.  0.
      99925    2    3    3    0    0  0.12803949276E+02 -0.10558540293E+03  0.19526153364E+03  0.34442749533E+03  0.26304184950E+03 0.  0.
         25    1    3    3    0    0 -0.12803949276E+02  0.10558540293E+03  0.55357428293E+02  0.17327484352E+03  0.12509000000E+03 0.  0.
         25    1    4    4    0    0  0.32242842030E+02 -0.44865166920E+02  0.13327978661E+03  0.19095416645E+03  0.12509000000E+03 0.  0.
         25    1    4    4    0    0 -0.19438892754E+02 -0.60720236006E+02  0.61981747025E+02  0.15347332888E+03  0.12509000000E+03 0.  0.
<mgrwt>
<rscale>  2 0.45299652E+03</rscale>
<asrwt>0</asrwt>
<pdfrwt beam="1">  1       21 0.56494213E-01 0.45299652E+03</pdfrwt>
<pdfrwt beam="2">  1       21 0.19638484E-01 0.45299652E+03</pdfrwt>
<totfact> 0.65072321E+04</totfact>
</mgrwt>
</event>
<event>
 7    0  0.4685107E-002  0.4352235E+03  0.7546771E-02  0.1032222E+00
         21   -1    0    0  502  501  0.00000000000E+00  0.00000000000E+00  0.73834791871E+02  0.73834791871E+02  0.00000000000E+00 0.  1.
         21   -1    0    0  501  502 -0.00000000000E+00 -0.00000000000E+00 -0.64136274072E+03  0.64136274072E+03  0.00000000000E+00 0.  1.
      99926    2    1    2    0    0  0.00000000000E+00  0.00000000000E+00 -0.56752794885E+03  0.71519753259E+03  0.43522354934E+03 0.  0.
      99925    2    3    3    0    0 -0.17170796689E+02  0.82395024335E+02 -0.29800826078E+03  0.40637372092E+03  0.26314805960E+03 0.  0.
         25    1    3    3    0    0  0.17170796689E+02 -0.82395024335E+02 -0.26951968807E+03  0.30882381167E+03  0.12509000000E+03 0.  0.
         25    1    4    4    0    0 -0.25506583820E+02  0.79228192031E+02 -0.17594577505E+03  0.23137008469E+03  0.12509000000E+03 0.  0.
         25    1    4    4    0    0  0.83357871310E+01  0.31668323031E+01 -0.12206248573E+03  0.17500363624E+03  0.12509000000E+03 0.  0.
<mgrwt>
<rscale>  2 0.43522355E+03</rscale>
<asrwt>0</asrwt>
<pdfrwt beam="1">  1       21 0.10858057E-01 0.43522355E+03</pdfrwt>
<pdfrwt beam="2">  1       21 0.94318053E-01 0.43522355E+03</pdfrwt>
<totfact> 0.61041977E+04</totfact>
</mgrwt>
</event>
<event>
 7    0  0.4685107E-002  0.4495035E+03  0.7546771E-02  0.1027870E+00
         21   -1    0    0  502  501  0.00000000000E+00  0.00000000000E+00  0.31264499872E+03  0.31264499872E+03  0.00000000000E+00 0. -1.
         21   -1    0    0  501  502 -0.00000000000E+00 -0.00000000000E+00 -0.16156772215E+03  0.16156772215E+03  0.00000000000E+00 0. -1.
      99926    2    1    2    0    0  0.00000000000E+00 -0.14210854715E-13  0.15107727657E+03  0.47421272087E+03  0.44950346065E+03 0.  0.
      99925    2    3    3    0    0  0.15773779327E+02  0.72511310374E+02  0.17820539599E+03  0.32625953500E+03  0.26302360877E+03 0.  0.
         25    1    4    4    0    0 -0.13940588173E+02  0.62775358306E+02  0.66135351340E+02  0.15542354521E+03  0.12509000000E+03 0.  0.
         25    1    3    3    0    0 -0.15773779327E+02 -0.72511310374E+02 -0.27128119419E+02  0.14795318587E+03  0.12509000000E+03 0.  0.
         25    1    4    4    0    0  0.29714367500E+02  0.97359520672E+01  0.11207004465E+03  0.17083598979E+03  0.12509000000E+03 0.  0.
<mgrwt>
<rscale>  2 0.44950346E+03</rscale>
<asrwt>0</asrwt>
<pdfrwt beam="1">  1       21 0.45977206E-01 0.44950346E+03</pdfrwt>
<pdfrwt beam="2">  1       21 0.23759959E-01 0.44950346E+03</pdfrwt>
<totfact> 0.70133802E+04</totfact>
</mgrwt>
</event>
<event>
 7    0  0.4685107E-002  0.4647349E+03  0.7546771E-02  0.1023417E+00
         21   -1    0    0  502  501  0.00000000000E+00  0.00000000000E+00  0.32661408026E+04  0.32661408026E+04  0.00000000000E+00 0.  1.
         21   -1    0    0  501  502 -0.00000000000E+00 -0.00000000000E+00 -0.16531628641E+02  0.16531628641E+02  0.00000000000E+00 0.  1.
      99926    2    1    2    0    0 -0.35527136788E-14  0.00000000000E+00  0.32496091739E+04  0.32826724312E+04  0.46473487857E+03 0.  0.
      99925    2    3    3    0    0  0.22516441390E+02  0.10104761384E+03  0.15698140408E+04  0.15950478261E+04  0.26295215241E+03 0.  0.
         25    1    4    4    0    0  0.52611686134E+01  0.72458387830E+02  0.10193452305E+04  0.10295582086E+04  0.12509000000E+03 0.  0.
         25    1    3    3    0    0 -0.22516441390E+02 -0.10104761384E+03  0.16797951331E+04  0.16876246051E+04  0.12509000000E+03 0.  0.
         25    1    4    4    0    0  0.17255272777E+02  0.28589226011E+02  0.55046881034E+03  0.56548961754E+03  0.12509000000E+03 0.  0.
<mgrwt>
<rscale>  2 0.46473488E+03</rscale>
<asrwt>0</asrwt>
<pdfrwt beam="1">  1       21 0.48031438E+00 0.46473488E+03</pdfrwt>
<pdfrwt beam="2">  1       21 0.24311241E-02 0.46473488E+03</pdfrwt>
<totfact> 0.18156958E+03</totfact>
</mgrwt>
</event>
<event>
 7    0  0.4685107E-002  0.4547886E+03  0.7546771E-02  0.1026304E+00
         21   -1    0    0  502  501  0.00000000000E+00  0.00000000000E+00  0.41748008430E+02  0.41748008430E+02  0.00000000000E+00 0. -1.
         21   -1    0    0  501  502 -0.00000000000E+00 -0.00000000000E+00 -0.12385780075E+04  0.12385780075E+04  0.00000000000E+00 0. -1.
      99926    2    1    2    0    0  0.00000000000E+00  0.00000000000E+00 -0.11968299990E+04  0.12803260159E+04  0.45478858868E+03 0.  0.
      99925    2    3    3    0    0 -0.10119060215E+02 -0.33175242484E+02 -0.45028493093E+03  0.52257933072E+03  0.26292517143E+03 0.  0.
         25    1    4    4    0    0 -0.97551308295E+00  0.18887534943E+02 -0.17888891430E+03  0.21910372512E+03  0.12509000000E+03 0.  0.
         25    1    3    3    0    0  0.10119060215E+02  0.33175242484E+02 -0.74654506811E+03  0.75774668519E+03  0.12509000000E+03 0.  0.
         25    1    4    4    0    0 -0.91435471322E+01 -0.52062777427E+02 -0.27139601664E+03  0.30347560560E+03  0.12509000000E+03 0.  0.
<mgrwt>
<rscale>  2 0.45478859E+03</rscale>
<asrwt>0</asrwt>
<pdfrwt beam="1">  1       21 0.61394140E-02 0.45478859E+03</pdfrwt>
<pdfrwt beam="2">  1       21 0.18214380E+00 0.45478859E+03</pdfrwt>
<totfact> 0.29740466E+04</totfact>
</mgrwt>
</event>
<event>
 7    0  0.4685107E-002  0.4567999E+03  0.7546771E-02  0.1025713E+00
         21   -1    0    0  502  501  0.00000000000E+00  0.00000000000E+00  0.67670911067E+03  0.67670911067E+03  0.00000000000E+00 0. -1.
         21   -1    0    0  501  502 -0.00000000000E+00 -0.00000000000E+00 -0.77088574204E+02  0.77088574204E+02  0.00000000000E+00 0. -1.
      99926    2    1    2    0    0  0.00000000000E+00  0.00000000000E+00  0.59962053647E+03  0.75379768488E+03  0.45679991459E+03 0.  0.
      99925    2    3    3    0    0  0.81098088067E+02  0.39508949576E+02  0.26004110089E+03  0.38083715324E+03  0.26320658456E+03 0.  0.
         25    1    3    3    0    0 -0.81098088067E+02 -0.39508949576E+02  0.33957943558E+03  0.37296053163E+03  0.12509000000E+03 0.  0.
         25    1    4    4    0    0  0.69220523952E+02  0.63719679467E+01  0.17258968129E+03  0.22420256265E+03  0.12509000000E+03 0.  0.
         25    1    4    4    0    0  0.11877564115E+02  0.33136981629E+02  0.87451419592E+02  0.15663459059E+03  0.12509000000E+03 0.  0.
<mgrwt>
<rscale>  2 0.45679991E+03</rscale>
<asrwt>0</asrwt>
<pdfrwt beam="1">  1       21 0.99516043E-01 0.45679991E+03</pdfrwt>
<pdfrwt beam="2">  1       21 0.11336555E-01 0.45679991E+03</pdfrwt>
<totfact> 0.49375407E+04</totfact>
</mgrwt>
</event>
<event>
 7    0  0.4685107E-002  0.4565444E+03  0.7546771E-02  0.1025788E+00
         21   -1    0    0  502  501  0.00000000000E+00  0.00000000000E+00  0.24236840541E+03  0.24236840541E+03  0.00000000000E+00 0.  1.
         21   -1    0    0  501  502 -0.00000000000E+00 -0.00000000000E+00 -0.21499583610E+03  0.21499583610E+03  0.00000000000E+00 0.  1.
      99926    2    1    2    0    0  0.00000000000E+00  0.35527136788E-14  0.27372569308E+02  0.45736424151E+03  0.45654440295E+03 0.  0.
      99925    2    3    3    0    0 -0.46768645173E+01  0.31756423067E+02 -0.93183504975E+02  0.28069613852E+03  0.26282468133E+03 0.  0.
         25    1    4    4    0    0  0.16542496458E+02  0.34610479661E+02 -0.79384579715E+02  0.15303907700E+03  0.12509000000E+03 0.  0.
         25    1    4    4    0    0 -0.21219360976E+02 -0.28540565941E+01 -0.13798925260E+02  0.12765706153E+03  0.12509000000E+03 0.  0.
         25    1    3    3    0    0  0.46768645173E+01 -0.31756423067E+02  0.12055607428E+03  0.17666810299E+03  0.12509000000E+03 0.  0.
<mgrwt>
<rscale>  2 0.45654440E+03</rscale>
<asrwt>0</asrwt>
<pdfrwt beam="1">  1       21 0.35642413E-01 0.45654440E+03</pdfrwt>
<pdfrwt beam="2">  1       21 0.31617035E-01 0.45654440E+03</pdfrwt>
<totfact> 0.67536902E+04</totfact>
</mgrwt>
</event>
<event>
 7    0  0.4685107E-002  0.4602755E+03  0.7546771E-02  0.1024701E+00
         21   -1    0    0  502  501  0.00000000000E+00  0.00000000000E+00  0.37894828462E+03  0.37894828462E+03  0.00000000000E+00 0.  1.
         21   -1    0    0  501  502 -0.00000000000E+00 -0.00000000000E+00 -0.13976413815E+03  0.13976413815E+03  0.00000000000E+00 0.  1.
      99926    2    1    2    0    0  0.35527136788E-14 -0.14210854715E-13  0.23918414647E+03  0.51871242277E+03  0.46027548448E+03 0.  0.
      99925    2    3    3    0    0  0.30027882714E+02  0.11312488758E+03  0.13292283282E+03  0.31712400840E+03  0.26305939118E+03 0.  0.
         25    1    4    4    0    0  0.38683180915E+02  0.26054101325E+02  0.79557222015E+02  0.15540934449E+03  0.12509000000E+03 0.  0.
         25    1    3    3    0    0 -0.30027882714E+02 -0.11312488758E+03  0.10626131365E+03  0.20158841437E+03  0.12509000000E+03 0.  0.
         25    1    4    4    0    0 -0.86552982013E+01  0.87070786251E+02  0.53365610805E+02  0.16171466390E+03  0.12509000000E+03 0.  0.
<mgrwt>
<rscale>  2 0.46027548E+03</rscale>
<asrwt>0</asrwt>
<pdfrwt beam="1">  1       21 0.55727689E-01 0.46027548E+03</pdfrwt>
<pdfrwt beam="2">  1       21 0.20553550E-01 0.46027548E+03</pdfrwt>
<totfact> 0.61365761E+04</totfact>
</mgrwt>
</event>
<event>
 7    0  0.4685107E-002  0.4545345E+03  0.7546771E-02  0.1026378E+00
         21   -1    0    0  502  501  0.00000000000E+00  0.00000000000E+00  0.18253244377E+02  0.18253244377E+02  0.00000000000E+00 0. -1.
         21   -1    0    0  501  502 -0.00000000000E+00 -0.00000000000E+00 -0.28296565641E+04  0.28296565641E+04  0.00000000000E+00 0. -1.
      99926    2    1    2    0    0  0.00000000000E+00  0.00000000000E+00 -0.28114033198E+04  0.28479098085E+04  0.45453454332E+03 0.  0.
      99925    2    3    3    0    0  0.13809396266E+02 -0.10950366931E+03 -0.16263688313E+04  0.16511909610E+04  0.26301000228E+03 0.  0.
         25    1    4    4    0    0  0.13205705642E+02 -0.20476382467E+02 -0.59847472340E+03  0.61189310794E+03  0.12509000000E+03 0.  0.
         25    1    4    4    0    0  0.60369062437E+00 -0.89027286842E+02 -0.10278941079E+04  0.10392978530E+04  0.12509000000E+03 0.  0.
         25    1    3    3    0    0 -0.13809396266E+02  0.10950366931E+03 -0.11850344885E+04  0.11967188475E+04  0.12509000000E+03 0.  0.
<mgrwt>
<rscale>  2 0.45453454E+03</rscale>
<asrwt>0</asrwt>
<pdfrwt beam="1">  1       21 0.26842966E-02 0.45453454E+03</pdfrwt>
<pdfrwt beam="2">  1       21 0.41612659E+00 0.45453454E+03</pdfrwt>
<totfact> 0.42021764E+03</totfact>
</mgrwt>
</event>
<event>
 7    0  0.4685107E-002  0.4479602E+03  0.7546771E-02  0.1028332E+00
         21   -1    0    0  502  501  0.00000000000E+00  0.00000000000E+00  0.13583323687E+03  0.13583323687E+03  0.00000000000E+00 0.  1.
         21   -1    0    0  501  502 -0.00000000000E+00 -0.00000000000E+00 -0.36932856835E+03  0.36932856835E+03  0.00000000000E+00 0.  1.
      99926    2    1    2    0    0  0.17763568394E-14  0.00000000000E+00 -0.23349533148E+03  0.50516180522E+03  0.44796024336E+03 0.  0.
      99925    2    3    3    0    0 -0.64653248108E+01  0.16131189350E+02 -0.30154758590E+02  0.26579407060E+03  0.26350552708E+03 0.  0.
         25    1    4    4    0    0  0.26908815096E+02  0.28817455601E+02  0.42855946913E+01  0.13122653885E+03  0.12509000000E+03 0.  0.
         25    1    3    3    0    0  0.64653248108E+01 -0.16131189350E+02 -0.20334057289E+03  0.23936773462E+03  0.12509000000E+03 0.  0.
         25    1    4    4    0    0 -0.33374139906E+02 -0.12686266250E+02 -0.34440353282E+02  0.13456753175E+03  0.12509000000E+03 0.  0.
<mgrwt>
<rscale>  2 0.44796024E+03</rscale>
<asrwt>0</asrwt>
<pdfrwt beam="1">  1       21 0.19975476E-01 0.44796024E+03</pdfrwt>
<pdfrwt beam="2">  1       21 0.54313024E-01 0.44796024E+03</pdfrwt>
<totfact> 0.68666517E+04</totfact>
</mgrwt>
</event>
<event>
 7    0  0.4685107E-002  0.4523360E+03  0.7546771E-02  0.1027028E+00
         21   -1    0    0  502  501  0.00000000000E+00  0.00000000000E+00  0.11639809321E+04  0.11639809321E+04  0.00000000000E+00 0.  1.
         21   -1    0    0  501  502 -0.00000000000E+00 -0.00000000000E+00 -0.43945699206E+02  0.43945699206E+02  0.00000000000E+00 0.  1.
      99926    2    1    2    0    0  0.00000000000E+00  0.00000000000E+00  0.11200352329E+04  0.12079266313E+04  0.45233596330E+03 0.  0.
      99925    2    3    3    0    0  0.68378167952E+02 -0.39922774468E+02  0.50026096959E+03  0.57071626782E+03  0.26303349386E+03 0.  0.
         25    1    3    3    0    0 -0.68378167952E+02  0.39922774468E+02  0.61977426332E+03  0.63721036350E+03  0.12509000000E+03 0.  0.
         25    1    4    4    0    0  0.33765722343E+02 -0.41440735523E+02  0.32749687197E+03  0.35462539082E+03  0.12509000000E+03 0.  0.
         25    1    4    4    0    0  0.34612445609E+02  0.15179610543E+01  0.17276409762E+03  0.21609087700E+03  0.12509000000E+03 0.  0.
<mgrwt>
<rscale>  2 0.45233596E+03</rscale>
<asrwt>0</asrwt>
<pdfrwt beam="1">  1       21 0.17117365E+00 0.45233596E+03</pdfrwt>
<pdfrwt beam="2">  1       21 0.64626036E-02 0.45233596E+03</pdfrwt>
<totfact> 0.32576494E+04</totfact>
</mgrwt>
</event>
<event>
 7    0  0.4685107E-002  0.4503171E+03  0.7546771E-02  0.1027628E+00
         21   -1    0    0  502  501  0.00000000000E+00  0.00000000000E+00  0.95188012575E+02  0.95188012575E+02  0.00000000000E+00 0.  1.
         21   -1    0    0  501  502 -0.00000000000E+00 -0.00000000000E+00 -0.53259207376E+03  0.53259207376E+03  0.00000000000E+00 0.  1.
      99926    2    1    2    0    0 -0.71054273576E-14  0.35527136788E-14 -0.43740406119E+03  0.62778008634E+03  0.45031713720E+03 0.  0.
      99925    2    3    3    0    0  0.41193748815E+02 -0.21967603454E+02 -0.41300790177E+03  0.49205175017E+03  0.26336267272E+03 0.  0.
         25    1    3    3    0    0 -0.41193748815E+02  0.21967603454E+02 -0.24396159413E+02  0.13572833616E+03  0.12509000000E+03 0.  0.
         25    1    4    4    0    0 -0.82145284078E+01 -0.98764305734E+01 -0.14488734777E+03  0.19184596426E+03  0.12509000000E+03 0.  0.
         25    1    4    4    0    0  0.49408277223E+02 -0.12091172881E+02 -0.26812055400E+03  0.30020578591E+03  0.12509000000E+03 0.  0.
<mgrwt>
<rscale>  2 0.45031714E+03</rscale>
<asrwt>0</asrwt>
<pdfrwt beam="1">  1       21 0.13998237E-01 0.45031714E+03</pdfrwt>
<pdfrwt beam="2">  1       21 0.78322363E-01 0.45031714E+03</pdfrwt>
<totfact> 0.59156876E+04</totfact>
</mgrwt>
</event>
<event>
 7    0  0.4685107E-002  0.4526325E+03  0.7546771E-02  0.1026940E+00
         21   -1    0    0  502  501  0.00000000000E+00  0.00000000000E+00  0.76147214534E+03  0.76147214534E+03  0.00000000000E+00 0.  1.
         21   -1    0    0  501  502 -0.00000000000E+00 -0.00000000000E+00 -0.67263201623E+02  0.67263201623E+02  0.00000000000E+00 0.  1.
      99926    2    1    2    0    0  0.14210854715E-13  0.00000000000E+00  0.69420894372E+03  0.82873534696E+03  0.45263254166E+03 0.  0.
      99925    2    3    3    0    0 -0.86334904937E+02  0.53970740391E+02  0.35694758428E+03  0.45489140987E+03  0.26296018753E+03 0.  0.
         25    1    4    4    0    0 -0.50780920543E+01  0.33438147248E+02  0.13947485407E+03  0.19038025037E+03  0.12509000000E+03 0.  0.
         25    1    3    3    0    0  0.86334904937E+02 -0.53970740391E+02  0.33726135944E+03  0.37384393709E+03  0.12509000000E+03 0.  0.
         25    1    4    4    0    0 -0.81256812883E+02  0.20532593143E+02  0.21747273021E+03  0.26451115951E+03  0.12509000000E+03 0.  0.
<mgrwt>
<rscale>  2 0.45263254E+03</rscale>
<asrwt>0</asrwt>
<pdfrwt beam="1">  1       21 0.11198119E+00 0.45263254E+03</pdfrwt>
<pdfrwt beam="2">  1       21 0.98916478E-02 0.45263254E+03</pdfrwt>
<totfact> 0.47278229E+04</totfact>
</mgrwt>
</event>
<event>
 7    0  0.4685107E-002  0.4526360E+03  0.7546771E-02  0.1026939E+00
         21   -1    0    0  502  501  0.00000000000E+00  0.00000000000E+00  0.19524310043E+03  0.19524310043E+03  0.00000000000E+00 0. -1.
         21   -1    0    0  501  502 -0.00000000000E+00 -0.00000000000E+00 -0.26233872694E+03  0.26233872694E+03  0.00000000000E+00 0. -1.
      99926    2    1    2    0    0  0.00000000000E+00  0.00000000000E+00 -0.67095626512E+02  0.45758182737E+03  0.45263595266E+03 0.  0.
      99925    2    3    3    0    0  0.47390320007E+02 -0.10025865696E+03 -0.44368110234E+02  0.28887590328E+03  0.26302683811E+03 0.  0.
         25    1    4    4    0    0  0.49291944929E+02 -0.41274841809E+02 -0.52989640628E+02  0.15029543744E+03  0.12509000000E+03 0.  0.
         25    1    3    3    0    0 -0.47390320007E+02  0.10025865696E+03 -0.22727516278E+02  0.16870592409E+03  0.12509000000E+03 0.  0.
         25    1    4    4    0    0 -0.19016249220E+01 -0.58983815150E+02  0.86215303937E+01  0.13858046584E+03  0.12509000000E+03 0.  0.
<mgrwt>
<rscale>  2 0.45263595E+03</rscale>
<asrwt>0</asrwt>
<pdfrwt beam="1">  1       21 0.28712221E-01 0.45263595E+03</pdfrwt>
<pdfrwt beam="2">  1       21 0.38579224E-01 0.45263595E+03</pdfrwt>
<totfact> 0.69661214E+04</totfact>
</mgrwt>
</event>
<event>
 7    0  0.4685107E-002  0.4344667E+03  0.7546771E-02  0.1032458E+00
         21   -1    0    0  502  501  0.00000000000E+00  0.00000000000E+00  0.11275507078E+04  0.11275507078E+04  0.00000000000E+00 0.  1.
         21   -1    0    0  501  502 -0.00000000000E+00 -0.00000000000E+00 -0.41852074057E+02  0.41852074057E+02  0.00000000000E+00 0.  1.
      99926    2    1    2    0    0 -0.35527136788E-14  0.00000000000E+00  0.10856986338E+04  0.11694027819E+04  0.43446673395E+03 0.  0.
      99925    2    3    3    0    0  0.18013029179E+02  0.85370535210E+02  0.61448158263E+03  0.67411941361E+03  0.26312881050E+03 0.  0.
         25    1    3    3    0    0 -0.18013029179E+02 -0.85370535210E+02  0.47121705116E+03  0.49528336829E+03  0.12509000000E+03 0.  0.
         25    1    4    4    0    0  0.47603538345E+02  0.42925958725E+02  0.34545899640E+03  0.37295865869E+03  0.12509000000E+03 0.  0.
         25    1    4    4    0    0 -0.29590509166E+02  0.42444576485E+02  0.26902258623E+03  0.30116075493E+03  0.12509000000E+03 0.  0.
<mgrwt>
<rscale>  2 0.43446673E+03</rscale>
<asrwt>0</asrwt>
<pdfrwt beam="1">  1       21 0.16581626E+00 0.43446673E+03</pdfrwt>
<pdfrwt beam="2">  1       21 0.61547175E-02 0.43446673E+03</pdfrwt>
<totfact> 0.39020377E+04</totfact>
</mgrwt>
</event>
<event>
 7    0  0.4685107E-002  0.4513613E+03  0.7546771E-02  0.1027317E+00
         21   -1    0    0  502  501  0.00000000000E+00  0.00000000000E+00  0.57716176553E+03  0.57716176553E+03  0.00000000000E+00 0.  1.
         21   -1    0    0  501  502 -0.00000000000E+00 -0.00000000000E+00 -0.88245205951E+02  0.88245205951E+02  0.00000000000E+00 0.  1.
      99926    2    1    2    0    0 -0.35527136788E-14  0.00000000000E+00  0.48891655957E+03  0.66540697148E+03  0.45136131365E+03 0.  0.
      99925    2    3    3    0    0 -0.30470763262E+02  0.20501138950E+02  0.46113707896E+03  0.53211041580E+03  0.26295498645E+03 0.  0.
         25    1    3    3    0    0  0.30470763262E+02 -0.20501138950E+02  0.27779480613E+02  0.13329655568E+03  0.12509000000E+03 0.  0.
         25    1    4    4    0    0 -0.36919979779E+02 -0.23135298838E+02  0.24513982199E+03  0.27863841692E+03  0.12509000000E+03 0.  0.
         25    1    4    4    0    0  0.64492165171E+01  0.43636437789E+02  0.21599725697E+03  0.25347199888E+03  0.12509000000E+03 0.  0.
<mgrwt>
<rscale>  2 0.45136131E+03</rscale>
<asrwt>0</asrwt>
<pdfrwt beam="1">  1       21 0.84876728E-01 0.45136131E+03</pdfrwt>
<pdfrwt beam="2">  1       21 0.12977236E-01 0.45136131E+03</pdfrwt>
<totfact> 0.56422780E+04</totfact>
</mgrwt>
</event>
<event>
 7    0  0.4685107E-002  0.4586153E+03  0.7546771E-02  0.1025184E+00
         21   -1    0    0  502  501  0.00000000000E+00  0.00000000000E+00  0.24725340216E+03  0.24725340216E+03  0.00000000000E+00 0. -1.
         21   -1    0    0  501  502 -0.00000000000E+00 -0.00000000000E+00 -0.21266436352E+03  0.21266436352E+03  0.00000000000E+00 0. -1.
      99926    2    1    2    0    0 -0.17763568394E-14  0.00000000000E+00  0.34589038635E+02  0.45991776568E+03  0.45861525225E+03 0.  0.
      99925    2    3    3    0    0 -0.14567065538E+02  0.53993483996E+02  0.12409543044E+03  0.29625225928E+03  0.26313158221E+03 0.  0.
         25    1    4    4    0    0 -0.11925766510E+02  0.53727584591E+01  0.22177619536E+02  0.12771235394E+03  0.12509000000E+03 0.  0.
         25    1    4    4    0    0 -0.26412990276E+01  0.48620725536E+02  0.10191781090E+03  0.16853990534E+03  0.12509000000E+03 0.  0.
         25    1    3    3    0    0  0.14567065538E+02 -0.53993483996E+02 -0.89506391804E+02  0.16366550640E+03  0.12509000000E+03 0.  0.
<mgrwt>
<rscale>  2 0.45861525E+03</rscale>
<asrwt>0</asrwt>
<pdfrwt beam="1">  1       21 0.36360795E-01 0.45861525E+03</pdfrwt>
<pdfrwt beam="2">  1       21 0.31274171E-01 0.45861525E+03</pdfrwt>
<totfact> 0.66255184E+04</totfact>
</mgrwt>
</event>
<event>
 7    0  0.4685107E-002  0.4605784E+03  0.7546771E-02  0.1024614E+00
         21   -1    0    0  502  501  0.00000000000E+00  0.00000000000E+00  0.31254248618E+03  0.31254248618E+03  0.00000000000E+00 0.  1.
         21   -1    0    0  501  502 -0.00000000000E+00 -0.00000000000E+00 -0.16968291061E+03  0.16968291061E+03  0.00000000000E+00 0.  1.
      99926    2    1    2    0    0  0.00000000000E+00  0.00000000000E+00  0.14285957557E+03  0.48222539679E+03  0.46057841350E+03 0.  0.
      99925    2    3    3    0    0 -0.91044341895E+02  0.26712195794E+02  0.15503590754E+02  0.28006291619E+03  0.26304422081E+03 0.  0.
         25    1    4    4    0    0 -0.49596059680E+02 -0.20793278724E+02  0.29392517862E+02  0.13929665388E+03  0.12509000000E+03 0.  0.
         25    1    4    4    0    0 -0.41448282214E+02  0.47505474518E+02 -0.13888927108E+02  0.14076626231E+03  0.12509000000E+03 0.  0.
         25    1    3    3    0    0  0.91044341895E+02 -0.26712195794E+02  0.12735598482E+03  0.20216248061E+03  0.12509000000E+03 0.  0.
<mgrwt>
<rscale>  2 0.46057841E+03</rscale>
<asrwt>0</asrwt>
<pdfrwt beam="1">  1       21 0.45962130E-01 0.46057841E+03</pdfrwt>
<pdfrwt beam="2">  1       21 0.24953369E-01 0.46057841E+03</pdfrwt>
<totfact> 0.63672215E+04</totfact>
</mgrwt>
</event>
<event>
 7    0  0.4685107E-002  0.4514125E+03  0.7546771E-02  0.1027302E+00
         21   -1    0    0  502  501  0.00000000000E+00  0.00000000000E+00  0.90231317476E+02  0.90231317476E+02  0.00000000000E+00 0. -1.
         21   -1    0    0  501  502 -0.00000000000E+00 -0.00000000000E+00 -0.56458559602E+03  0.56458559602E+03  0.00000000000E+00 0. -1.
      99926    2    1    2    0    0  0.00000000000E+00 -0.71054273576E-14 -0.47435427854E+03  0.65481691349E+03  0.45141245954E+03 0.  0.
      99925    2    3    3    0    0 -0.91568986572E+02 -0.60580017732E+02 -0.29869435097E+03  0.41282778956E+03  0.26297081716E+03 0.  0.
         25    1    3    3    0    0  0.91568986572E+02  0.60580017732E+02 -0.17565992757E+03  0.24198912394E+03  0.12509000000E+03 0.  0.
         25    1    4    4    0    0 -0.47845493562E+02 -0.27831857526E+02 -0.90994859952E+02  0.16429052372E+03  0.12509000000E+03 0.  0.
         25    1    4    4    0    0 -0.43723493010E+02 -0.32748160205E+02 -0.20769949102E+03  0.24853726584E+03  0.12509000000E+03 0.  0.
<mgrwt>
<rscale>  2 0.45141246E+03</rscale>
<asrwt>0</asrwt>
<pdfrwt beam="1">  1       21 0.13269311E-01 0.45141246E+03</pdfrwt>
<pdfrwt beam="2">  1       21 0.83027295E-01 0.45141246E+03</pdfrwt>
<totfact> 0.57021294E+04</totfact>
</mgrwt>
</event>
<event>
 7    0  0.4685107E-002  0.4460466E+03  0.7546771E-02  0.1028908E+00
         21   -1    0    0  502  501  0.00000000000E+00  0.00000000000E+00  0.39323354839E+02  0.39323354839E+02  0.00000000000E+00 0. -1.
         21   -1    0    0  501  502 -0.00000000000E+00 -0.00000000000E+00 -0.12648814827E+04  0.12648814827E+04  0.00000000000E+00 0. -1.
      99926    2    1    2    0    0  0.00000000000E+00  0.00000000000E+00 -0.12255581279E+04  0.13042048376E+04  0.44604655979E+03 0.  0.
      99925    2    3    3    0    0 -0.67344271676E+02 -0.48095466066E+02 -0.96440222239E+03  0.10030431868E+04  0.26301247757E+03 0.  0.
         25    1    4    4    0    0  0.33298025452E+01 -0.39587653435E+02 -0.42840373528E+03  0.44805751684E+03  0.12509000000E+03 0.  0.
         25    1    4    4    0    0 -0.70674074222E+02 -0.85078126303E+01 -0.53599848710E+03  0.55498567001E+03  0.12509000000E+03 0.  0.
         25    1    3    3    0    0  0.67344271676E+02  0.48095466066E+02 -0.26115590551E+03  0.30116165072E+03  0.12509000000E+03 0.  0.
<mgrwt>
<rscale>  2 0.44604656E+03</rscale>
<asrwt>0</asrwt>
<pdfrwt beam="1">  1       21 0.57828462E-02 0.44604656E+03</pdfrwt>
<pdfrwt beam="2">  1       21 0.18601198E+00 0.44604656E+03</pdfrwt>
<totfact> 0.31102749E+04</totfact>
</mgrwt>
</event>
<event>
 7    0  0.4685107E-002  0.4572010E+03  0.7546771E-02  0.1025596E+00
         21   -1    0    0  502  501  0.00000000000E+00  0.00000000000E+00  0.24196506335E+03  0.24196506335E+03  0.00000000000E+00 0. -1.
         21   -1    0    0  501  502 -0.00000000000E+00 -0.00000000000E+00 -0.21597412317E+03  0.21597412317E+03  0.00000000000E+00 0. -1.
      99926    2    1    2    0    0  0.00000000000E+00  0.00000000000E+00  0.25990940177E+02  0.45793918652E+03  0.45720101660E+03 0.  0.
      99925    2    3    3    0    0  0.20831259808E+01  0.10758349758E+03 -0.24923905774E+02  0.28525919924E+03  0.26300772101E+03 0.  0.
         25    1    4    4    0    0  0.10800560867E+02  0.44390421253E+02  0.26387946798E+02  0.13576079497E+03  0.12509000000E+03 0.  0.
         25    1    3    3    0    0 -0.20831259808E+01 -0.10758349758E+03  0.50914845951E+02  0.17267998727E+03  0.12509000000E+03 0.  0.
         25    1    4    4    0    0 -0.87174348863E+01  0.63193076329E+02 -0.51311852571E+02  0.14949840428E+03  0.12509000000E+03 0.  0.
<mgrwt>
<rscale>  2 0.45720102E+03</rscale>
<asrwt>0</asrwt>
<pdfrwt beam="1">  1       21 0.35583098E-01 0.45720102E+03</pdfrwt>
<pdfrwt beam="2">  1       21 0.31760900E-01 0.45720102E+03</pdfrwt>
<totfact> 0.67144113E+04</totfact>
</mgrwt>
</event>
<event>
 7    0  0.4685107E-002  0.4572918E+03  0.7546771E-02  0.1025570E+00
         21   -1    0    0  502  501  0.00000000000E+00  0.00000000000E+00  0.34932024521E+03  0.34932024521E+03  0.00000000000E+00 0. -1.
         21   -1    0    0  501  502 -0.00000000000E+00 -0.00000000000E+00 -0.14965905143E+03  0.14965905143E+03  0.00000000000E+00 0. -1.
      99926    2    1    2    0    0 -0.38857805862E-14  0.00000000000E+00  0.19966119378E+03  0.49897929664E+03  0.45729175171E+03 0.  0.
      99925    2    3    3    0    0  0.27346554293E+00  0.11253580663E+03  0.98053721711E+02  0.30241895212E+03  0.26301769466E+03 0.  0.
         25    1    4    4    0    0  0.36603519599E+02  0.37872199897E+02  0.52415880495E+02  0.14549588929E+03  0.12509000000E+03 0.  0.
         25    1    3    3    0    0 -0.27346554293E+00 -0.11253580663E+03  0.10160747207E+03  0.19656034452E+03  0.12509000000E+03 0.  0.
         25    1    4    4    0    0 -0.36330054056E+02  0.74663606737E+02  0.45637841216E+02  0.15692306284E+03  0.12509000000E+03 0.  0.
<mgrwt>
<rscale>  2 0.45729175E+03</rscale>
<asrwt>0</asrwt>
<pdfrwt beam="1">  1       21 0.51370624E-01 0.45729175E+03</pdfrwt>
<pdfrwt beam="2">  1       21 0.22008684E-01 0.45729175E+03</pdfrwt>
<totfact> 0.64167089E+04</totfact>
</mgrwt>
</event>
<event>
 7    0  0.4685107E-002  0.4497480E+03  0.7546771E-02  0.1027797E+00
         21   -1    0    0  502  501  0.00000000000E+00  0.00000000000E+00  0.16877485946E+03  0.16877485946E+03  0.00000000000E+00 0.  1.
         21   -1    0    0  501  502 -0.00000000000E+00 -0.00000000000E+00 -0.29961995505E+03  0.29961995505E+03  0.00000000000E+00 0.  1.
      99926    2    1    2    0    0 -0.17763568394E-14 -0.71054273576E-14 -0.13084509559E+03  0.46839481452E+03  0.44974799969E+03 0.  0.
      99925    2    3    3    0    0 -0.13179607462E+02 -0.40794859959E+02 -0.18624256948E+03  0.32502706757E+03  0.26290374154E+03 0.  0.
         25    1    4    4    0    0 -0.88449419807E+01 -0.36952244040E+02 -0.49974808195E+02  0.13995960450E+03  0.12509000000E+03 0.  0.
         25    1    4    4    0    0 -0.43346654810E+01 -0.38426159195E+01 -0.13626776128E+03  0.18506746307E+03  0.12509000000E+03 0.  0.
         25    1    3    3    0    0  0.13179607462E+02  0.40794859959E+02  0.55397473882E+02  0.14336774695E+03  0.12509000000E+03 0.  0.
<mgrwt>
<rscale>  2 0.44974800E+03</rscale>
<asrwt>0</asrwt>
<pdfrwt beam="1">  1       21 0.24819832E-01 0.44974800E+03</pdfrwt>
<pdfrwt beam="2">  1       21 0.44061758E-01 0.44974800E+03</pdfrwt>
<totfact> 0.70445201E+04</totfact>
</mgrwt>
</event>
<event>
 7    0  0.4685107E-002  0.4681493E+03  0.7546771E-02  0.1022444E+00
         21   -1    0    0  502  501  0.00000000000E+00  0.00000000000E+00  0.37893955760E+02  0.37893955760E+02  0.00000000000E+00 0. -1.
         21   -1    0    0  501  502 -0.00000000000E+00 -0.00000000000E+00 -0.14459016399E+04  0.14459016399E+04  0.00000000000E+00 0. -1.
      99926    2    1    2    0    0 -0.71054273576E-14  0.14210854715E-13 -0.14080076842E+04  0.14837955957E+04  0.46814926157E+03 0.  0.
      99925    2    3    3    0    0 -0.55425570594E+02  0.11176922896E+03 -0.85094750213E+03  0.89939170373E+03  0.26311486266E+03 0.  0.
         25    1    4    4    0    0 -0.42895077134E+02  0.18907563593E+02 -0.43499510405E+03  0.45504475852E+03  0.12509000000E+03 0.  0.
         25    1    4    4    0    0 -0.12530493460E+02  0.92861665362E+02 -0.41595239807E+03  0.44434694522E+03  0.12509000000E+03 0.  0.
         25    1    3    3    0    0  0.55425570594E+02 -0.11176922896E+03 -0.55706018206E+03  0.58440389198E+03  0.12509000000E+03 0.  0.
<mgrwt>
<rscale>  2 0.46814926E+03</rscale>
<asrwt>0</asrwt>
<pdfrwt beam="1">  1       21 0.55726402E-02 0.46814926E+03</pdfrwt>
<pdfrwt beam="2">  1       21 0.21263261E+00 0.46814926E+03</pdfrwt>
<totfact> 0.21859672E+04</totfact>
</mgrwt>
</event>
<event>
 7    0  0.4685107E-002  0.4539821E+03  0.7546771E-02  0.1026541E+00
         21   -1    0    0  502  501  0.00000000000E+00  0.00000000000E+00  0.15162600301E+04  0.15162600301E+04  0.00000000000E+00 0.  1.
         21   -1    0    0  501  502 -0.00000000000E+00 -0.00000000000E+00 -0.33981592017E+02  0.33981592017E+02  0.00000000000E+00 0.  1.
      99926    2    1    2    0    0  0.00000000000E+00  0.00000000000E+00  0.14822784381E+04  0.15502416222E+04  0.45398206897E+03 0.  0.
      99925    2    3    3    0    0  0.10305487394E+03  0.42099865651E+02  0.98359099262E+03  0.10241908811E+04  0.26291256056E+03 0.  0.
         25    1    4    4    0    0  0.85859388437E+02  0.32118234106E+02  0.45762370847E+03  0.48318772977E+03  0.12509000000E+03 0.  0.
         25    1    3    3    0    0 -0.10305487394E+03 -0.42099865651E+02  0.49868744550E+03  0.52605074102E+03  0.12509000000E+03 0.  0.
         25    1    4    4    0    0  0.17195485501E+02  0.99816315446E+01  0.52596728415E+03  0.54100315137E+03  0.12509000000E+03 0.  0.
<mgrwt>
<rscale>  2 0.45398207E+03</rscale>
<asrwt>0</asrwt>
<pdfrwt beam="1">  1       21 0.22297937E+00 0.45398207E+03</pdfrwt>
<pdfrwt beam="2">  1       21 0.49972940E-02 0.45398207E+03</pdfrwt>
<totfact> 0.22753590E+04</totfact>
</mgrwt>
</event>
<event>
 7    0  0.4685107E-002  0.4563280E+03  0.7546771E-02  0.1025852E+00
         21   -1    0    0  502  501  0.00000000000E+00  0.00000000000E+00  0.72095396852E+03  0.72095396852E+03  0.00000000000E+00 0. -1.
         21   -1    0    0  501  502 -0.00000000000E+00 -0.00000000000E+00 -0.72208225573E+02  0.72208225573E+02  0.00000000000E+00 0. -1.
      99926    2    1    2    0    0  0.00000000000E+00  0.00000000000E+00  0.64874574295E+03  0.79316219409E+03  0.45632798199E+03 0.  0.
      99925    2    3    3    0    0  0.95844955763E+02 -0.62480607156E+02  0.40686876517E+03  0.49779452103E+03  0.26299640924E+03 0.  0.
         25    1    3    3    0    0 -0.95844955763E+02  0.62480607156E+02  0.24187697777E+03  0.29536767307E+03  0.12509000000E+03 0.  0.
         25    1    4    4    0    0  0.37255013900E+02  0.85607979721E+01  0.20308755618E+03  0.24156425004E+03  0.12509000000E+03 0.  0.
         25    1    4    4    0    0  0.58589941863E+02 -0.71041405128E+02  0.20378120899E+03  0.25623027099E+03  0.12509000000E+03 0.  0.
<mgrwt>
<rscale>  2 0.45632798E+03</rscale>
<asrwt>0</asrwt>
<pdfrwt beam="1">  1       21 0.10602264E+00 0.45632798E+03</pdfrwt>
<pdfrwt beam="2">  1       21 0.10618857E-01 0.45632798E+03</pdfrwt>
<totfact> 0.47599300E+04</totfact>
</mgrwt>
</event>
<event>
 7    0  0.4685107E-002  0.4474867E+03  0.7546771E-02  0.1028474E+00
         21   -1    0    0  502  501  0.00000000000E+00  0.00000000000E+00  0.51926731409E+03  0.51926731409E+03  0.00000000000E+00 0.  1.
         21   -1    0    0  501  502 -0.00000000000E+00 -0.00000000000E+00 -0.96407143181E+02  0.96407143181E+02  0.00000000000E+00 0.  1.
      99926    2    1    2    0    0  0.00000000000E+00  0.26645352591E-14  0.42286017091E+03  0.61567445727E+03  0.44748666259E+03 0.  0.
      99925    2    3    3    0    0 -0.63510631085E+02 -0.59268735793E+01  0.15147274409E+03  0.31011370778E+03  0.26297869013E+03 0.  0.
         25    1    3    3    0    0  0.63510631085E+02  0.59268735793E+01  0.27138742682E+03  0.30556074949E+03  0.12509000000E+03 0.  0.
         25    1    4    4    0    0 -0.44115261571E+02 -0.36807718657E+02  0.99428270290E+02  0.16980710671E+03  0.12509000000E+03 0.  0.
         25    1    4    4    0    0 -0.19395369515E+02  0.30880845077E+02  0.52044473796E+02  0.14030660107E+03  0.12509000000E+03 0.  0.
<mgrwt>
<rscale>  2 0.44748666E+03</rscale>
<asrwt>0</asrwt>
<pdfrwt beam="1">  1       21 0.76362839E-01 0.44748666E+03</pdfrwt>
<pdfrwt beam="2">  1       21 0.14177521E-01 0.44748666E+03</pdfrwt>
<totfact> 0.61279538E+04</totfact>
</mgrwt>
</event>
<event>
 7    0  0.4685107E-002  0.4588990E+03  0.7546771E-02  0.1025101E+00
         21   -1    0    0  502  501  0.00000000000E+00  0.00000000000E+00  0.11749393489E+03  0.11749393489E+03  0.00000000000E+00 0.  1.
         21   -1    0    0  501  502 -0.00000000000E+00 -0.00000000000E+00 -0.44808340962E+03  0.44808340962E+03  0.00000000000E+00 0.  1.
      99926    2    1    2    0    0  0.00000000000E+00  0.00000000000E+00 -0.33058947473E+03  0.56557734451E+03  0.45889904317E+03 0.  0.
      99925    2    3    3    0    0 -0.69501177883E+02  0.76622610327E+02 -0.27392788561E+03  0.39364863277E+03  0.26309945159E+03 0.  0.
         25    1    3    3    0    0  0.69501177883E+02 -0.76622610327E+02 -0.56661589121E+02  0.17192871174E+03  0.12509000000E+03 0.  0.
         25    1    4    4    0    0 -0.56312701915E+02  0.33829262771E+02 -0.18894698479E+03  0.23593221606E+03  0.12509000000E+03 0.  0.
         25    1    4    4    0    0 -0.13188475968E+02  0.42793347556E+02 -0.84980900819E+02  0.15771641670E+03  0.12509000000E+03 0.  0.
<mgrwt>
<rscale>  2 0.45889904E+03</rscale>
<asrwt>0</asrwt>
<pdfrwt beam="1">  1       21 0.17278520E-01 0.45889904E+03</pdfrwt>
<pdfrwt beam="2">  1       21 0.65894620E-01 0.45889904E+03</pdfrwt>
<totfact> 0.59007955E+04</totfact>
</mgrwt>
</event>
<event>
 7    0  0.4685107E-002  0.4553809E+03  0.7546771E-02  0.1026129E+00
         21   -1    0    0  502  501  0.00000000000E+00  0.00000000000E+00  0.48438651739E+03  0.48438651739E+03  0.00000000000E+00 0.  1.
         21   -1    0    0  501  502 -0.00000000000E+00 -0.00000000000E+00 -0.10702803008E+03  0.10702803008E+03  0.00000000000E+00 0.  1.
      99926    2    1    2    0    0  0.14210854715E-13  0.00000000000E+00  0.37735848732E+03  0.59141454747E+03  0.45538087247E+03 0.  0.
      99925    2    3    3    0    0  0.10679841990E+03 -0.31436082395E+02  0.20885363574E+03  0.35385292836E+03  0.26305498280E+03 0.  0.
         25    1    4    4    0    0  0.72468757516E+02  0.17290309684E+02  0.88989151656E+02  0.17063778256E+03  0.12509000000E+03 0.  0.
         25    1    4    4    0    0  0.34329662388E+02 -0.48726392080E+02  0.11986448409E+03  0.18321514580E+03  0.12509000000E+03 0.  0.
         25    1    3    3    0    0 -0.10679841990E+03  0.31436082395E+02  0.16850485157E+03  0.23756161911E+03  0.12509000000E+03 0.  0.
<mgrwt>
<rscale>  2 0.45538087E+03</rscale>
<asrwt>0</asrwt>
<pdfrwt beam="1">  1       21 0.71233310E-01 0.45538087E+03</pdfrwt>
<pdfrwt beam="2">  1       21 0.15739416E-01 0.45538087E+03</pdfrwt>
<totfact> 0.59031965E+04</totfact>
</mgrwt>
</event>
<event>
 7    0  0.4685107E-002  0.4561761E+03  0.7546771E-02  0.1025896E+00
         21   -1    0    0  502  501  0.00000000000E+00  0.00000000000E+00  0.67732426981E+02  0.67732426981E+02  0.00000000000E+00 0. -1.
         21   -1    0    0  501  502 -0.00000000000E+00 -0.00000000000E+00 -0.76808349058E+03  0.76808349058E+03  0.00000000000E+00 0. -1.
      99926    2    1    2    0    0  0.00000000000E+00  0.00000000000E+00 -0.70035106360E+03  0.83581591756E+03  0.45617610170E+03 0.  0.
      99925    2    3    3    0    0  0.10705853043E+03  0.29593479931E+02 -0.48960196318E+03  0.56674344699E+03  0.26296530069E+03 0.  0.
         25    1    3    3    0    0 -0.10705853043E+03 -0.29593479931E+02 -0.21074910042E+03  0.26907247057E+03  0.12509000000E+03 0.  0.
         25    1    4    4    0    0  0.25325467732E+02 -0.16246156166E+02 -0.23791379270E+03  0.27047328475E+03  0.12509000000E+03 0.  0.
         25    1    4    4    0    0  0.81733062693E+02  0.45839636097E+02 -0.25168817048E+03  0.29627016224E+03  0.12509000000E+03 0.  0.
<mgrwt>
<rscale>  2 0.45617610E+03</rscale>
<asrwt>0</asrwt>
<pdfrwt beam="1">  1       21 0.99606512E-02 0.45617610E+03</pdfrwt>
<pdfrwt beam="2">  1       21 0.11295345E+00 0.45617610E+03</pdfrwt>
<totfact> 0.45657940E+04</totfact>
</mgrwt>
</event>
<event>
 7    0  0.4685107E-002  0.4507868E+03  0.7546771E-02  0.1027488E+00
         21   -1    0    0  502  501  0.00000000000E+00  0.00000000000E+00  0.95349903757E+02  0.95349903757E+02  0.00000000000E+00 0.  1.
         21   -1    0    0  501  502 -0.00000000000E+00 -0.00000000000E+00 -0.53279747666E+03  0.53279747666E+03  0.00000000000E+00 0.  1.
      99926    2    1    2    0    0  0.00000000000E+00  0.00000000000E+00 -0.43744757290E+03  0.62814738041E+03  0.45078681490E+03 0.  0.
      99925    2    3    3    0    0  0.12559497032E+02  0.88736049750E+02 -0.18934174924E+03  0.33619561158E+03  0.26295506032E+03 0.  0.
         25    1    3    3    0    0 -0.12559497032E+02 -0.88736049750E+02 -0.24810582366E+03  0.29195176883E+03  0.12509000000E+03 0.  0.
         25    1    4    4    0    0  0.10777187961E+01  0.83368222637E+02 -0.84247697506E+02  0.17232702823E+03  0.12509000000E+03 0.  0.
         25    1    4    4    0    0  0.11481778235E+02  0.53678271130E+01 -0.10509405173E+03  0.16386858335E+03  0.12509000000E+03 0.  0.
<mgrwt>
<rscale>  2 0.45078681E+03</rscale>
<asrwt>0</asrwt>
<pdfrwt beam="1">  1       21 0.14022045E-01 0.45078681E+03</pdfrwt>
<pdfrwt beam="2">  1       21 0.78352569E-01 0.45078681E+03</pdfrwt>
<totfact> 0.58913478E+04</totfact>
</mgrwt>
</event>
<event>
 7    0  0.4685107E-002  0.4397887E+03  0.7546771E-02  0.1030812E+00
         21   -1    0    0  502  501  0.00000000000E+00  0.00000000000E+00  0.16655135518E+03  0.16655135518E+03  0.00000000000E+00 0. -1.
         21   -1    0    0  501  502 -0.00000000000E+00 -0.00000000000E+00 -0.29032202461E+03  0.29032202461E+03  0.00000000000E+00 0. -1.
      99926    2    1    2    0    0  0.71054273576E-14  0.00000000000E+00 -0.12377066943E+03  0.45687337979E+03  0.43978870671E+03 0.  0.
      99925    2    3    3    0    0  0.40639782205E+02 -0.77732986679E+02 -0.32936237243E+02  0.27913083765E+03  0.26293577103E+03 0.  0.
         25    1    3    3    0    0 -0.40639782205E+02  0.77732986679E+02 -0.90834432187E+02  0.17774254214E+03  0.12509000000E+03 0.  0.
         25    1    4    4    0    0 -0.62357350459E+01 -0.56864269496E+02 -0.41446688176E+02  0.14365850339E+03  0.12509000000E+03 0.  0.
         25    1    4    4    0    0  0.46875517251E+02 -0.20868717183E+02  0.85104509327E+01  0.13547233426E+03  0.12509000000E+03 0.  0.
<mgrwt>
<rscale>  2 0.43978871E+03</rscale>
<asrwt>0</asrwt>
<pdfrwt beam="1">  1       21 0.24492847E-01 0.43978871E+03</pdfrwt>
<pdfrwt beam="2">  1       21 0.42694415E-01 0.43978871E+03</pdfrwt>
<totfact> 0.77344586E+04</totfact>
</mgrwt>
</event>
<event>
 7    0  0.4685107E-002  0.4335718E+03  0.7546771E-02  0.1032738E+00
         21   -1    0    0  502  501  0.00000000000E+00  0.00000000000E+00  0.97820966518E+02  0.97820966518E+02  0.00000000000E+00 0. -1.
         21   -1    0    0  501  502 -0.00000000000E+00 -0.00000000000E+00 -0.48043008151E+03  0.48043008151E+03  0.00000000000E+00 0. -1.
      99926    2    1    2    0    0 -0.17763568394E-14  0.00000000000E+00 -0.38260911499E+03  0.57825104803E+03  0.43357183911E+03 0.  0.
      99925    2    3    3    0    0  0.89459861554E+01 -0.69649556876E+02 -0.32432092463E+03  0.42340882937E+03  0.26298266711E+03 0.  0.
         25    1    4    4    0    0  0.30179479641E+02 -0.62928799337E+02 -0.19664244825E+03  0.24328295323E+03  0.12509000000E+03 0.  0.
         25    1    3    3    0    0 -0.89459861554E+01  0.69649556876E+02 -0.58288190364E+02  0.15484221865E+03  0.12509000000E+03 0.  0.
         25    1    4    4    0    0 -0.21233493485E+02 -0.67207575392E+01 -0.12767847638E+03  0.18012587615E+03  0.12509000000E+03 0.  0.
<mgrwt>
<rscale>  2 0.43357184E+03</rscale>
<asrwt>0</asrwt>
<pdfrwt beam="1">  1       21 0.14385436E-01 0.43357184E+03</pdfrwt>
<pdfrwt beam="2">  1       21 0.70651483E-01 0.43357184E+03</pdfrwt>
<totfact> 0.71382777E+04</totfact>
</mgrwt>
</event>
<event>
 7    0  0.4685107E-002  0.4586812E+03  0.7546771E-02  0.1025164E+00
         21   -1    0    0  502  501  0.00000000000E+00  0.00000000000E+00  0.42967803844E+02  0.42967803844E+02  0.00000000000E+00 0.  1.
         21   -1    0    0  501  502 -0.00000000000E+00 -0.00000000000E+00 -0.12241053860E+04  0.12241053860E+04  0.00000000000E+00 0.  1.
      99926    2    1    2    0    0  0.00000000000E+00  0.88817841970E-15 -0.11811375822E+04  0.12670731899E+04  0.45868124057E+03 0.  0.
      99925    2    3    3    0    0 -0.11236856247E+03 -0.30643705533E+01 -0.82611452144E+03  0.87423102569E+03  0.26301824947E+03 0.  0.
         25    1    4    4    0    0 -0.20090058932E+02 -0.11524961655E+02 -0.30811702933E+03  0.33334673700E+03  0.12509000000E+03 0.  0.
         25    1    4    4    0    0 -0.92278503537E+02  0.84605911021E+01 -0.51799749211E+03  0.54088428869E+03  0.12509000000E+03 0.  0.
         25    1    3    3    0    0  0.11236856247E+03  0.30643705533E+01 -0.35502306076E+03  0.39284216420E+03  0.12509000000E+03 0.  0.
<mgrwt>
<rscale>  2 0.45868124E+03</rscale>
<asrwt>0</asrwt>
<pdfrwt beam="1">  1       21 0.63187952E-02 0.45868124E+03</pdfrwt>
<pdfrwt beam="2">  1       21 0.18001548E+00 0.45868124E+03</pdfrwt>
<totfact> 0.29239371E+04</totfact>
</mgrwt>
</event>
<event>
 7    0  0.4685107E-002  0.4450830E+03  0.7546771E-02  0.1029199E+00
         21   -1    0    0  502  501  0.00000000000E+00  0.00000000000E+00  0.14492171011E+03  0.14492171011E+03  0.00000000000E+00 0.  1.
         21   -1    0    0  501  502 -0.00000000000E+00 -0.00000000000E+00 -0.34173423115E+03  0.34173423115E+03  0.00000000000E+00 0.  1.
      99926    2    1    2    0    0  0.00000000000E+00  0.00000000000E+00 -0.19681252104E+03  0.48665594126E+03  0.44508295488E+03 0.  0.
      99925    2    3    3    0    0  0.43094019728E+02  0.25162823170E+02 -0.25703907510E+02  0.26890395406E+03  0.26297981565E+03 0.  0.
         25    1    4    4    0    0  0.33348968702E+02  0.23642498755E+02  0.24307772588E+02  0.13382637023E+03  0.12509000000E+03 0.  0.
         25    1    3    3    0    0 -0.43094019728E+02 -0.25162823170E+02 -0.17110861353E+03  0.21775198720E+03  0.12509000000E+03 0.  0.
         25    1    4    4    0    0  0.97450510257E+01  0.15203244148E+01 -0.50011680098E+02  0.13507758383E+03  0.12509000000E+03 0.  0.
<mgrwt>
<rscale>  2 0.44508295E+03</rscale>
<asrwt>0</asrwt>
<pdfrwt beam="1">  1       21 0.21312016E-01 0.44508295E+03</pdfrwt>
<pdfrwt beam="2">  1       21 0.50255034E-01 0.44508295E+03</pdfrwt>
<totfact> 0.71699328E+04</totfact>
</mgrwt>
</event>
<event>
 7    0  0.4685107E-002  0.4461109E+03  0.7546771E-02  0.1028888E+00
         21   -1    0    0  502  501  0.00000000000E+00  0.00000000000E+00  0.36904639448E+03  0.36904639448E+03  0.00000000000E+00 0. -1.
         21   -1    0    0  501  502 -0.00000000000E+00 -0.00000000000E+00 -0.13481699865E+03  0.13481699865E+03  0.00000000000E+00 0. -1.
      99926    2    1    2    0    0 -0.35527136788E-14 -0.17763568394E-14  0.23422939582E+03  0.50386339313E+03  0.44611087083E+03 0.  0.
      99925    2    3    3    0    0  0.28213423418E+02  0.10031142413E+02  0.26188205410E+03  0.37230048541E+03  0.26292360125E+03 0.  0.
         25    1    3    3    0    0 -0.28213423418E+02 -0.10031142413E+02 -0.27652658277E+02  0.13156290772E+03  0.12509000000E+03 0.  0.
         25    1    4    4    0    0  0.52485907038E+02  0.14350836812E+02  0.12167474953E+03  0.18279214898E+03  0.12509000000E+03 0.  0.
         25    1    4    4    0    0 -0.24272483620E+02 -0.43196943998E+01  0.14020730457E+03  0.18950833643E+03  0.12509000000E+03 0.  0.
<mgrwt>
<rscale>  2 0.44611087E+03</rscale>
<asrwt>0</asrwt>
<pdfrwt beam="1">  1       21 0.54271528E-01 0.44611087E+03</pdfrwt>
<pdfrwt beam="2">  1       21 0.19826029E-01 0.44611087E+03</pdfrwt>
<totfact> 0.69795608E+04</totfact>
</mgrwt>
</event>
<event>
 7    0  0.4685107E-002  0.4530080E+03  0.7546771E-02  0.1026829E+00
         21   -1    0    0  502  501  0.00000000000E+00  0.00000000000E+00  0.22739596651E+03  0.22739596651E+03  0.00000000000E+00 0. -1.
         21   -1    0    0  501  502 -0.00000000000E+00 -0.00000000000E+00 -0.22561551206E+03  0.22561551206E+03  0.00000000000E+00 0. -1.
      99926    2    1    2    0    0 -0.71054273576E-14  0.00000000000E+00  0.17804544529E+01  0.45301147857E+03  0.45300797972E+03 0.  0.
      99925    2    3    3    0    0  0.30315571851E+02  0.77497943223E+02 -0.72793268395E+02  0.28528040411E+03  0.26298495003E+03 0.  0.
         25    1    3    3    0    0 -0.30315571851E+02 -0.77497943223E+02  0.74573722847E+02  0.16773107446E+03  0.12509000000E+03 0.  0.
         25    1    4    4    0    0 -0.14472961049E+02  0.36476329292E+02 -0.64156695205E+02  0.14595745558E+03  0.12509000000E+03 0.  0.
         25    1    4    4    0    0  0.44788532900E+02  0.41021613930E+02 -0.86365731894E+01  0.13932294852E+03  0.12509000000E+03 0.  0.
<mgrwt>
<rscale>  2 0.45300798E+03</rscale>
<asrwt>0</asrwt>
<pdfrwt beam="1">  1       21 0.33440583E-01 0.45300798E+03</pdfrwt>
<pdfrwt beam="2">  1       21 0.33178752E-01 0.45300798E+03</pdfrwt>
<totfact> 0.69794465E+04</totfact>
</mgrwt>
</event>
<event>
 7    0  0.4685107E-002  0.4739494E+03  0.7546771E-02  0.1020811E+00
         21   -1    0    0  502  501  0.00000000000E+00  0.00000000000E+00  0.17855377609E+04  0.17855377609E+04  0.00000000000E+00 0.  1.
         21   -1    0    0  501  502 -0.00000000000E+00 -0.00000000000E+00 -0.31451038479E+02  0.31451038479E+02  0.00000000000E+00 0.  1.
      99926    2    1    2    0    0  0.00000000000E+00 -0.71054273576E-14  0.17540867224E+04  0.18169887993E+04  0.47394943537E+03 0.  0.
      99925    2    3    3    0    0 -0.12305241019E+03 -0.36439049338E+02  0.10039904943E+04  0.10457809419E+04  0.26304213678E+03 0.  0.
         25    1    3    3    0    0  0.12305241019E+03  0.36439049338E+02  0.75009622807E+03  0.77120785748E+03  0.12509000000E+03 0.  0.
         25    1    4    4    0    0 -0.70807293263E+02 -0.41859454665E+02  0.40957537802E+03  0.43607956282E+03  0.12509000000E+03 0.  0.
         25    1    4    4    0    0 -0.52245116926E+02  0.54204053273E+01  0.59441511629E+03  0.60970137905E+03  0.12509000000E+03 0.  0.
<mgrwt>
<rscale>  2 0.47394944E+03</rscale>
<asrwt>0</asrwt>
<pdfrwt beam="1">  1       21 0.26257901E+00 0.47394944E+03</pdfrwt>
<pdfrwt beam="2">  1       21 0.46251539E-02 0.47394944E+03</pdfrwt>
<totfact> 0.14657501E+04</totfact>
</mgrwt>
</event>
<event>
 7    0  0.4685107E-002  0.4565584E+03  0.7546771E-02  0.1025784E+00
         21   -1    0    0  502  501  0.00000000000E+00  0.00000000000E+00  0.35716192397E+03  0.35716192397E+03  0.00000000000E+00 0.  1.
         21   -1    0    0  501  502 -0.00000000000E+00 -0.00000000000E+00 -0.14590412131E+03  0.14590412131E+03  0.00000000000E+00 0.  1.
      99926    2    1    2    0    0  0.00000000000E+00 -0.14210854715E-13  0.21125780266E+03  0.50306604528E+03  0.45655841547E+03 0.  0.
      99925    2    3    3    0    0 -0.41660895101E+01 -0.10342621899E+03  0.18708400436E+03  0.33891300784E+03  0.26295867189E+03 0.  0.
         25    1    4    4    0    0 -0.15112151146E+01 -0.18090395913E+02  0.54577248360E+02  0.13767981092E+03  0.12509000000E+03 0.  0.
         25    1    4    4    0    0 -0.26548743955E+01 -0.85335823081E+02  0.13250675600E+03  0.20123319693E+03  0.12509000000E+03 0.  0.
         25    1    3    3    0    0  0.41660895101E+01  0.10342621899E+03  0.24173798294E+02  0.16415303744E+03  0.12509000000E+03 0.  0.
<mgrwt>
<rscale>  2 0.45655842E+03</rscale>
<asrwt>0</asrwt>
<pdfrwt beam="1">  1       21 0.52523812E-01 0.45655842E+03</pdfrwt>
<pdfrwt beam="2">  1       21 0.21456488E-01 0.45655842E+03</pdfrwt>
<totfact> 0.64257228E+04</totfact>
</mgrwt>
</event>
<event>
 7    0  0.4685107E-002  0.4533155E+03  0.7546771E-02  0.1026738E+00
         21   -1    0    0  502  501  0.00000000000E+00  0.00000000000E+00  0.43828597962E+02  0.43828597962E+02  0.00000000000E+00 0. -1.
         21   -1    0    0  501  502 -0.00000000000E+00 -0.00000000000E+00 -0.11721512474E+04  0.11721512474E+04  0.00000000000E+00 0. -1.
      99926    2    1    2    0    0 -0.71054273576E-14  0.00000000000E+00 -0.11283226495E+04  0.12159798454E+04  0.45331554474E+03 0.  0.
      99925    2    3    3    0    0  0.62335459910E+02 -0.31648943425E+02 -0.94457367003E+03  0.98295932972E+03  0.26287308836E+03 0.  0.
         25    1    4    4    0    0  0.67685508950E+02 -0.26977655624E+01 -0.44906556373E+03  0.47105837716E+03  0.12509000000E+03 0.  0.
         25    1    3    3    0    0 -0.62335459910E+02  0.31648943425E+02 -0.18374897945E+03  0.23302051569E+03  0.12509000000E+03 0.  0.
         25    1    4    4    0    0 -0.53500490394E+01 -0.28951177863E+02 -0.49550810630E+03  0.51190095256E+03  0.12509000000E+03 0.  0.
<mgrwt>
<rscale>  2 0.45331554E+03</rscale>
<asrwt>0</asrwt>
<pdfrwt beam="1">  1       21 0.64453830E-02 0.45331554E+03</pdfrwt>
<pdfrwt beam="2">  1       21 0.17237516E+00 0.45331554E+03</pdfrwt>
<totfact> 0.32072259E+04</totfact>
</mgrwt>
</event>
<event>
 7    0  0.4685107E-002  0.4572097E+03  0.7546771E-02  0.1025594E+00
         21   -1    0    0  502  501  0.00000000000E+00  0.00000000000E+00  0.58598583923E+03  0.58598583923E+03  0.00000000000E+00 0.  1.
         21   -1    0    0  501  502 -0.00000000000E+00 -0.00000000000E+00 -0.89183333110E+02  0.89183333110E+02  0.00000000000E+00 0.  1.
      99926    2    1    2    0    0 -0.14210854715E-13  0.71054273576E-14  0.49680250612E+03  0.67516917234E+03  0.45720966874E+03 0.  0.
      99925    2    3    3    0    0 -0.71633381975E+02  0.32482425122E+02  0.18782201496E+03  0.33267406089E+03  0.26307503136E+03 0.  0.
         25    1    4    4    0    0 -0.41327689757E+02  0.48260696069E+02  0.67164808357E+02  0.15554964580E+03  0.12509000000E+03 0.  0.
         25    1    4    4    0    0 -0.30305692218E+02 -0.15778270947E+02  0.12065720661E+03  0.17712441509E+03  0.12509000000E+03 0.  0.
         25    1    3    3    0    0  0.71633381975E+02 -0.32482425122E+02  0.30898049116E+03  0.34249511146E+03  0.12509000000E+03 0.  0.
<mgrwt>
<rscale>  2 0.45720967E+03</rscale>
<asrwt>0</asrwt>
<pdfrwt beam="1">  1       21 0.86174387E-01 0.45720967E+03</pdfrwt>
<pdfrwt beam="2">  1       21 0.13115196E-01 0.45720967E+03</pdfrwt>
<totfact> 0.53337347E+04</totfact>
</mgrwt>
</event>
<event>
 7    0  0.4685107E-002  0.4534895E+03  0.7546771E-02  0.1026687E+00
         21   -1    0    0  502  501  0.00000000000E+00  0.00000000000E+00  0.11426408758E+03  0.11426408758E+03  0.00000000000E+00 0.  1.
         21   -1    0    0  501  502 -0.00000000000E+00 -0.00000000000E+00 -0.44995050647E+03  0.44995050647E+03  0.00000000000E+00 0.  1.
      99926    2    1    2    0    0  0.00000000000E+00  0.00000000000E+00 -0.33568641888E+03  0.56421459405E+03  0.45348951070E+03 0.  0.
      99925    2    3    3    0    0  0.72938557730E+02 -0.20593125312E+01 -0.31681704050E+03  0.41817406710E+03  0.26300615824E+03 0.  0.
         25    1    4    4    0    0  0.62271133771E+02  0.24410280733E+02 -0.13641909661E+03  0.19680252521E+03  0.12509000000E+03 0.  0.
         25    1    4    4    0    0  0.10667423959E+02 -0.26469593264E+02 -0.18039794389E+03  0.22137154189E+03  0.12509000000E+03 0.  0.
         25    1    3    3    0    0 -0.72938557730E+02  0.20593125312E+01 -0.18869378381E+02  0.14604052695E+03  0.12509000000E+03 0.  0.
<mgrwt>
<rscale>  2 0.45348951E+03</rscale>
<asrwt>0</asrwt>
<pdfrwt beam="1">  1       21 0.16803542E-01 0.45348951E+03</pdfrwt>
<pdfrwt beam="2">  1       21 0.66169192E-01 0.45348951E+03</pdfrwt>
<totfact> 0.61670304E+04</totfact>
</mgrwt>
</event>
<event>
 7    0  0.4685107E-002  0.4313069E+03  0.7546771E-02  0.1033448E+00
         21   -1    0    0  502  501  0.00000000000E+00  0.00000000000E+00  0.37394617430E+04  0.37394617430E+04  0.00000000000E+00 0.  1.
         21   -1    0    0  501  502 -0.00000000000E+00 -0.00000000000E+00 -0.12436657041E+02  0.12436657041E+02  0.00000000000E+00 0.  1.
      99926    2    1    2    0    0  0.00000000000E+00  0.00000000000E+00  0.37270250860E+04  0.37518984001E+04  0.43130686625E+03 0.  0.
      99925    2    3    3    0    0 -0.48128247085E+02  0.71272781502E+01  0.30495891626E+04  0.30612942698E+04  0.26298558858E+03 0.  0.
         25    1    4    4    0    0 -0.53848721507E+02  0.18339748912E+02  0.18637959243E+04  0.18688549400E+04  0.12509000000E+03 0.  0.
         25    1    3    3    0    0  0.48128247085E+02 -0.71272781502E+01  0.67743592343E+03  0.69060413025E+03  0.12509000000E+03 0.  0.
         25    1    4    4    0    0  0.57204744222E+01 -0.11212470762E+02  0.11857932382E+04  0.11924393298E+04  0.12509000000E+03 0.  0.
<mgrwt>
<rscale>  2 0.43130687E+03</rscale>
<asrwt>0</asrwt>
<pdfrwt beam="1">  1       21 0.54992006E+00 0.43130687E+03</pdfrwt>
<pdfrwt beam="2">  1       21 0.18289228E-02 0.43130687E+03</pdfrwt>
<totfact> 0.92979583E+02</totfact>
</mgrwt>
</event>
<event>
 7    0  0.4685107E-002  0.4527985E+03  0.7546771E-02  0.1026891E+00
         21   -1    0    0  502  501  0.00000000000E+00  0.00000000000E+00  0.10174791775E+04  0.10174791775E+04  0.00000000000E+00 0. -1.
         21   -1    0    0  501  502 -0.00000000000E+00 -0.00000000000E+00 -0.50376091271E+02  0.50376091271E+02  0.00000000000E+00 0. -1.
      99926    2    1    2    0    0 -0.35527136788E-14 -0.14210854715E-13  0.96710308626E+03  0.10678552688E+04  0.45279851552E+03 0.  0.
      99925    2    3    3    0    0  0.31710477792E+02 -0.10105412520E+03  0.68769296168E+03  0.74391852121E+03  0.26320270901E+03 0.  0.
         25    1    4    4    0    0 -0.20288370003E+02 -0.42181006046E+02  0.27817655704E+03  0.30857828863E+03  0.12509000000E+03 0.  0.
         25    1    4    4    0    0  0.51998847794E+02 -0.58873119159E+02  0.40951640464E+03  0.43534023258E+03  0.12509000000E+03 0.  0.
         25    1    3    3    0    0 -0.31710477792E+02  0.10105412520E+03  0.27941012458E+03  0.32393674759E+03  0.12509000000E+03 0.  0.
<mgrwt>
<rscale>  2 0.45279852E+03</rscale>
<asrwt>0</asrwt>
<pdfrwt beam="1">  1       21 0.14962928E+00 0.45279852E+03</pdfrwt>
<pdfrwt beam="2">  1       21 0.74082494E-02 0.45279852E+03</pdfrwt>
<totfact> 0.37265083E+04</totfact>
</mgrwt>
</event>
<event>
 7    0  0.4685107E-002  0.4227683E+03  0.7546771E-02  0.1036169E+00
         21   -1    0    0  502  501  0.00000000000E+00  0.00000000000E+00  0.77905912749E+03  0.77905912749E+03  0.00000000000E+00 0.  1.
         21   -1    0    0  501  502 -0.00000000000E+00 -0.00000000000E+00 -0.57355423662E+02  0.57355423662E+02  0.00000000000E+00 0.  1.
      99926    2    1    2    0    0  0.00000000000E+00  0.00000000000E+00  0.72170370382E+03  0.83641455115E+03  0.42276833521E+03 0.  0.
      99925    2    3    3    0    0 -0.80091275331E+01  0.62405861250E+02  0.37412981382E+03  0.46169631733E+03  0.26311923952E+03 0.  0.
         25    1    3    3    0    0  0.80091275331E+01 -0.62405861250E+02  0.34757389001E+03  0.37471823382E+03  0.12509000000E+03 0.  0.
         25    1    4    4    0    0  0.26314292217E+02  0.57554113552E+01  0.19785641206E+03  0.23562732148E+03  0.12509000000E+03 0.  0.
         25    1    4    4    0    0 -0.34323419750E+02  0.56650449895E+02  0.17627340176E+03  0.22606899585E+03  0.12509000000E+03 0.  0.
<mgrwt>
<rscale>  2 0.42276834E+03</rscale>
<asrwt>0</asrwt>
<pdfrwt beam="1">  1       21 0.11456751E+00 0.42276834E+03</pdfrwt>
<pdfrwt beam="2">  1       21 0.84346216E-02 0.42276834E+03</pdfrwt>
<totfact> 0.59797590E+04</totfact>
</mgrwt>
</event>
<event>
 7    0  0.4685107E-002  0.4569529E+03  0.7546771E-02  0.1025669E+00
         21   -1    0    0  502  501  0.00000000000E+00  0.00000000000E+00  0.33486073085E+03  0.33486073085E+03  0.00000000000E+00 0.  1.
         21   -1    0    0  501  502 -0.00000000000E+00 -0.00000000000E+00 -0.15589012598E+03  0.15589012598E+03  0.00000000000E+00 0.  1.
      99926    2    1    2    0    0  0.00000000000E+00  0.00000000000E+00  0.17897060487E+03  0.49075085683E+03  0.45695287073E+03 0.  0.
      99925    2    3    3    0    0 -0.48090848789E+02 -0.36350289251E+02  0.21758672039E+03  0.34662318515E+03  0.26300109948E+03 0.  0.
         25    1    4    4    0    0 -0.13221896524E+02 -0.44220766823E+01  0.15299479327E+03  0.19811433108E+03  0.12509000000E+03 0.  0.
         25    1    4    4    0    0 -0.34868952265E+02 -0.31928212568E+02  0.64591927115E+02  0.14850885407E+03  0.12509000000E+03 0.  0.
         25    1    3    3    0    0  0.48090848789E+02  0.36350289251E+02 -0.38616115517E+02  0.14412767168E+03  0.12509000000E+03 0.  0.
<mgrwt>
<rscale>  2 0.45695287E+03</rscale>
<asrwt>0</asrwt>
<pdfrwt beam="1">  1       21 0.49244225E-01 0.45695287E+03</pdfrwt>
<pdfrwt beam="2">  1       21 0.22925019E-01 0.45695287E+03</pdfrwt>
<totfact> 0.64913236E+04</totfact>
</mgrwt>
</event>
<event>
 7    0  0.4685107E-002  0.4672131E+03  0.7546771E-02  0.1022710E+00
         21   -1    0    0  502  501  0.00000000000E+00  0.00000000000E+00  0.10597524715E+03  0.10597524715E+03  0.00000000000E+00 0. -1.
         21   -1    0    0  501  502 -0.00000000000E+00 -0.00000000000E+00 -0.51495066283E+03  0.51495066283E+03  0.00000000000E+00 0. -1.
      99926    2    1    2    0    0  0.88817841970E-15  0.00000000000E+00 -0.40897541568E+03  0.62092590998E+03  0.46721311524E+03 0.  0.
      99925    2    3    3    0    0 -0.79788720255E+01  0.68800359521E+02 -0.39177155395E+03  0.47690982467E+03  0.26298455946E+03 0.  0.
         25    1    4    4    0    0 -0.11612325665E+02  0.83314929245E+01 -0.24063372101E+03  0.27158121376E+03  0.12509000000E+03 0.  0.
         25    1    4    4    0    0  0.36334536396E+01  0.60468866597E+02 -0.15113783294E+03  0.20532861091E+03  0.12509000000E+03 0.  0.
         25    1    3    3    0    0  0.79788720255E+01 -0.68800359521E+02 -0.17203861735E+02  0.14401608531E+03  0.12509000000E+03 0.  0.
<mgrwt>
<rscale>  2 0.46721312E+03</rscale>
<asrwt>0</asrwt>
<pdfrwt beam="1">  1       21 0.15584595E-01 0.46721312E+03</pdfrwt>
<pdfrwt beam="2">  1       21 0.75728039E-01 0.46721312E+03</pdfrwt>
<totfact> 0.52189767E+04</totfact>
</mgrwt>
</event>
<event>
 7    0  0.4685107E-002  0.4559128E+03  0.7546771E-02  0.1025973E+00
         21   -1    0    0  502  501  0.00000000000E+00  0.00000000000E+00  0.18784563729E+03  0.18784563729E+03  0.00000000000E+00 0. -1.
         21   -1    0    0  501  502 -0.00000000000E+00 -0.00000000000E+00 -0.27663200328E+03  0.27663200328E+03  0.00000000000E+00 0. -1.
      99926    2    1    2    0    0  0.00000000000E+00  0.14210854715E-13 -0.88786365985E+02  0.46447764057E+03  0.45591277653E+03 0.  0.
      99925    2    3    3    0    0  0.32302367998E+02  0.10929494948E+03 -0.40813141772E+02  0.28858628973E+03  0.26196851933E+03 0.  0.
         25    1    3    3    0    0 -0.32302367998E+02 -0.10929494948E+03 -0.47973224214E+02  0.17589135084E+03  0.12509000000E+03 0.  0.
         25    1    4    4    0    0  0.12763216376E+02  0.41881152808E+02  0.17634808895E+02  0.13369900986E+03  0.12509000000E+03 0.  0.
         25    1    4    4    0    0  0.19539151621E+02  0.67413796667E+02 -0.58447950666E+02  0.15488727987E+03  0.12509000000E+03 0.  0.
<mgrwt>
<rscale>  2 0.45591278E+03</rscale>
<asrwt>0</asrwt>
<pdfrwt beam="1">  1       21 0.27624359E-01 0.45591278E+03</pdfrwt>
<pdfrwt beam="2">  1       21 0.40681177E-01 0.45591278E+03</pdfrwt>
<totfact> 0.67358918E+04</totfact>
</mgrwt>
</event>
<event>
 7    0  0.4685107E-002  0.4544011E+03  0.7546771E-02  0.1026418E+00
         21   -1    0    0  502  501  0.00000000000E+00  0.00000000000E+00  0.27479197659E+03  0.27479197659E+03  0.00000000000E+00 0. -1.
         21   -1    0    0  501  502 -0.00000000000E+00 -0.00000000000E+00 -0.18785149131E+03  0.18785149131E+03  0.00000000000E+00 0. -1.
      99926    2    1    2    0    0  0.00000000000E+00  0.00000000000E+00  0.86940485283E+02  0.46264346789E+03  0.45440106778E+03 0.  0.
      99925    2    3    3    0    0 -0.76506441070E+02 -0.70321075456E+02  0.98919150734E+02  0.29958125368E+03  0.26299361208E+03 0.  0.
         25    1    4    4    0    0 -0.65664349336E+02 -0.11294047950E+02  0.30875313398E+02  0.14505225048E+03  0.12509000000E+03 0.  0.
         25    1    3    3    0    0  0.76506441070E+02  0.70321075456E+02 -0.11978665451E+02  0.16306221421E+03  0.12509000000E+03 0.  0.
         25    1    4    4    0    0 -0.10842091734E+02 -0.59027027506E+02  0.68043837336E+02  0.15452900320E+03  0.12509000000E+03 0.  0.
<mgrwt>
<rscale>  2 0.45440107E+03</rscale>
<asrwt>0</asrwt>
<pdfrwt beam="1">  1       21 0.40410585E-01 0.45440107E+03</pdfrwt>
<pdfrwt beam="2">  1       21 0.27625219E-01 0.45440107E+03</pdfrwt>
<totfact> 0.68310118E+04</totfact>
</mgrwt>
</event>
<event>
 7    0  0.4685107E-002  0.4558271E+03  0.7546771E-02  0.1025998E+00
         21   -1    0    0  502  501  0.00000000000E+00  0.00000000000E+00  0.89385849917E+02  0.89385849917E+02  0.00000000000E+00 0. -1.
         21   -1    0    0  501  502 -0.00000000000E+00 -0.00000000000E+00 -0.58112766248E+03  0.58112766248E+03  0.00000000000E+00 0. -1.
      99926    2    1    2    0    0  0.00000000000E+00 -0.14210854715E-13 -0.49174181256E+03  0.67051351240E+03  0.45582711644E+03 0.  0.
      99925    2    3    3    0    0  0.33093773695E+02 -0.96424958574E+02 -0.38404887616E+03  0.47650772088E+03  0.26300779129E+03 0.  0.
         25    1    4    4    0    0  0.28251789026E+02 -0.10014850528E+02 -0.15306315443E+03  0.19993573507E+03  0.12509000000E+03 0.  0.
         25    1    4    4    0    0  0.48419846693E+01 -0.86410108047E+02 -0.23098572173E+03  0.27657198580E+03  0.12509000000E+03 0.  0.
         25    1    3    3    0    0 -0.33093773695E+02  0.96424958574E+02 -0.10769293640E+03  0.19400579152E+03  0.12509000000E+03 0.  0.
<mgrwt>
<rscale>  2 0.45582712E+03</rscale>
<asrwt>0</asrwt>
<pdfrwt beam="1">  1       21 0.13144978E-01 0.45582712E+03</pdfrwt>
<pdfrwt beam="2">  1       21 0.85459952E-01 0.45582712E+03</pdfrwt>
<totfact> 0.54179291E+04</totfact>
</mgrwt>
</event>
<event>
 7    0  0.4685107E-002  0.4555443E+03  0.7546771E-02  0.1026081E+00
         21   -1    0    0  502  501  0.00000000000E+00  0.00000000000E+00  0.34029980335E+02  0.34029980335E+02  0.00000000000E+00 0. -1.
         21   -1    0    0  501  502 -0.00000000000E+00 -0.00000000000E+00 -0.15245424894E+04  0.15245424894E+04  0.00000000000E+00 0. -1.
      99926    2    1    2    0    0  0.00000000000E+00  0.00000000000E+00 -0.14905125091E+04  0.15585724698E+04  0.45554429394E+03 0.  0.
      99925    2    3    3    0    0 -0.67137367158E+02 -0.40209139312E+01 -0.63035151941E+03  0.68676513434E+03  0.26415850906E+03 0.  0.
         25    1    4    4    0    0  0.27078369986E+01  0.19183208876E+02 -0.26644866403E+03  0.29498767185E+03  0.12509000000E+03 0.  0.
         25    1    4    4    0    0 -0.69845204157E+02 -0.23204122807E+02 -0.36390285538E+03  0.39177746249E+03  0.12509000000E+03 0.  0.
         25    1    3    3    0    0  0.67137367158E+02  0.40209139312E+01 -0.86016098970E+03  0.87180733544E+03  0.12509000000E+03 0.  0.
<mgrwt>
<rscale>  2 0.45554429E+03</rscale>
<asrwt>0</asrwt>
<pdfrwt beam="1">  1       21 0.50044098E-02 0.45554429E+03</pdfrwt>
<pdfrwt beam="2">  1       21 0.22419738E+00 0.45554429E+03</pdfrwt>
<totfact> 0.22285108E+04</totfact>
</mgrwt>
</event>
<event>
 7    0  0.4685107E-002  0.4508604E+03  0.7546771E-02  0.1027466E+00
         21   -1    0    0  502  501  0.00000000000E+00  0.00000000000E+00  0.78346190469E+03  0.78346190469E+03  0.00000000000E+00 0.  1.
         21   -1    0    0  501  502 -0.00000000000E+00 -0.00000000000E+00 -0.64864372777E+02  0.64864372777E+02  0.00000000000E+00 0.  1.
      99926    2    1    2    0    0 -0.14210854715E-13  0.00000000000E+00  0.71859753191E+03  0.84832627746E+03  0.45086035551E+03 0.  0.
      99925    2    3    3    0    0 -0.72252182487E+02  0.17415098883E+02  0.60447855230E+03  0.66340923349E+03  0.26304719606E+03 0.  0.
         25    1    4    4    0    0 -0.29404891689E+01 -0.93038497241E+01  0.32396580200E+03  0.34741410026E+03  0.12509000000E+03 0.  0.
         25    1    3    3    0    0  0.72252182487E+02 -0.17415098883E+02  0.11411897961E+03  0.18491704397E+03  0.12509000000E+03 0.  0.
         25    1    4    4    0    0 -0.69311693318E+02  0.26718948607E+02  0.28051275030E+03  0.31599513323E+03  0.12509000000E+03 0.  0.
<mgrwt>
<rscale>  2 0.45086036E+03</rscale>
<asrwt>0</asrwt>
<pdfrwt beam="1">  1       21 0.11521498E+00 0.45086036E+03</pdfrwt>
<pdfrwt beam="2">  1       21 0.95388788E-02 0.45086036E+03</pdfrwt>
<totfact> 0.47022862E+04</totfact>
</mgrwt>
</event>
<event>
 7    0  0.4685107E-002  0.4538944E+03  0.7546771E-02  0.1026567E+00
         21   -1    0    0  502  501  0.00000000000E+00  0.00000000000E+00  0.55538813914E+03  0.55538813914E+03  0.00000000000E+00 0. -1.
         21   -1    0    0  501  502 -0.00000000000E+00 -0.00000000000E+00 -0.92736983802E+02  0.92736983802E+02  0.00000000000E+00 0. -1.
      99926    2    1    2    0    0  0.00000000000E+00  0.00000000000E+00  0.46265115534E+03  0.64812512294E+03  0.45389435274E+03 0.  0.
      99925    2    3    3    0    0  0.33711662028E+02  0.89289371161E+02  0.20756601390E+03  0.34841692245E+03  0.26306203406E+03 0.  0.
         25    1    4    4    0    0  0.34067396552E+02  0.18355663463E+02  0.66030766763E+02  0.14664613240E+03  0.12509000000E+03 0.  0.
         25    1    3    3    0    0 -0.33711662028E+02 -0.89289371161E+02  0.25508514144E+03  0.29970820049E+03  0.12509000000E+03 0.  0.
         25    1    4    4    0    0 -0.35573452399E+00  0.70933707699E+02  0.14153524714E+03  0.20177079005E+03  0.12509000000E+03 0.  0.
<mgrwt>
<rscale>  2 0.45389435E+03</rscale>
<asrwt>0</asrwt>
<pdfrwt beam="1">  1       21 0.81674724E-01 0.45389435E+03</pdfrwt>
<pdfrwt beam="2">  1       21 0.13637792E-01 0.45389435E+03</pdfrwt>
<totfact> 0.56299115E+04</totfact>
</mgrwt>
</event>
<event>
 7    0  0.4685107E-002  0.4333055E+03  0.7546771E-02  0.1032821E+00
         21   -1    0    0  502  501  0.00000000000E+00  0.00000000000E+00  0.48733444986E+03  0.48733444986E+03  0.00000000000E+00 0.  1.
         21   -1    0    0  501  502 -0.00000000000E+00 -0.00000000000E+00 -0.96316622492E+02  0.96316622492E+02  0.00000000000E+00 0.  1.
      99926    2    1    2    0    0  0.00000000000E+00 -0.17763568394E-14  0.39101782737E+03  0.58365107235E+03  0.43330547301E+03 0.  0.
      99925    2    3    3    0    0  0.71561328997E+02  0.13860369327E+02  0.17858222193E+03  0.32657223580E+03  0.26352358824E+03 0.  0.
         25    1    4    4    0    0  0.72238529989E+02 -0.31813545310E+01  0.72407968406E+02  0.16161357684E+03  0.12509000000E+03 0.  0.
         25    1    3    3    0    0 -0.71561328997E+02 -0.13860369327E+02  0.21243560543E+03  0.25707883655E+03  0.12509000000E+03 0.  0.
         25    1    4    4    0    0 -0.67720099256E+00  0.17041723858E+02  0.10617425353E+03  0.16495865896E+03  0.12509000000E+03 0.  0.
<mgrwt>
<rscale>  2 0.43330547E+03</rscale>
<asrwt>0</asrwt>
<pdfrwt beam="1">  1       21 0.71666830E-01 0.43330547E+03</pdfrwt>
<pdfrwt beam="2">  1       21 0.14164209E-01 0.43330547E+03</pdfrwt>
<totfact> 0.71131232E+04</totfact>
</mgrwt>
</event>
<event>
 7    0  0.4685107E-002  0.4504057E+03  0.7546771E-02  0.1027601E+00
         21   -1    0    0  502  501  0.00000000000E+00  0.00000000000E+00  0.68674183234E+02  0.68674183234E+02  0.00000000000E+00 0. -1.
         21   -1    0    0  501  502 -0.00000000000E+00 -0.00000000000E+00 -0.73850644110E+03  0.73850644110E+03  0.00000000000E+00 0. -1.
      99926    2    1    2    0    0  0.17763568394E-14  0.35527136788E-14 -0.66983225786E+03  0.80718062433E+03  0.45040571335E+03 0.  0.
      99925    2    3    3    0    0 -0.14765847339E+02  0.87036840069E+01 -0.61582072031E+03  0.66985422974E+03  0.26301282321E+03 0.  0.
         25    1    4    4    0    0 -0.72945590001E+01  0.41747549167E+02 -0.35092738024E+03  0.37495813467E+03  0.12509000000E+03 0.  0.
         25    1    3    3    0    0  0.14765847339E+02 -0.87036840069E+01 -0.54011537556E+02  0.13732639459E+03  0.12509000000E+03 0.  0.
         25    1    4    4    0    0 -0.74712883392E+01 -0.33043865160E+02 -0.26489334007E+03  0.29489609507E+03  0.12509000000E+03 0.  0.
<mgrwt>
<rscale>  2 0.45040571E+03</rscale>
<asrwt>0</asrwt>
<pdfrwt beam="1">  1       21 0.10099144E-01 0.45040571E+03</pdfrwt>
<pdfrwt beam="2">  1       21 0.10860389E+00 0.45040571E+03</pdfrwt>
<totfact> 0.49168303E+04</totfact>
</mgrwt>
</event>
<event>
 7    0  0.4685107E-002  0.4565065E+03  0.7546771E-02  0.1025799E+00
         21   -1    0    0  502  501  0.00000000000E+00  0.00000000000E+00  0.50983665805E+03  0.50983665805E+03  0.00000000000E+00 0.  1.
         21   -1    0    0  501  502 -0.00000000000E+00 -0.00000000000E+00 -0.10218869832E+03  0.10218869832E+03  0.00000000000E+00 0.  1.
      99926    2    1    2    0    0  0.14210854715E-13  0.00000000000E+00  0.40764795972E+03  0.61202535637E+03  0.45650649259E+03 0.  0.
      99925    2    3    3    0    0  0.10279688465E+03  0.22102922586E+02  0.31765715983E+03  0.42547351145E+03  0.26280391753E+03 0.  0.
         25    1    3    3    0    0 -0.10279688465E+03 -0.22102922586E+02  0.89990799890E+02  0.18655184492E+03  0.12509000000E+03 0.  0.
         25    1    4    4    0    0  0.81765896241E+02 -0.89918735584E+01  0.19892705990E+03  0.24896987536E+03  0.12509000000E+03 0.  0.
         25    1    4    4    0    0  0.21030988405E+02  0.31094796144E+02  0.11873009993E+03  0.17650363608E+03  0.12509000000E+03 0.  0.
<mgrwt>
<rscale>  2 0.45650649E+03</rscale>
<asrwt>0</asrwt>
<pdfrwt beam="1">  1       21 0.74975978E-01 0.45650649E+03</pdfrwt>
<pdfrwt beam="2">  1       21 0.15027750E-01 0.45650649E+03</pdfrwt>
<totfact> 0.57259733E+04</totfact>
</mgrwt>
</event>
<event>
 7    0  0.4685107E-002  0.4537273E+03  0.7546771E-02  0.1026616E+00
         21   -1    0    0  502  501  0.00000000000E+00  0.00000000000E+00  0.10119308140E+03  0.10119308140E+03  0.00000000000E+00 0. -1.
         21   -1    0    0  501  502 -0.00000000000E+00 -0.00000000000E+00 -0.50860301181E+03  0.50860301181E+03  0.00000000000E+00 0. -1.
      99926    2    1    2    0    0 -0.14210854715E-13  0.00000000000E+00 -0.40740993041E+03  0.60979609321E+03  0.45372725717E+03 0.  0.
      99925    2    3    3    0    0  0.76262736087E+02  0.76287642417E+02 -0.21835978746E+03  0.35875172671E+03  0.26341221562E+03 0.  0.
         25    1    4    4    0    0  0.76002450576E+02  0.31067337532E+02 -0.13670212396E+03  0.20267345843E+03  0.12509000000E+03 0.  0.
         25    1    3    3    0    0 -0.76262736087E+02 -0.76287642417E+02 -0.18905014295E+03  0.25104436650E+03  0.12509000000E+03 0.  0.
         25    1    4    4    0    0  0.26028551176E+00  0.45220304885E+02 -0.81657663493E+02  0.15607826828E+03  0.12509000000E+03 0.  0.
<mgrwt>
<rscale>  2 0.45372726E+03</rscale>
<asrwt>0</asrwt>
<pdfrwt beam="1">  1       21 0.14881336E-01 0.45372726E+03</pdfrwt>
<pdfrwt beam="2">  1       21 0.74794560E-01 0.45372726E+03</pdfrwt>
<totfact> 0.58666885E+04</totfact>
</mgrwt>
</event>
<event>
 7    0  0.4685107E-002  0.4607483E+03  0.7546771E-02  0.1024564E+00
         21   -1    0    0  502  501  0.00000000000E+00  0.00000000000E+00  0.54249848505E+03  0.54249848505E+03  0.00000000000E+00 0.  1.
         21   -1    0    0  501  502 -0.00000000000E+00 -0.00000000000E+00 -0.97829292338E+02  0.97829292338E+02  0.00000000000E+00 0.  1.
      99926    2    1    2    0    0  0.71054273576E-14 -0.14210854715E-13  0.44466919271E+03  0.64032777739E+03  0.46074827352E+03 0.  0.
      99925    2    3    3    0    0 -0.36232481205E+02  0.10245606333E+03  0.21296166550E+03  0.35546654121E+03  0.26304705538E+03 0.  0.
         25    1    4    4    0    0 -0.32390456839E+02  0.90206460863E+02  0.13505174051E+03  0.20753994312E+03  0.12509000000E+03 0.  0.
         25    1    4    4    0    0 -0.38420243660E+01  0.12249602464E+02  0.77909924984E+02  0.14792659809E+03  0.12509000000E+03 0.  0.
         25    1    3    3    0    0  0.36232481205E+02 -0.10245606333E+03  0.23170752722E+03  0.28486123618E+03  0.12509000000E+03 0.  0.
<mgrwt>
<rscale>  2 0.46074827E+03</rscale>
<asrwt>0</asrwt>
<pdfrwt beam="1">  1       21 0.79779187E-01 0.46074827E+03</pdfrwt>
<pdfrwt beam="2">  1       21 0.14386661E-01 0.46074827E+03</pdfrwt>
<totfact> 0.53780612E+04</totfact>
</mgrwt>
</event>
<event>
 7    0  0.4685107E-002  0.4488442E+03  0.7546771E-02  0.1028067E+00
         21   -1    0    0  502  501  0.00000000000E+00  0.00000000000E+00  0.13141572000E+04  0.13141572000E+04  0.00000000000E+00 0.  1.
         21   -1    0    0  501  502 -0.00000000000E+00 -0.00000000000E+00 -0.38325152012E+02  0.38325152012E+02  0.00000000000E+00 0.  1.
      99926    2    1    2    0    0  0.13322676296E-14  0.00000000000E+00  0.12758320480E+04  0.13524823520E+04  0.44884417991E+03 0.  0.
      99925    2    3    3    0    0 -0.32990449587E+01  0.10412394114E+03  0.88391170089E+03  0.92809839216E+03  0.26308563574E+03 0.  0.
         25    1    3    3    0    0  0.32990449587E+01 -0.10412394114E+03  0.39192034713E+03  0.42438395989E+03  0.12509000000E+03 0.  0.
         25    1    4    4    0    0  0.29403724388E+02  0.58715822338E+02  0.53221067328E+03  0.55064311097E+03  0.12509000000E+03 0.  0.
         25    1    4    4    0    0 -0.32702769347E+02  0.45408118805E+02  0.35170102761E+03  0.37745528119E+03  0.12509000000E+03 0.  0.
<mgrwt>
<rscale>  2 0.44884418E+03</rscale>
<asrwt>0</asrwt>
<pdfrwt beam="1">  1       21 0.19325838E+00 0.44884418E+03</pdfrwt>
<pdfrwt beam="2">  1       21 0.56360526E-02 0.44884418E+03</pdfrwt>
<totfact> 0.28988745E+04</totfact>
</mgrwt>
</event>
<event>
 7    0  0.4685107E-002  0.4515525E+03  0.7546771E-02  0.1027260E+00
         21   -1    0    0  502  501  0.00000000000E+00  0.00000000000E+00  0.28854743401E+03  0.28854743401E+03  0.00000000000E+00 0.  1.
         21   -1    0    0  501  502 -0.00000000000E+00 -0.00000000000E+00 -0.17666043533E+03  0.17666043533E+03  0.00000000000E+00 0.  1.
      99926    2    1    2    0    0  0.00000000000E+00  0.71054273576E-14  0.11188699868E+03  0.46520786935E+03  0.45155250108E+03 0.  0.
      99925    2    3    3    0    0 -0.95378093885E+02 -0.47790441421E+02  0.97903817829E+02  0.30021106777E+03  0.26298406906E+03 0.  0.
         25    1    4    4    0    0 -0.33430221778E+02 -0.31346198314E+02  0.87260130515E+02  0.15925452067E+03  0.12509000000E+03 0.  0.
         25    1    3    3    0    0  0.95378093885E+02  0.47790441421E+02  0.13983180850E+02  0.16499680158E+03  0.12509000000E+03 0.  0.
         25    1    4    4    0    0 -0.61947872107E+02 -0.16444243107E+02  0.10643687314E+02  0.14095654710E+03  0.12509000000E+03 0.  0.
<mgrwt>
<rscale>  2 0.45155250E+03</rscale>
<asrwt>0</asrwt>
<pdfrwt beam="1">  1       21 0.42433446E-01 0.45155250E+03</pdfrwt>
<pdfrwt beam="2">  1       21 0.25979476E-01 0.45155250E+03</pdfrwt>
<totfact> 0.69680025E+04</totfact>
</mgrwt>
</event>
<event>
 7    0  0.4685107E-002  0.4552394E+03  0.7546771E-02  0.1026171E+00
         21   -1    0    0  502  501  0.00000000000E+00  0.00000000000E+00  0.59314646355E+03  0.59314646355E+03  0.00000000000E+00 0. -1.
         21   -1    0    0  501  502 -0.00000000000E+00 -0.00000000000E+00 -0.87348943623E+02  0.87348943623E+02  0.00000000000E+00 0. -1.
      99926    2    1    2    0    0 -0.71054273576E-14  0.14210854715E-13  0.50579751993E+03  0.68049540717E+03  0.45523935245E+03 0.  0.
      99925    2    3    3    0    0  0.38726577957E+02 -0.77188469219E+02  0.20859691802E+03  0.34667882057E+03  0.26308881162E+03 0.  0.
         25    1    3    3    0    0 -0.38726577957E+02  0.77188469219E+02  0.29720060191E+03  0.33381658661E+03  0.12509000000E+03 0.  0.
         25    1    4    4    0    0  0.16852767744E+02 -0.53913464989E+02  0.15460906230E+03  0.20674174163E+03  0.12509000000E+03 0.  0.
         25    1    4    4    0    0  0.21873810213E+02 -0.23275004230E+02  0.53987855721E+02  0.13993707893E+03  0.12509000000E+03 0.  0.
<mgrwt>
<rscale>  2 0.45523935E+03</rscale>
<asrwt>0</asrwt>
<pdfrwt beam="1">  1       21 0.87227419E-01 0.45523935E+03</pdfrwt>
<pdfrwt beam="2">  1       21 0.12845433E-01 0.45523935E+03</pdfrwt>
<totfact> 0.53873573E+04</totfact>
</mgrwt>
</event>
<event>
 7    0  0.4685107E-002  0.4538794E+03  0.7546771E-02  0.1026571E+00
         21   -1    0    0  502  501  0.00000000000E+00  0.00000000000E+00  0.48613812801E+03  0.48613812801E+03  0.00000000000E+00 0.  1.
         21   -1    0    0  501  502 -0.00000000000E+00 -0.00000000000E+00 -0.10594032134E+03  0.10594032134E+03  0.00000000000E+00 0.  1.
      99926    2    1    2    0    0  0.00000000000E+00  0.17763568394E-14  0.38019780667E+03  0.59207844935E+03  0.45387940909E+03 0.  0.
      99925    2    3    3    0    0 -0.92269980537E+02 -0.85391612730E+01  0.15719073488E+03  0.32011093520E+03  0.26301219957E+03 0.  0.
         25    1    4    4    0    0 -0.42695114287E+02  0.23582370425E+02  0.11119072938E+03  0.17432695540E+03  0.12509000000E+03 0.  0.
         25    1    3    3    0    0  0.92269980537E+02  0.85391612730E+01  0.22300707179E+03  0.27196751415E+03  0.12509000000E+03 0.  0.
         25    1    4    4    0    0 -0.49574866249E+02 -0.32121531698E+02  0.46000005502E+02  0.14578397981E+03  0.12509000000E+03 0.  0.
<mgrwt>
<rscale>  2 0.45387941E+03</rscale>
<asrwt>0</asrwt>
<pdfrwt beam="1">  1       21 0.71490900E-01 0.45387941E+03</pdfrwt>
<pdfrwt beam="2">  1       21 0.15579459E-01 0.45387941E+03</pdfrwt>
<totfact> 0.59695438E+04</totfact>
</mgrwt>
</event>
<event>
 7    0  0.4685107E-002  0.4428533E+03  0.7546771E-02  0.1029875E+00
         21   -1    0    0  502  501  0.00000000000E+00  0.00000000000E+00  0.36437738490E+02  0.36437738490E+02  0.00000000000E+00 0. -1.
         21   -1    0    0  501  502 -0.00000000000E+00 -0.00000000000E+00 -0.13455763759E+04  0.13455763759E+04  0.00000000000E+00 0. -1.
      99926    2    1    2    0    0 -0.71054273576E-14  0.88817841970E-15 -0.13091386374E+04  0.13820141144E+04  0.44285329446E+03 0.  0.
      99925    2    3    3    0    0 -0.55553707651E+02  0.70262960138E+01 -0.56934293633E+03  0.62963072096E+03  0.26295984933E+03 0.  0.
         25    1    3    3    0    0  0.55553707651E+02 -0.70262960138E+01 -0.73979570106E+03  0.75238339341E+03  0.12509000000E+03 0.  0.
         25    1    4    4    0    0  0.79569569413E+01 -0.83655680615E+01 -0.22914503891E+03  0.26132021133E+03  0.12509000000E+03 0.  0.
         25    1    4    4    0    0 -0.63510664592E+02  0.15391864075E+02 -0.34019789742E+03  0.36831050964E+03  0.12509000000E+03 0.  0.
<mgrwt>
<rscale>  2 0.44285329E+03</rscale>
<asrwt>0</asrwt>
<pdfrwt beam="1">  1       21 0.53584901E-02 0.44285329E+03</pdfrwt>
<pdfrwt beam="2">  1       21 0.19787891E+00 0.44285329E+03</pdfrwt>
<totfact> 0.29503791E+04</totfact>
</mgrwt>
</event>
<event>
 7    0  0.4685107E-002  0.4498577E+03  0.7546771E-02  0.1027764E+00
         21   -1    0    0  502  501  0.00000000000E+00  0.00000000000E+00  0.36352957852E+02  0.36352957852E+02  0.00000000000E+00 0.  1.
         21   -1    0    0  501  502 -0.00000000000E+00 -0.00000000000E+00 -0.13917159210E+04  0.13917159210E+04  0.00000000000E+00 0.  1.
      99926    2    1    2    0    0 -0.14210854715E-13  0.71054273576E-14 -0.13553629631E+04  0.14280688788E+04  0.44985771181E+03 0.  0.
      99925    2    3    3    0    0 -0.61755357796E+02  0.34201036466E+02 -0.11174518007E+04  0.11501612244E+04  0.26303779197E+03 0.  0.
         25    1    4    4    0    0 -0.70093807709E+02  0.31057442334E+02 -0.62566119416E+03  0.64263297814E+03  0.12509000000E+03 0.  0.
         25    1    4    4    0    0  0.83384499128E+01  0.31435941317E+01 -0.49179060655E+03  0.50752824623E+03  0.12509000000E+03 0.  0.
         25    1    3    3    0    0  0.61755357796E+02 -0.34201036466E+02 -0.23791116243E+03  0.27790765448E+03  0.12509000000E+03 0.  0.
<mgrwt>
<rscale>  2 0.44985771E+03</rscale>
<asrwt>0</asrwt>
<pdfrwt beam="1">  1       21 0.53460226E-02 0.44985771E+03</pdfrwt>
<pdfrwt beam="2">  1       21 0.20466413E+00 0.44985771E+03</pdfrwt>
<totfact> 0.26642295E+04</totfact>
</mgrwt>
</event>
<event>
 7    0  0.4685107E-002  0.4557334E+03  0.7546771E-02  0.1026026E+00
         21   -1    0    0  502  501  0.00000000000E+00  0.00000000000E+00  0.11230516667E+04  0.11230516667E+04  0.00000000000E+00 0.  1.
         21   -1    0    0  501  502 -0.00000000000E+00 -0.00000000000E+00 -0.46234045812E+02  0.46234045812E+02  0.00000000000E+00 0.  1.
      99926    2    1    2    0    0  0.00000000000E+00  0.00000000000E+00  0.10768176209E+04  0.11692857125E+04  0.45573335278E+03 0.  0.
      99925    2    3    3    0    0  0.27390898438E+02 -0.30280328774E+02  0.95001016809E+03  0.98654327680E+03  0.26283294676E+03 0.  0.
         25    1    4    4    0    0  0.44582248281E+02 -0.39279575243E+02  0.53701785468E+03  0.55458646417E+03  0.12509000000E+03 0.  0.
         25    1    4    4    0    0 -0.17191349844E+02  0.89992464694E+01  0.41299231341E+03  0.43195681264E+03  0.12509000000E+03 0.  0.
         25    1    3    3    0    0 -0.27390898438E+02  0.30280328774E+02  0.12680745283E+03  0.18274243575E+03  0.12509000000E+03 0.  0.
<mgrwt>
<rscale>  2 0.45573335E+03</rscale>
<asrwt>0</asrwt>
<pdfrwt beam="1">  1       21 0.16515464E+00 0.45573335E+03</pdfrwt>
<pdfrwt beam="2">  1       21 0.67991251E-02 0.45573335E+03</pdfrwt>
<totfact> 0.32956218E+04</totfact>
</mgrwt>
</event>
<event>
 7    0  0.4685107E-002  0.4411533E+03  0.7546771E-02  0.1030394E+00
         21   -1    0    0  502  501  0.00000000000E+00  0.00000000000E+00  0.30479075722E+02  0.30479075722E+02  0.00000000000E+00 0. -1.
         21   -1    0    0  501  502 -0.00000000000E+00 -0.00000000000E+00 -0.15963099943E+04  0.15963099943E+04  0.00000000000E+00 0. -1.
      99926    2    1    2    0    0  0.00000000000E+00  0.00000000000E+00 -0.15658309185E+04  0.16267890700E+04  0.44115327582E+03 0.  0.
      99925    2    3    3    0    0 -0.44052034929E+02  0.42178745542E+02 -0.70699996975E+03  0.75675588955E+03  0.26288950300E+03 0.  0.
         25    1    4    4    0    0 -0.37739034128E+02  0.44558828145E+02 -0.28705464026E+03  0.31852409400E+03  0.12509000000E+03 0.  0.
         25    1    3    3    0    0  0.44052034929E+02 -0.42178745542E+02 -0.85883094880E+03  0.87003318044E+03  0.12509000000E+03 0.  0.
         25    1    4    4    0    0 -0.63130008001E+01 -0.23800826023E+01 -0.41994532949E+03  0.43823179555E+03  0.12509000000E+03 0.  0.
<mgrwt>
<rscale>  2 0.44115328E+03</rscale>
<asrwt>0</asrwt>
<pdfrwt beam="1">  1       21 0.44822156E-02 0.44115328E+03</pdfrwt>
<pdfrwt beam="2">  1       21 0.23475154E+00 0.44115328E+03</pdfrwt>
<totfact> 0.23230180E+04</totfact>
</mgrwt>
</event>
<event>
 7    0  0.4685107E-002  0.4573079E+03  0.7546771E-02  0.1025565E+00
         21   -1    0    0  502  501  0.00000000000E+00  0.00000000000E+00  0.90087568201E+03  0.90087568201E+03  0.00000000000E+00 0.  1.
         21   -1    0    0  501  502 -0.00000000000E+00 -0.00000000000E+00 -0.58035342601E+02  0.58035342601E+02  0.00000000000E+00 0.  1.
      99926    2    1    2    0    0  0.00000000000E+00  0.00000000000E+00  0.84284033941E+03  0.95891102462E+03  0.45730789998E+03 0.  0.
      99925    2    3    3    0    0 -0.91724254427E+02  0.33999731089E+02  0.40088712179E+03  0.48929471822E+03  0.26292492521E+03 0.  0.
         25    1    3    3    0    0  0.91724254427E+02 -0.33999731089E+02  0.44195321762E+03  0.46961630639E+03  0.12509000000E+03 0.  0.
         25    1    4    4    0    0 -0.16854079943E+02 -0.68454787664E+01  0.14885269182E+03  0.19528326235E+03  0.12509000000E+03 0.  0.
         25    1    4    4    0    0 -0.74870174485E+02  0.40845209855E+02  0.25203442997E+03  0.29401145587E+03  0.12509000000E+03 0.  0.
<mgrwt>
<rscale>  2 0.45730790E+03</rscale>
<asrwt>0</asrwt>
<pdfrwt beam="1">  1       21 0.13248171E+00 0.45730790E+03</pdfrwt>
<pdfrwt beam="2">  1       21 0.85346098E-02 0.45730790E+03</pdfrwt>
<totfact> 0.40054388E+04</totfact>
</mgrwt>
</event>
<event>
 7    0  0.4685107E-002  0.4584387E+03  0.7546771E-02  0.1025235E+00
         21   -1    0    0  502  501  0.00000000000E+00  0.00000000000E+00  0.50434765931E+02  0.50434765931E+02  0.00000000000E+00 0.  1.
         21   -1    0    0  501  502 -0.00000000000E+00 -0.00000000000E+00 -0.10417717163E+04  0.10417717163E+04  0.00000000000E+00 0.  1.
      99926    2    1    2    0    0 -0.71054273576E-14 -0.17763568394E-14 -0.99133695033E+03  0.10922064822E+04  0.45843870981E+03 0.  0.
      99925    2    3    3    0    0  0.37999193884E+02  0.10127991760E+02 -0.36115146514E+03  0.44852350992E+03  0.26305216825E+03 0.  0.
         25    1    3    3    0    0 -0.37999193884E+02 -0.10127991760E+02 -0.63018548519E+03  0.64368297227E+03  0.12509000000E+03 0.  0.
         25    1    4    4    0    0  0.51032507905E+02  0.30207056118E+02 -0.17983788808E+03  0.22694923924E+03  0.12509000000E+03 0.  0.
         25    1    4    4    0    0 -0.13033314021E+02 -0.20079064357E+02 -0.18131357706E+03  0.22157427068E+03  0.12509000000E+03 0.  0.
<mgrwt>
<rscale>  2 0.45843871E+03</rscale>
<asrwt>0</asrwt>
<pdfrwt beam="1">  1       21 0.74168782E-02 0.45843871E+03</pdfrwt>
<pdfrwt beam="2">  1       21 0.15320171E+00 0.45843871E+03</pdfrwt>
<totfact> 0.34822058E+04</totfact>
</mgrwt>
</event>
<event>
 7    0  0.4685107E-002  0.4432420E+03  0.7546771E-02  0.1029757E+00
         21   -1    0    0  502  501  0.00000000000E+00  0.00000000000E+00  0.62656222502E+03  0.62656222502E+03  0.00000000000E+00 0. -1.
         21   -1    0    0  501  502 -0.00000000000E+00 -0.00000000000E+00 -0.78389454720E+02  0.78389454720E+02  0.00000000000E+00 0. -1.
      99926    2    1    2    0    0 -0.28421709430E-13  0.00000000000E+00  0.54817277030E+03  0.70495167974E+03  0.44324201591E+03 0.  0.
      99925    2    3    3    0    0 -0.78978066262E+02 -0.64050091025E+02  0.35022112784E+03  0.44966300008E+03  0.26306277985E+03 0.  0.
         25    1    4    4    0    0 -0.19592569822E+01 -0.10330156254E+02  0.15038846480E+03  0.19589474026E+03  0.12509000000E+03 0.  0.
         25    1    3    3    0    0  0.78978066262E+02  0.64050091025E+02  0.19795164247E+03  0.25528867967E+03  0.12509000000E+03 0.  0.
         25    1    4    4    0    0 -0.77018809280E+02 -0.53719934771E+02  0.19983266304E+03  0.25376825982E+03  0.12509000000E+03 0.  0.
<mgrwt>
<rscale>  2 0.44324202E+03</rscale>
<asrwt>0</asrwt>
<pdfrwt beam="1">  1       21 0.92141501E-01 0.44324202E+03</pdfrwt>
<pdfrwt beam="2">  1       21 0.11527861E-01 0.44324202E+03</pdfrwt>
<totfact> 0.57799726E+04</totfact>
</mgrwt>
</event>
<event>
 7    0  0.4685107E-002  0.4510397E+03  0.7546771E-02  0.1027412E+00
         21   -1    0    0  502  501  0.00000000000E+00  0.00000000000E+00  0.13914697715E+03  0.13914697715E+03  0.00000000000E+00 0.  1.
         21   -1    0    0  501  502 -0.00000000000E+00 -0.00000000000E+00 -0.36550701297E+03  0.36550701297E+03  0.00000000000E+00 0.  1.
      99926    2    1    2    0    0  0.00000000000E+00  0.00000000000E+00 -0.22636003582E+03  0.50465399012E+03  0.45103967002E+03 0.  0.
      99925    2    3    3    0    0  0.34758534200E+02 -0.95376351232E+02 -0.97101090076E+02  0.29811056314E+03  0.26293817161E+03 0.  0.
         25    1    3    3    0    0 -0.34758534200E+02  0.95376351232E+02 -0.12925894574E+03  0.20654342698E+03  0.12509000000E+03 0.  0.
         25    1    4    4    0    0 -0.56819640878E+01 -0.26483819534E+02 -0.74171604749E+02  0.14792772716E+03  0.12509000000E+03 0.  0.
         25    1    4    4    0    0  0.40440498287E+02 -0.68892531698E+02 -0.22929485327E+02  0.15018283598E+03  0.12509000000E+03 0.  0.
<mgrwt>
<rscale>  2 0.45103967E+03</rscale>
<asrwt>0</asrwt>
<pdfrwt beam="1">  1       21 0.20462791E-01 0.45103967E+03</pdfrwt>
<pdfrwt beam="2">  1       21 0.53751031E-01 0.45103967E+03</pdfrwt>
<totfact> 0.67027131E+04</totfact>
</mgrwt>
</event>
<event>
 7    0  0.4685107E-002  0.4542791E+03  0.7546771E-02  0.1026454E+00
         21   -1    0    0  502  501  0.00000000000E+00  0.00000000000E+00  0.69336478920E+02  0.69336478920E+02  0.00000000000E+00 0.  1.
         21   -1    0    0  501  502 -0.00000000000E+00 -0.00000000000E+00 -0.74408715323E+03  0.74408715323E+03  0.00000000000E+00 0.  1.
      99926    2    1    2    0    0 -0.14210854715E-13 -0.14210854715E-13 -0.67475067431E+03  0.81342363215E+03  0.45427913540E+03 0.  0.
      99925    2    3    3    0    0 -0.90322555103E+02 -0.66651167360E+02 -0.41170629344E+03  0.50126918884E+03  0.26299845161E+03 0.  0.
         25    1    4    4    0    0 -0.21388197318E+02 -0.37808809487E+02 -0.25471422378E+03  0.28707804680E+03  0.12509000000E+03 0.  0.
         25    1    3    3    0    0  0.90322555103E+02  0.66651167360E+02 -0.26304438087E+03  0.31215444331E+03  0.12509000000E+03 0.  0.
         25    1    4    4    0    0 -0.68934357786E+02 -0.28842357873E+02 -0.15699206965E+03  0.21419114203E+03  0.12509000000E+03 0.  0.
<mgrwt>
<rscale>  2 0.45427914E+03</rscale>
<asrwt>0</asrwt>
<pdfrwt beam="1">  1       21 0.10196541E-01 0.45427914E+03</pdfrwt>
<pdfrwt beam="2">  1       21 0.10942458E+00 0.45427914E+03</pdfrwt>
<totfact> 0.47389872E+04</totfact>
</mgrwt>
</event>
<event>
 7    0  0.4685107E-002  0.4473305E+03  0.7546771E-02  0.1028521E+00
         21   -1    0    0  502  501  0.00000000000E+00  0.00000000000E+00  0.33752583366E+02  0.33752583366E+02  0.00000000000E+00 0. -1.
         21   -1    0    0  501  502 -0.00000000000E+00 -0.00000000000E+00 -0.14821427649E+04  0.14821427649E+04  0.00000000000E+00 0. -1.
      99926    2    1    2    0    0  0.00000000000E+00 -0.14210854715E-13 -0.14483901815E+04  0.15158953482E+04  0.44733051419E+03 0.  0.
      99925    2    3    3    0    0  0.34360012836E+02 -0.10003035205E+03 -0.92633985813E+03  0.96874753453E+03  0.26302009633E+03 0.  0.
         25    1    4    4    0    0  0.58064123991E+02 -0.51924813163E+02 -0.48832451930E+03  0.51007447786E+03  0.12509000000E+03 0.  0.
         25    1    3    3    0    0 -0.34360012836E+02  0.10003035205E+03 -0.52205032336E+03  0.54714781370E+03  0.12509000000E+03 0.  0.
         25    1    4    4    0    0 -0.23704111155E+02 -0.48105538888E+02 -0.43801533883E+03  0.45867305667E+03  0.12509000000E+03 0.  0.
<mgrwt>
<rscale>  2 0.44733051E+03</rscale>
<asrwt>0</asrwt>
<pdfrwt beam="1">  1       21 0.49636150E-02 0.44733051E+03</pdfrwt>
<pdfrwt beam="2">  1       21 0.21796218E+00 0.44733051E+03</pdfrwt>
<totfact> 0.24839268E+04</totfact>
</mgrwt>
</event>
<event>
 7    0  0.4685107E-002  0.4340708E+03  0.7546771E-02  0.1032582E+00
         21   -1    0    0  502  501  0.00000000000E+00  0.00000000000E+00  0.15840374167E+03  0.15840374167E+03  0.00000000000E+00 0. -1.
         21   -1    0    0  501  502 -0.00000000000E+00 -0.00000000000E+00 -0.29736902222E+03  0.29736902222E+03  0.00000000000E+00 0. -1.
      99926    2    1    2    0    0  0.71054273576E-14  0.00000000000E+00 -0.13896528055E+03  0.45577276389E+03  0.43407080425E+03 0.  0.
      99925    2    3    3    0    0 -0.40012038054E+02 -0.25142335066E+02 -0.60161629740E+01  0.26720957510E+03  0.26292900678E+03 0.  0.
         25    1    3    3    0    0  0.40012038054E+02  0.25142335066E+02 -0.13294911758E+03  0.18856318879E+03  0.12509000000E+03 0.  0.
         25    1    4    4    0    0 -0.22517507917E+02  0.26581347635E+02 -0.13286463363E+02  0.13052832801E+03  0.12509000000E+03 0.  0.
         25    1    4    4    0    0 -0.17494530137E+02 -0.51723682701E+02  0.72703003890E+01  0.13668124708E+03  0.12509000000E+03 0.  0.
<mgrwt>
<rscale>  2 0.43407080E+03</rscale>
<asrwt>0</asrwt>
<pdfrwt beam="1">  1       21 0.23294668E-01 0.43407080E+03</pdfrwt>
<pdfrwt beam="2">  1       21 0.43730738E-01 0.43407080E+03</pdfrwt>
<totfact> 0.81172595E+04</totfact>
</mgrwt>
</event>
<event>
 7    0  0.4685107E-002  0.4500464E+03  0.7546771E-02  0.1027708E+00
         21   -1    0    0  502  501  0.00000000000E+00  0.00000000000E+00  0.17161284835E+03  0.17161284835E+03  0.00000000000E+00 0.  1.
         21   -1    0    0  501  502 -0.00000000000E+00 -0.00000000000E+00 -0.29505626456E+03  0.29505626456E+03  0.00000000000E+00 0.  1.
      99926    2    1    2    0    0  0.00000000000E+00  0.00000000000E+00 -0.12344341622E+03  0.46666911291E+03  0.45004642420E+03 0.  0.
      99925    2    3    3    0    0 -0.83902525368E+02 -0.41420906476E+02 -0.13482550470E+03  0.31004093762E+03  0.26304399066E+03 0.  0.
         25    1    4    4    0    0 -0.79293357645E+02 -0.21428120121E+02 -0.51124622464E+02  0.15813866074E+03  0.12509000000E+03 0.  0.
         25    1    3    3    0    0  0.83902525368E+02  0.41420906476E+02  0.11382088487E+02  0.15662817529E+03  0.12509000000E+03 0.  0.
         25    1    4    4    0    0 -0.46091677228E+01 -0.19992786356E+02 -0.83700882238E+02  0.15190227688E+03  0.12509000000E+03 0.  0.
<mgrwt>
<rscale>  2 0.45004642E+03</rscale>
<asrwt>0</asrwt>
<pdfrwt beam="1">  1       21 0.25237184E-01 0.45004642E+03</pdfrwt>
<pdfrwt beam="2">  1       21 0.43390627E-01 0.45004642E+03</pdfrwt>
<totfact> 0.70410798E+04</totfact>
</mgrwt>
</event>
<event>
 7    0  0.4685107E-002  0.4660230E+03  0.7546771E-02  0.1023049E+00
         21   -1    0    0  502  501  0.00000000000E+00  0.00000000000E+00  0.39020510596E+03  0.39020510596E+03  0.00000000000E+00 0. -1.
         21   -1    0    0  501  502 -0.00000000000E+00 -0.00000000000E+00 -0.13914313214E+03  0.13914313214E+03  0.00000000000E+00 0. -1.
      99926    2    1    2    0    0  0.00000000000E+00  0.00000000000E+00  0.25106197383E+03  0.52934823810E+03  0.46602300638E+03 0.  0.
      99925    2    3    3    0    0 -0.69000726576E+02  0.94503395005E+02  0.20002180311E+03  0.35061771731E+03  0.26311987769E+03 0.  0.
         25    1    4    4    0    0 -0.33227749629E+02  0.76409803963E+02  0.70030107573E+02  0.16581394861E+03  0.12509000000E+03 0.  0.
         25    1    3    3    0    0  0.69000726576E+02 -0.94503395005E+02  0.51040170720E+02  0.17873052079E+03  0.12509000000E+03 0.  0.
         25    1    4    4    0    0 -0.35772976947E+02  0.18093591043E+02  0.12999169553E+03  0.18480376870E+03  0.12509000000E+03 0.  0.
<mgrwt>
<rscale>  2 0.46602301E+03</rscale>
<asrwt>0</asrwt>
<pdfrwt beam="1">  1       21 0.57383104E-01 0.46602301E+03</pdfrwt>
<pdfrwt beam="2">  1       21 0.20462225E-01 0.46602301E+03</pdfrwt>
<totfact> 0.58012861E+04</totfact>
</mgrwt>
</event>
<event>
 7    0  0.4685107E-002  0.4558497E+03  0.7546771E-02  0.1025992E+00
         21   -1    0    0  502  501  0.00000000000E+00  0.00000000000E+00  0.21180154374E+04  0.21180154374E+04  0.00000000000E+00 0. -1.
         21   -1    0    0  501  502 -0.00000000000E+00 -0.00000000000E+00 -0.24527552812E+02  0.24527552812E+02  0.00000000000E+00 0. -1.
      99926    2    1    2    0    0 -0.35527136788E-14  0.00000000000E+00  0.20934878846E+04  0.21425429902E+04  0.45584969232E+03 0.  0.
      99925    2    3    3    0    0 -0.28017971332E+02 -0.48551882498E+02  0.84879584922E+03  0.89032573150E+03  0.26283687432E+03 0.  0.
         25    1    4    4    0    0 -0.43640016622E+02 -0.88872458902E+01  0.50008494637E+03  0.51741269396E+03  0.12509000000E+03 0.  0.
         25    1    3    3    0    0  0.28017971332E+02  0.48551882498E+02  0.12446920354E+04  0.12522172587E+04  0.12509000000E+03 0.  0.
         25    1    4    4    0    0  0.15622045290E+02 -0.39664636608E+02  0.34871090286E+03  0.37291303754E+03  0.12509000000E+03 0.  0.
<mgrwt>
<rscale>  2 0.45584969E+03</rscale>
<asrwt>0</asrwt>
<pdfrwt beam="1">  1       21 0.31147273E+00 0.45584969E+03</pdfrwt>
<pdfrwt beam="2">  1       21 0.36069945E-02 0.45584969E+03</pdfrwt>
<totfact> 0.11443348E+04</totfact>
</mgrwt>
</event>
<event>
 7    0  0.4685107E-002  0.4533953E+03  0.7546771E-02  0.1026714E+00
         21   -1    0    0  502  501  0.00000000000E+00  0.00000000000E+00  0.77433457292E+02  0.77433457292E+02  0.00000000000E+00 0.  1.
         21   -1    0    0  501  502 -0.00000000000E+00 -0.00000000000E+00 -0.66369026608E+03  0.66369026608E+03  0.00000000000E+00 0.  1.
      99926    2    1    2    0    0 -0.14210854715E-13  0.00000000000E+00 -0.58625680879E+03  0.74112372337E+03  0.45339533246E+03 0.  0.
      99925    2    3    3    0    0 -0.82568872068E+02 -0.39329448150E+02 -0.47395283348E+03  0.54974944324E+03  0.26311354555E+03 0.  0.
         25    1    3    3    0    0  0.82568872068E+02  0.39329448150E+02 -0.11230397531E+03  0.19137428013E+03  0.12509000000E+03 0.  0.
         25    1    4    4    0    0 -0.79145491020E+02 -0.37113401871E+02 -0.28087497811E+03  0.31965555646E+03  0.12509000000E+03 0.  0.
         25    1    4    4    0    0 -0.34233810480E+01 -0.22160462797E+01 -0.19307785537E+03  0.23009388678E+03  0.12509000000E+03 0.  0.
<mgrwt>
<rscale>  2 0.45339533E+03</rscale>
<asrwt>0</asrwt>
<pdfrwt beam="1">  1       21 0.11387273E-01 0.45339533E+03</pdfrwt>
<pdfrwt beam="2">  1       21 0.97601512E-01 0.45339533E+03</pdfrwt>
<totfact> 0.51371397E+04</totfact>
</mgrwt>
</event>
<event>
 7    0  0.4685107E-002  0.4526938E+03  0.7546771E-02  0.1026922E+00
         21   -1    0    0  502  501  0.00000000000E+00  0.00000000000E+00  0.40519242165E+03  0.40519242165E+03  0.00000000000E+00 0. -1.
         21   -1    0    0  501  502 -0.00000000000E+00 -0.00000000000E+00 -0.12644094324E+03  0.12644094324E+03  0.00000000000E+00 0. -1.
      99926    2    1    2    0    0  0.14210854715E-13 -0.71054273576E-14  0.27875147841E+03  0.53163336489E+03  0.45269376840E+03 0.  0.
      99925    2    3    3    0    0  0.83193501776E+02 -0.55616987800E+02  0.23158230280E+03  0.36463981023E+03  0.26328201641E+03 0.  0.
         25    1    4    4    0    0  0.42401736810E+02  0.10928834476E+02  0.89828310029E+02  0.16010615257E+03  0.12509000000E+03 0.  0.
         25    1    3    3    0    0 -0.83193501776E+02  0.55616987800E+02  0.47169175606E+02  0.16699355466E+03  0.12509000000E+03 0.  0.
         25    1    4    4    0    0  0.40791764967E+02 -0.66545822275E+02  0.14175399277E+03  0.20453365767E+03  0.12509000000E+03 0.  0.
<mgrwt>
<rscale>  2 0.45269377E+03</rscale>
<asrwt>0</asrwt>
<pdfrwt beam="1">  1       21 0.59587121E-01 0.45269377E+03</pdfrwt>
<pdfrwt beam="2">  1       21 0.18594256E-01 0.45269377E+03</pdfrwt>
<totfact> 0.64261852E+04</totfact>
</mgrwt>
</event>
<event>
 7    0  0.4685107E-002  0.4457016E+03  0.7546771E-02  0.1029012E+00
         21   -1    0    0  502  501  0.00000000000E+00  0.00000000000E+00  0.11091519521E+04  0.11091519521E+04  0.00000000000E+00 0. -1.
         21   -1    0    0  501  502 -0.00000000000E+00 -0.00000000000E+00 -0.44775180674E+02  0.44775180674E+02  0.00000000000E+00 0. -1.
      99926    2    1    2    0    0 -0.35527136788E-14  0.88817841970E-15  0.10643767714E+04  0.11539271327E+04  0.44570159995E+03 0.  0.
      99925    2    3    3    0    0 -0.19377983457E+02 -0.40013974605E+01  0.94038632414E+03  0.97669097239E+03  0.26307280265E+03 0.  0.
         25    1    3    3    0    0  0.19377983457E+02  0.40013974605E+01  0.12399044724E+03  0.17723616034E+03  0.12509000000E+03 0.  0.
         25    1    4    4    0    0  0.30625459885E+02  0.41349982459E+01  0.45611373511E+03  0.47396441265E+03  0.12509000000E+03 0.  0.
         25    1    4    4    0    0 -0.50003443342E+02 -0.81363957064E+01  0.48427258903E+03  0.50272655974E+03  0.12509000000E+03 0.  0.
<mgrwt>
<rscale>  2 0.44570160E+03</rscale>
<asrwt>0</asrwt>
<pdfrwt beam="1">  1       21 0.16311056E+00 0.44570160E+03</pdfrwt>
<pdfrwt beam="2">  1       21 0.65845861E-02 0.44570160E+03</pdfrwt>
<totfact> 0.36204832E+04</totfact>
</mgrwt>
</event>
<event>
 7    0  0.4685107E-002  0.4514375E+03  0.7546771E-02  0.1027294E+00
         21   -1    0    0  502  501  0.00000000000E+00  0.00000000000E+00  0.19623793940E+03  0.19623793940E+03  0.00000000000E+00 0. -1.
         21   -1    0    0  501  502 -0.00000000000E+00 -0.00000000000E+00 -0.25962842573E+03  0.25962842573E+03  0.00000000000E+00 0. -1.
      99926    2    1    2    0    0 -0.35527136788E-14  0.00000000000E+00 -0.63390486330E+02  0.45586636513E+03  0.45143746976E+03 0.  0.
      99925    2    3    3    0    0 -0.28353373529E+02 -0.98899537392E+02 -0.19527178235E+01  0.28264067481E+03  0.26324305435E+03 0.  0.
         25    1    4    4    0    0  0.78225549075E+01 -0.22912088661E+02  0.24015338895E+02  0.12965492962E+03  0.12509000000E+03 0.  0.
         25    1    3    3    0    0  0.28353373529E+02  0.98899537392E+02 -0.61437768507E+02  0.17322569032E+03  0.12509000000E+03 0.  0.
         25    1    4    4    0    0 -0.36175928436E+02 -0.75987448731E+02 -0.25968056718E+02  0.15298574519E+03  0.12509000000E+03 0.  0.
<mgrwt>
<rscale>  2 0.45143747E+03</rscale>
<asrwt>0</asrwt>
<pdfrwt beam="1">  1       21 0.28858520E-01 0.45143747E+03</pdfrwt>
<pdfrwt beam="2">  1       21 0.38180651E-01 0.45143747E+03</pdfrwt>
<totfact> 0.70463588E+04</totfact>
</mgrwt>
</event>
<event>
 7    0  0.4685107E-002  0.4565460E+03  0.7546771E-02  0.1025788E+00
         21   -1    0    0  502  501  0.00000000000E+00  0.00000000000E+00  0.37101152154E+03  0.37101152154E+03  0.00000000000E+00 0.  1.
         21   -1    0    0  501  502 -0.00000000000E+00 -0.00000000000E+00 -0.14044999595E+03  0.14044999595E+03  0.00000000000E+00 0.  1.
      99926    2    1    2    0    0 -0.35527136788E-14  0.00000000000E+00  0.23056152559E+03  0.51146151749E+03  0.45654601825E+03 0.  0.
      99925    2    3    3    0    0 -0.27213010839E+02  0.10982927391E+03  0.12436062350E+03  0.31213977489E+03  0.26298794083E+03 0.  0.
         25    1    3    3    0    0  0.27213010839E+02 -0.10982927391E+03  0.10620090210E+03  0.19932174260E+03  0.12509000000E+03 0.  0.
         25    1    4    4    0    0  0.25483568206E+02  0.44006557898E+02  0.50406270241E+02  0.14413288857E+03  0.12509000000E+03 0.  0.
         25    1    4    4    0    0 -0.52696579045E+02  0.65822716010E+02  0.73954353256E+02  0.16800688632E+03  0.12509000000E+03 0.  0.
<mgrwt>
<rscale>  2 0.45654602E+03</rscale>
<asrwt>0</asrwt>
<pdfrwt beam="1">  1       21 0.54560518E-01 0.45654602E+03</pdfrwt>
<pdfrwt beam="2">  1       21 0.20654411E-01 0.45654602E+03</pdfrwt>
<totfact> 0.63687716E+04</totfact>
</mgrwt>
</event>
<event>
 7    0  0.4685107E-002  0.4512444E+03  0.7546771E-02  0.1027352E+00
         21   -1    0    0  502  501  0.00000000000E+00  0.00000000000E+00  0.63342362408E+03  0.63342362408E+03  0.00000000000E+00 0. -1.
         21   -1    0    0  501  502 -0.00000000000E+00 -0.00000000000E+00 -0.80365461747E+02  0.80365461747E+02  0.00000000000E+00 0. -1.
      99926    2    1    2    0    0  0.00000000000E+00  0.14210854715E-13  0.55305816234E+03  0.71378908583E+03  0.45124442171E+03 0.  0.
      99925    2    3    3    0    0 -0.47823593707E+02  0.89033763116E+02  0.28185852737E+03  0.39849421243E+03  0.26294353157E+03 0.  0.
         25    1    3    3    0    0  0.47823593707E+02 -0.89033763116E+02  0.27119963496E+03  0.31529487340E+03  0.12509000000E+03 0.  0.
         25    1    4    4    0    0 -0.34851804805E+02  0.85898300624E+02  0.16340047120E+03  0.22569977500E+03  0.12509000000E+03 0.  0.
         25    1    4    4    0    0 -0.12971788902E+02  0.31354624918E+01  0.11845805618E+03  0.17279443743E+03  0.12509000000E+03 0.  0.
<mgrwt>
<rscale>  2 0.45124442E+03</rscale>
<asrwt>0</asrwt>
<pdfrwt beam="1">  1       21 0.93150530E-01 0.45124442E+03</pdfrwt>
<pdfrwt beam="2">  1       21 0.11818451E-01 0.45124442E+03</pdfrwt>
<totfact> 0.53730642E+04</totfact>
</mgrwt>
</event>
<event>
 7    0  0.4685107E-002  0.4450905E+03  0.7546771E-02  0.1029196E+00
         21   -1    0    0  502  501  0.00000000000E+00  0.00000000000E+00  0.64402795313E+02  0.64402795313E+02  0.00000000000E+00 0.  1.
         21   -1    0    0  501  502 -0.00000000000E+00 -0.00000000000E+00 -0.76900974505E+03  0.76900974505E+03  0.00000000000E+00 0.  1.
      99926    2    1    2    0    0  0.14210854715E-13  0.00000000000E+00 -0.70460694973E+03  0.83341254036E+03  0.44509045015E+03 0.  0.
      99925    2    3    3    0    0 -0.10117010040E+03  0.22602665941E+02 -0.45169639899E+03  0.53281725680E+03  0.26290363740E+03 0.  0.
         25    1    3    3    0    0  0.10117010040E+03 -0.22602665941E+02 -0.25291055074E+03  0.30059528356E+03  0.12509000000E+03 0.  0.
         25    1    4    4    0    0 -0.80270236289E+02  0.33328672055E+02 -0.28424932933E+03  0.32248922546E+03  0.12509000000E+03 0.  0.
         25    1    4    4    0    0 -0.20899864113E+02 -0.10726006114E+02 -0.16744706966E+03  0.21032803134E+03  0.12509000000E+03 0.  0.
<mgrwt>
<rscale>  2 0.44509045E+03</rscale>
<asrwt>0</asrwt>
<pdfrwt beam="1">  1       21 0.94709990E-02 0.44509045E+03</pdfrwt>
<pdfrwt beam="2">  1       21 0.11308967E+00 0.44509045E+03</pdfrwt>
<totfact> 0.49963507E+04</totfact>
</mgrwt>
</event>
<event>
 7    0  0.4685107E-002  0.4749745E+03  0.7546771E-02  0.1020526E+00
         21   -1    0    0  502  501  0.00000000000E+00  0.00000000000E+00  0.31542952829E+03  0.31542952829E+03  0.00000000000E+00 0.  1.
         21   -1    0    0  501  502 -0.00000000000E+00 -0.00000000000E+00 -0.17880438947E+03  0.17880438947E+03  0.00000000000E+00 0.  1.
      99926    2    1    2    0    0  0.00000000000E+00  0.14210854715E-13  0.13662513882E+03  0.49423391776E+03  0.47497445922E+03 0.  0.
      99925    2    3    3    0    0  0.88634836938E+01 -0.85529764238E+02 -0.18392773100E+02  0.27727317701E+03  0.26296048881E+03 0.  0.
         25    1    4    4    0    0  0.88184171504E+01 -0.25008319113E+02  0.27758566970E+02  0.13084810524E+03  0.12509000000E+03 0.  0.
         25    1    4    4    0    0  0.45066543383E-01 -0.60521445124E+02 -0.46151340070E+02  0.14642507176E+03  0.12509000000E+03 0.  0.
         25    1    3    3    0    0 -0.88634836938E+01  0.85529764238E+02  0.15501791192E+03  0.21696074076E+03  0.12509000000E+03 0.  0.
<mgrwt>
<rscale>  2 0.47497446E+03</rscale>
<asrwt>0</asrwt>
<pdfrwt beam="1">  1       21 0.46386695E-01 0.47497446E+03</pdfrwt>
<pdfrwt beam="2">  1       21 0.26294763E-01 0.47497446E+03</pdfrwt>
<totfact> 0.56220887E+04</totfact>
</mgrwt>
</event>
<event>
 7    0  0.4685107E-002  0.4638648E+03  0.7546771E-02  0.1023666E+00
         21   -1    0    0  502  501  0.00000000000E+00  0.00000000000E+00  0.72257950478E+03  0.72257950478E+03  0.00000000000E+00 0.  1.
         21   -1    0    0  501  502 -0.00000000000E+00 -0.00000000000E+00 -0.74445291526E+02  0.74445291526E+02  0.00000000000E+00 0.  1.
      99926    2    1    2    0    0  0.00000000000E+00  0.71054273576E-14  0.64813421325E+03  0.79702479630E+03  0.46386481601E+03 0.  0.
      99925    2    3    3    0    0  0.85312435136E+02  0.49122589005E+02  0.52629757225E+03  0.59656802907E+03  0.26308370990E+03 0.  0.
         25    1    4    4    0    0  0.50869496197E+02 -0.49041872824E+01  0.20089895798E+03  0.24211496466E+03  0.12509000000E+03 0.  0.
         25    1    4    4    0    0  0.34442938939E+02  0.54026776288E+02  0.32539861427E+03  0.35445306441E+03  0.12509000000E+03 0.  0.
         25    1    3    3    0    0 -0.85312435136E+02 -0.49122589005E+02  0.12183664100E+03  0.20045676723E+03  0.12509000000E+03 0.  0.
<mgrwt>
<rscale>  2 0.46386482E+03</rscale>
<asrwt>0</asrwt>
<pdfrwt beam="1">  1       21 0.10626169E+00 0.46386482E+03</pdfrwt>
<pdfrwt beam="2">  1       21 0.10947837E-01 0.46386482E+03</pdfrwt>
<totfact> 0.44716031E+04</totfact>
</mgrwt>
</event>
<event>
 7    0  0.4685107E-002  0.4591986E+03  0.7546771E-02  0.1025014E+00
         21   -1    0    0  502  501  0.00000000000E+00  0.00000000000E+00  0.25576821960E+03  0.25576821960E+03  0.00000000000E+00 0.  1.
         21   -1    0    0  501  502 -0.00000000000E+00 -0.00000000000E+00 -0.20610781418E+03  0.20610781418E+03  0.00000000000E+00 0.  1.
      99926    2    1    2    0    0  0.00000000000E+00  0.00000000000E+00  0.49660405423E+02  0.46187603378E+03  0.45919855696E+03 0.  0.
      99925    2    3    3    0    0  0.50526607589E+02 -0.82389412191E+02  0.97542040345E+02  0.29670608380E+03  0.26301919552E+03 0.  0.
         25    1    4    4    0    0  0.75901667171E+01 -0.39244126171E+01  0.31055882833E+02  0.12917038207E+03  0.12509000000E+03 0.  0.
         25    1    3    3    0    0 -0.50526607589E+02  0.82389412191E+02 -0.47881634923E+02  0.16516994999E+03  0.12509000000E+03 0.  0.
         25    1    4    4    0    0  0.42936440872E+02 -0.78464999574E+02  0.66486157512E+02  0.16753570173E+03  0.12509000000E+03 0.  0.
<mgrwt>
<rscale>  2 0.45919856E+03</rscale>
<asrwt>0</asrwt>
<pdfrwt beam="1">  1       21 0.37612973E-01 0.45919856E+03</pdfrwt>
<pdfrwt beam="2">  1       21 0.30309973E-01 0.45919856E+03</pdfrwt>
<totfact> 0.65812537E+04</totfact>
</mgrwt>
</event>
<event>
 7    0  0.4685107E-002  0.4448636E+03  0.7546771E-02  0.1029265E+00
         21   -1    0    0  502  501  0.00000000000E+00  0.00000000000E+00  0.50243455814E+03  0.50243455814E+03  0.00000000000E+00 0.  1.
         21   -1    0    0  501  502 -0.00000000000E+00 -0.00000000000E+00 -0.98472359293E+02  0.98472359293E+02  0.00000000000E+00 0.  1.
      99926    2    1    2    0    0  0.00000000000E+00  0.00000000000E+00  0.40396219885E+03  0.60090691744E+03  0.44486364801E+03 0.  0.
      99925    2    3    3    0    0  0.45342612758E+02 -0.62275118960E+02  0.34973025735E+03  0.44430948913E+03  0.26299339584E+03 0.  0.
         25    1    4    4    0    0 -0.14919787630E+02 -0.12790136554E+02  0.15926338624E+03  0.20346626736E+03  0.12509000000E+03 0.  0.
         25    1    4    4    0    0  0.60262400388E+02 -0.49484982406E+02  0.19046687111E+03  0.24084322177E+03  0.12509000000E+03 0.  0.
         25    1    3    3    0    0 -0.45342612758E+02  0.62275118960E+02  0.54231941504E+02  0.15659742831E+03  0.12509000000E+03 0.  0.
<mgrwt>
<rscale>  2 0.44486365E+03</rscale>
<asrwt>0</asrwt>
<pdfrwt beam="1">  1       21 0.73887434E-01 0.44486365E+03</pdfrwt>
<pdfrwt beam="2">  1       21 0.14481230E-01 0.44486365E+03</pdfrwt>
<totfact> 0.63561858E+04</totfact>
</mgrwt>
</event>
<event>
 7    0  0.4685107E-002  0.4576196E+03  0.7546771E-02  0.1025474E+00
         21   -1    0    0  502  501  0.00000000000E+00  0.00000000000E+00  0.14924240776E+04  0.14924240776E+04  0.00000000000E+00 0. -1.
         21   -1    0    0  501  502 -0.00000000000E+00 -0.00000000000E+00 -0.35079786274E+02  0.35079786274E+02  0.00000000000E+00 0. -1.
      99926    2    1    2    0    0  0.00000000000E+00  0.35527136788E-14  0.14573442913E+04  0.15275038639E+04  0.45761956983E+03 0.  0.
      99925    2    3    3    0    0 -0.69352324229E+02  0.13283633572E+02  0.12205718633E+04  0.12505654401E+04  0.26292973712E+03 0.  0.
         25    1    4    4    0    0 -0.57410849214E+02 -0.19881014104E+02  0.72629839939E+03  0.73949180751E+03  0.12509000000E+03 0.  0.
         25    1    3    3    0    0  0.69352324229E+02 -0.13283633572E+02  0.23677242803E+03  0.27693842379E+03  0.12509000000E+03 0.  0.
         25    1    4    4    0    0 -0.11941475015E+02  0.33164647676E+02  0.49427346389E+03  0.51107363255E+03  0.12509000000E+03 0.  0.
<mgrwt>
<rscale>  2 0.45761957E+03</rscale>
<asrwt>0</asrwt>
<pdfrwt beam="1">  1       21 0.21947409E+00 0.45761957E+03</pdfrwt>
<pdfrwt beam="2">  1       21 0.51587931E-02 0.45761957E+03</pdfrwt>
<totfact> 0.22648718E+04</totfact>
</mgrwt>
</event>
<event>
 7    0  0.4685107E-002  0.4491628E+03  0.7546771E-02  0.1027972E+00
         21   -1    0    0  502  501  0.00000000000E+00  0.00000000000E+00  0.79994222278E+03  0.79994222278E+03  0.00000000000E+00 0.  1.
         21   -1    0    0  501  502 -0.00000000000E+00 -0.00000000000E+00 -0.63050574135E+02  0.63050574135E+02  0.00000000000E+00 0.  1.
      99926    2    1    2    0    0 -0.35527136788E-14  0.71054273576E-14  0.73689164865E+03  0.86299279692E+03  0.44916284985E+03 0.  0.
      99925    2    3    3    0    0 -0.22788392928E+02  0.42465255659E+02  0.28131819800E+03  0.38810619380E+03  0.26299026664E+03 0.  0.
         25    1    3    3    0    0  0.22788392928E+02 -0.42465255659E+02  0.45557345065E+03  0.47488660312E+03  0.12509000000E+03 0.  0.
         25    1    4    4    0    0 -0.31506546491E+02  0.84104095762E+01  0.18790521698E+03  0.22807734681E+03  0.12509000000E+03 0.  0.
         25    1    4    4    0    0  0.87181535628E+01  0.34054846083E+02  0.93412981020E+02  0.16002884698E+03  0.12509000000E+03 0.  0.
<mgrwt>
<rscale>  2 0.44916285E+03</rscale>
<asrwt>0</asrwt>
<pdfrwt beam="1">  1       21 0.11763856E+00 0.44916285E+03</pdfrwt>
<pdfrwt beam="2">  1       21 0.92721437E-02 0.44916285E+03</pdfrwt>
<totfact> 0.46977618E+04</totfact>
</mgrwt>
</event>
<event>
 7    0  0.4685107E-002  0.4660905E+03  0.7546771E-02  0.1023029E+00
         21   -1    0    0  502  501  0.00000000000E+00  0.00000000000E+00  0.73407026745E+02  0.73407026745E+02  0.00000000000E+00 0.  1.
         21   -1    0    0  501  502 -0.00000000000E+00 -0.00000000000E+00 -0.73984869191E+03  0.73984869191E+03  0.00000000000E+00 0.  1.
      99926    2    1    2    0    0  0.14210854715E-13  0.00000000000E+00 -0.66644166516E+03  0.81325571865E+03  0.46609051788E+03 0.  0.
      99925    2    3    3    0    0 -0.74258174216E+02 -0.17868524951E+02 -0.24655790144E+03  0.36852721298E+03  0.26303601906E+03 0.  0.
         25    1    3    3    0    0  0.74258174216E+02  0.17868524951E+02 -0.41988376372E+03  0.44472850567E+03  0.12509000000E+03 0.  0.
         25    1    4    4    0    0 -0.10207517297E+01  0.12707543004E+02 -0.11543456595E+03  0.17069027711E+03  0.12509000000E+03 0.  0.
         25    1    4    4    0    0 -0.73237422486E+02 -0.30576067955E+02 -0.13112333549E+03  0.19783693587E+03  0.12509000000E+03 0.  0.
<mgrwt>
<rscale>  2 0.46609052E+03</rscale>
<asrwt>0</asrwt>
<pdfrwt beam="1">  1       21 0.10795151E-01 0.46609052E+03</pdfrwt>
<pdfrwt beam="2">  1       21 0.10880127E+00 0.46609052E+03</pdfrwt>
<totfact> 0.43242403E+04</totfact>
</mgrwt>
</event>
<event>
 7    0  0.4685107E-002  0.4190563E+03  0.7546771E-02  0.1037374E+00
         21   -1    0    0  502  501  0.00000000000E+00  0.00000000000E+00  0.10431662734E+03  0.10431662734E+03  0.00000000000E+00 0. -1.
         21   -1    0    0  501  502 -0.00000000000E+00 -0.00000000000E+00 -0.42085383712E+03  0.42085383712E+03  0.00000000000E+00 0. -1.
      99926    2    1    2    0    0  0.71054273576E-14  0.88817841970E-15 -0.31653720978E+03  0.52517046446E+03  0.41905633460E+03 0.  0.
      99925    2    3    3    0    0 -0.48206654559E+02  0.39326742635E+01 -0.13516632593E+03  0.29959951536E+03  0.26296499095E+03 0.  0.
         25    1    4    4    0    0 -0.56707820447E+02  0.19093478541E+02 -0.90768202785E+02  0.16573084372E+03  0.12509000000E+03 0.  0.
         25    1    4    4    0    0  0.85011658870E+01 -0.15160804277E+02 -0.44398123148E+02  0.13386867164E+03  0.12509000000E+03 0.  0.
         25    1    3    3    0    0  0.48206654559E+02 -0.39326742635E+01 -0.18137088385E+03  0.22557094910E+03  0.12509000000E+03 0.  0.
<mgrwt>
<rscale>  2 0.41905633E+03</rscale>
<asrwt>0</asrwt>
<pdfrwt beam="1">  1       21 0.15340681E-01 0.41905633E+03</pdfrwt>
<pdfrwt beam="2">  1       21 0.61890269E-01 0.41905633E+03</pdfrwt>
<totfact> 0.85355065E+04</totfact>
</mgrwt>
</event>
<event>
 7    0  0.4685107E-002  0.4428796E+03  0.7546771E-02  0.1029867E+00
         21   -1    0    0  502  501  0.00000000000E+00  0.00000000000E+00  0.33958981675E+03  0.33958981675E+03  0.00000000000E+00 0. -1.
         21   -1    0    0  501  502 -0.00000000000E+00 -0.00000000000E+00 -0.14439649786E+03  0.14439649786E+03  0.00000000000E+00 0. -1.
      99926    2    1    2    0    0  0.00000000000E+00  0.00000000000E+00  0.19519331889E+03  0.48398631461E+03  0.44287957842E+03 0.  0.
      99925    2    3    3    0    0 -0.42739063632E+02  0.70106759219E+02  0.18914237728E+03  0.33423416189E+03  0.26305142243E+03 0.  0.
         25    1    4    4    0    0  0.15763454037E+02  0.15640846711E+02  0.91110340124E+02  0.15633849413E+03  0.12509000000E+03 0.  0.
         25    1    4    4    0    0 -0.58502517669E+02  0.54465912508E+02  0.98032037158E+02  0.17789566776E+03  0.12509000000E+03 0.  0.
         25    1    3    3    0    0  0.42739063632E+02 -0.70106759219E+02  0.60509416106E+01  0.14975215271E+03  0.12509000000E+03 0.  0.
<mgrwt>
<rscale>  2 0.44287958E+03</rscale>
<asrwt>0</asrwt>
<pdfrwt beam="1">  1       21 0.49939679E-01 0.44287958E+03</pdfrwt>
<pdfrwt beam="2">  1       21 0.21234779E-01 0.44287958E+03</pdfrwt>
<totfact> 0.73205296E+04</totfact>
</mgrwt>
</event>
<event>
 7    0  0.4685107E-002  0.4455339E+03  0.7546771E-02  0.1029062E+00
         21   -1    0    0  502  501  0.00000000000E+00  0.00000000000E+00  0.52951389826E+02  0.52951389826E+02  0.00000000000E+00 0.  1.
         21   -1    0    0  501  502 -0.00000000000E+00 -0.00000000000E+00 -0.93718267196E+03  0.93718267196E+03  0.00000000000E+00 0.  1.
      99926    2    1    2    0    0  0.00000000000E+00 -0.71054273576E-14 -0.88423128213E+03  0.99013406178E+03  0.44553394933E+03 0.  0.
      99925    2    3    3    0    0  0.82260770557E+02 -0.61393456265E+02 -0.59923945299E+03  0.66240880853E+03  0.26298577290E+03 0.  0.
         25    1    4    4    0    0  0.42486509724E+02  0.27878375016E+01 -0.22911749917E+03  0.26449047633E+03  0.12509000000E+03 0.  0.
         25    1    3    3    0    0 -0.82260770557E+02  0.61393456265E+02 -0.28499182914E+03  0.32772525325E+03  0.12509000000E+03 0.  0.
         25    1    4    4    0    0  0.39774260833E+02 -0.64181293767E+02 -0.37012195383E+03  0.39791833220E+03  0.12509000000E+03 0.  0.
<mgrwt>
<rscale>  2 0.44553395E+03</rscale>
<asrwt>0</asrwt>
<pdfrwt beam="1">  1       21 0.77869695E-02 0.44553395E+03</pdfrwt>
<pdfrwt beam="2">  1       21 0.13782097E+00 0.44553395E+03</pdfrwt>
<totfact> 0.42617580E+04</totfact>
</mgrwt>
</event>
<event>
 7    0  0.4685107E-002  0.4531306E+03  0.7546771E-02  0.1026793E+00
         21   -1    0    0  502  501  0.00000000000E+00  0.00000000000E+00  0.26258035728E+02  0.26258035728E+02  0.00000000000E+00 0. -1.
         21   -1    0    0  501  502 -0.00000000000E+00 -0.00000000000E+00 -0.19549003383E+04  0.19549003383E+04  0.00000000000E+00 0. -1.
      99926    2    1    2    0    0 -0.14210854715E-13 -0.26645352591E-14 -0.19286423025E+04  0.19811583740E+04  0.45313063426E+03 0.  0.
      99925    2    3    3    0    0  0.81393001710E+02 -0.41229671155E+01 -0.15479261871E+04  0.15722157273E+04  0.26295435545E+03 0.  0.
         25    1    4    4    0    0  0.64280924740E+02 -0.35717364049E+02 -0.82964220056E+03  0.84223598619E+03  0.12509000000E+03 0.  0.
         25    1    4    4    0    0  0.17112076969E+02  0.31594396933E+02 -0.71828398652E+03  0.72997974115E+03  0.12509000000E+03 0.  0.
         25    1    3    3    0    0 -0.81393001710E+02  0.41229671155E+01 -0.38071611544E+03  0.40894264664E+03  0.12509000000E+03 0.  0.
<mgrwt>
<rscale>  2 0.45313063E+03</rscale>
<asrwt>0</asrwt>
<pdfrwt beam="1">  1       21 0.38614778E-02 0.45313063E+03</pdfrwt>
<pdfrwt beam="2">  1       21 0.28748520E+00 0.45313063E+03</pdfrwt>
<totfact> 0.14225133E+04</totfact>
</mgrwt>
</event>
<event>
 7    0  0.4685107E-002  0.4509231E+03  0.7546771E-02  0.1027447E+00
         21   -1    0    0  502  501  0.00000000000E+00  0.00000000000E+00  0.37179156496E+03  0.37179156496E+03  0.00000000000E+00 0. -1.
         21   -1    0    0  501  502 -0.00000000000E+00 -0.00000000000E+00 -0.13672419967E+03  0.13672419967E+03  0.00000000000E+00 0. -1.
      99926    2    1    2    0    0  0.00000000000E+00  0.00000000000E+00  0.23506736529E+03  0.50851576463E+03  0.45092307177E+03 0.  0.
      99925    2    3    3    0    0 -0.32906767095E+02  0.91971651803E+02  0.93399744886E+02  0.29577445969E+03  0.26309195846E+03 0.  0.
         25    1    4    4    0    0 -0.56975923555E+02  0.48279841604E+02  0.41883811194E+02  0.15158812853E+03  0.12509000000E+03 0.  0.
         25    1    3    3    0    0  0.32906767095E+02 -0.91971651803E+02  0.14166762041E+03  0.21274130494E+03  0.12509000000E+03 0.  0.
         25    1    4    4    0    0  0.24069156460E+02  0.43691810199E+02  0.51515933692E+02  0.14418633117E+03  0.12509000000E+03 0.  0.
<mgrwt>
<rscale>  2 0.45092307E+03</rscale>
<asrwt>0</asrwt>
<pdfrwt beam="1">  1       21 0.54675230E-01 0.45092307E+03</pdfrwt>
<pdfrwt beam="2">  1       21 0.20106500E-01 0.45092307E+03</pdfrwt>
<totfact> 0.66812117E+04</totfact>
</mgrwt>
</event>
<event>
 7    0  0.4685107E-002  0.4529173E+03  0.7546771E-02  0.1026856E+00
         21   -1    0    0  502  501  0.00000000000E+00  0.00000000000E+00  0.37467838930E+03  0.37467838930E+03  0.00000000000E+00 0. -1.
         21   -1    0    0  501  502 -0.00000000000E+00 -0.00000000000E+00 -0.13687344140E+03  0.13687344140E+03  0.00000000000E+00 0. -1.
      99926    2    1    2    0    0  0.00000000000E+00  0.00000000000E+00  0.23780494789E+03  0.51155183070E+03  0.45291730178E+03 0.  0.
      99925    2    3    3    0    0  0.14599411836E+02 -0.74957135667E+02  0.24093399874E+03  0.36496051420E+03  0.26327793330E+03 0.  0.
         25    1    3    3    0    0 -0.14599411836E+02  0.74957135667E+02 -0.31290508467E+01  0.14659131650E+03  0.12509000000E+03 0.  0.
         25    1    4    4    0    0  0.43321927138E+02 -0.42800397518E+02  0.14892893214E+03  0.20380382314E+03  0.12509000000E+03 0.  0.
         25    1    4    4    0    0 -0.28722515302E+02 -0.32156738149E+02  0.92005066599E+02  0.16115669106E+03  0.12509000000E+03 0.  0.
<mgrwt>
<rscale>  2 0.45291730E+03</rscale>
<asrwt>0</asrwt>
<pdfrwt beam="1">  1       21 0.55099763E-01 0.45291730E+03</pdfrwt>
<pdfrwt beam="2">  1       21 0.20128447E-01 0.45291730E+03</pdfrwt>
<totfact> 0.65543080E+04</totfact>
</mgrwt>
</event>
<event>
 7    0  0.4685107E-002  0.4577824E+03  0.7546771E-02  0.1025426E+00
         21   -1    0    0  502  501  0.00000000000E+00  0.00000000000E+00  0.89757582834E+02  0.89757582834E+02  0.00000000000E+00 0. -1.
         21   -1    0    0  501  502 -0.00000000000E+00 -0.00000000000E+00 -0.58369633382E+03  0.58369633382E+03  0.00000000000E+00 0. -1.
      99926    2    1    2    0    0  0.00000000000E+00  0.00000000000E+00 -0.49393875098E+03  0.67345391665E+03  0.45778235891E+03 0.  0.
      99925    2    3    3    0    0  0.50704219128E+02 -0.13145250638E+02 -0.15824142018E+03  0.31139878071E+03  0.26303067904E+03 0.  0.
         25    1    3    3    0    0 -0.50704219128E+02  0.13145250638E+02 -0.33569733080E+03  0.36205513594E+03  0.12509000000E+03 0.  0.
         25    1    4    4    0    0  0.62328936656E+02  0.78643578313E+01 -0.95145377085E+02  0.16925393747E+03  0.12509000000E+03 0.  0.
         25    1    4    4    0    0 -0.11624717527E+02 -0.21009608469E+02 -0.63096043094E+02  0.14214484324E+03  0.12509000000E+03 0.  0.
<mgrwt>
<rscale>  2 0.45778236E+03</rscale>
<asrwt>0</asrwt>
<pdfrwt beam="1">  1       21 0.13199645E-01 0.45778236E+03</pdfrwt>
<pdfrwt beam="2">  1       21 0.85837696E-01 0.45778236E+03</pdfrwt>
<totfact> 0.53192150E+04</totfact>
</mgrwt>
</event>
<event>
 7    0  0.4685107E-002  0.4407654E+03  0.7546771E-02  0.1030512E+00
         21   -1    0    0  502  501  0.00000000000E+00  0.00000000000E+00  0.70686857262E+03  0.70686857262E+03  0.00000000000E+00 0.  1.
         21   -1    0    0  501  502 -0.00000000000E+00 -0.00000000000E+00 -0.68709430748E+02  0.68709430748E+02  0.00000000000E+00 0.  1.
      99926    2    1    2    0    0  0.71054273576E-14  0.00000000000E+00  0.63815914187E+03  0.77557800337E+03  0.44076541261E+03 0.  0.
      99925    2    3    3    0    0 -0.42027374283E+02  0.73717378404E+02  0.49770729998E+03  0.56924143352E+03  0.26291196456E+03 0.  0.
         25    1    4    4    0    0  0.14696636147E+02  0.48911051180E+02  0.27525475100E+03  0.30662838761E+03  0.12509000000E+03 0.  0.
         25    1    3    3    0    0  0.42027374283E+02 -0.73717378404E+02  0.14045184189E+03  0.20633656985E+03  0.12509000000E+03 0.  0.
         25    1    4    4    0    0 -0.56724010430E+02  0.24806327225E+02  0.22245254899E+03  0.26261304591E+03  0.12509000000E+03 0.  0.
<mgrwt>
<rscale>  2 0.44076541E+03</rscale>
<asrwt>0</asrwt>
<pdfrwt beam="1">  1       21 0.10395126E+00 0.44076541E+03</pdfrwt>
<pdfrwt beam="2">  1       21 0.10104328E-01 0.44076541E+03</pdfrwt>
<totfact> 0.54845090E+04</totfact>
</mgrwt>
</event>
<event>
 7    0  0.4685107E-002  0.4550933E+03  0.7546771E-02  0.1026214E+00
         21   -1    0    0  502  501  0.00000000000E+00  0.00000000000E+00  0.10048473721E+03  0.10048473721E+03  0.00000000000E+00 0. -1.
         21   -1    0    0  501  502 -0.00000000000E+00 -0.00000000000E+00 -0.51527699114E+03  0.51527699114E+03  0.00000000000E+00 0. -1.
      99926    2    1    2    0    0  0.00000000000E+00  0.00000000000E+00 -0.41479225393E+03  0.61576172835E+03  0.45509327854E+03 0.  0.
      99925    2    3    3    0    0  0.31027331982E+02  0.10796056991E+03 -0.25242558070E+03  0.38203405634E+03  0.26384307159E+03 0.  0.
         25    1    4    4    0    0 -0.67157964676E+01  0.29251318709E+02 -0.15328287036E+03  0.20010968996E+03  0.12509000000E+03 0.  0.
         25    1    4    4    0    0  0.37743128450E+02  0.78709251204E+02 -0.99142710337E+02  0.18192436638E+03  0.12509000000E+03 0.  0.
         25    1    3    3    0    0 -0.31027331982E+02 -0.10796056991E+03 -0.16236667324E+03  0.23372767201E+03  0.12509000000E+03 0.  0.
<mgrwt>
<rscale>  2 0.45509328E+03</rscale>
<asrwt>0</asrwt>
<pdfrwt beam="1">  1       21 0.14777167E-01 0.45509328E+03</pdfrwt>
<pdfrwt beam="2">  1       21 0.75776027E-01 0.45509328E+03</pdfrwt>
<totfact> 0.57675934E+04</totfact>
</mgrwt>
</event>
<event>
 7    0  0.4685107E-002  0.4614372E+03  0.7546771E-02  0.1024365E+00
         21   -1    0    0  502  501  0.00000000000E+00  0.00000000000E+00  0.82496983583E+03  0.82496983583E+03  0.00000000000E+00 0. -1.
         21   -1    0    0  501  502 -0.00000000000E+00 -0.00000000000E+00 -0.64524866806E+02  0.64524866806E+02  0.00000000000E+00 0. -1.
      99926    2    1    2    0    0  0.35527136788E-14  0.00000000000E+00  0.76044496903E+03  0.88949470264E+03  0.46143718435E+03 0.  0.
      99925    2    3    3    0    0  0.30669912112E+02 -0.11315359396E+03  0.43502106388E+03  0.52167327113E+03  0.26297394635E+03 0.  0.
         25    1    4    4    0    0  0.51282420957E+02 -0.54932640826E+02  0.18810866159E+03  0.23807532084E+03  0.12509000000E+03 0.  0.
         25    1    3    3    0    0 -0.30669912112E+02  0.11315359396E+03  0.32542390514E+03  0.36782143150E+03  0.12509000000E+03 0.  0.
         25    1    4    4    0    0 -0.20612508845E+02 -0.58220953137E+02  0.24691240229E+03  0.28359795029E+03  0.12509000000E+03 0.  0.
<mgrwt>
<rscale>  2 0.46143718E+03</rscale>
<asrwt>0</asrwt>
<pdfrwt beam="1">  1       21 0.12131909E+00 0.46143718E+03</pdfrwt>
<pdfrwt beam="2">  1       21 0.94889515E-02 0.46143718E+03</pdfrwt>
<totfact> 0.41556313E+04</totfact>
</mgrwt>
</event>
<event>
 7    0  0.4685107E-002  0.4587368E+03  0.7546771E-02  0.1025148E+00
         21   -1    0    0  502  501  0.00000000000E+00  0.00000000000E+00  0.21909414000E+03  0.21909414000E+03  0.00000000000E+00 0. -1.
         21   -1    0    0  501  502 -0.00000000000E+00 -0.00000000000E+00 -0.24012446865E+03  0.24012446865E+03  0.00000000000E+00 0. -1.
      99926    2    1    2    0    0  0.00000000000E+00 -0.71054273576E-14 -0.21030328651E+02  0.45921860865E+03  0.45873680451E+03 0.  0.
      99925    2    3    3    0    0 -0.10419726742E+03 -0.50766768186E+02 -0.68555302348E+01  0.28809652271E+03  0.26366318061E+03 0.  0.
         25    1    4    4    0    0 -0.63530923480E+02 -0.64244260069E+02 -0.18249525721E+02  0.15538357854E+03  0.12509000000E+03 0.  0.
         25    1    4    4    0    0 -0.40666343936E+02  0.13477491883E+02  0.11393995486E+02  0.13271294417E+03  0.12509000000E+03 0.  0.
         25    1    3    3    0    0  0.10419726742E+03  0.50766768186E+02 -0.14174798416E+02  0.17112208595E+03  0.12509000000E+03 0.  0.
<mgrwt>
<rscale>  2 0.45873680E+03</rscale>
<asrwt>0</asrwt>
<pdfrwt beam="1">  1       21 0.32219727E-01 0.45873680E+03</pdfrwt>
<pdfrwt beam="2">  1       21 0.35312422E-01 0.45873680E+03</pdfrwt>
<totfact> 0.66240722E+04</totfact>
</mgrwt>
</event>
<event>
 7    0  0.4685107E-002  0.4556259E+03  0.7546771E-02  0.1026058E+00
         21   -1    0    0  502  501  0.00000000000E+00  0.00000000000E+00  0.54643558947E+03  0.54643558947E+03  0.00000000000E+00 0. -1.
         21   -1    0    0  501  502 -0.00000000000E+00 -0.00000000000E+00 -0.94976874366E+02  0.94976874366E+02  0.00000000000E+00 0. -1.
      99926    2    1    2    0    0  0.00000000000E+00  0.71054273576E-14  0.45145871510E+03  0.64141246383E+03  0.45562591818E+03 0.  0.
      99925    2    3    3    0    0 -0.47750161137E+02 -0.56376500913E+02  0.16225015211E+03  0.31776529677E+03  0.26304236204E+03 0.  0.
         25    1    4    4    0    0 -0.25096664937E+02  0.40387206631E+01  0.10699266490E+03  0.16655657387E+03  0.12509000000E+03 0.  0.
         25    1    4    4    0    0 -0.22653496199E+02 -0.60415221576E+02  0.55257487208E+02  0.15120872290E+03  0.12509000000E+03 0.  0.
         25    1    3    3    0    0  0.47750161137E+02  0.56376500913E+02  0.28920856299E+03  0.32364716706E+03  0.12509000000E+03 0.  0.
<mgrwt>
<rscale>  2 0.45562592E+03</rscale>
<asrwt>0</asrwt>
<pdfrwt beam="1">  1       21 0.80358173E-01 0.45562592E+03</pdfrwt>
<pdfrwt beam="2">  1       21 0.13967188E-01 0.45562592E+03</pdfrwt>
<totfact> 0.55922220E+04</totfact>
</mgrwt>
</event>
<event>
 7    0  0.4685107E-002  0.4521964E+03  0.7546771E-02  0.1027069E+00
         21   -1    0    0  502  501  0.00000000000E+00  0.00000000000E+00  0.10086285849E+03  0.10086285849E+03  0.00000000000E+00 0. -1.
         21   -1    0    0  501  502 -0.00000000000E+00 -0.00000000000E+00 -0.50683074808E+03  0.50683074808E+03  0.00000000000E+00 0. -1.
      99926    2    1    2    0    0  0.00000000000E+00  0.14210854715E-13 -0.40596788959E+03  0.60769360658E+03  0.45219640876E+03 0.  0.
      99925    2    3    3    0    0 -0.72632339624E+02  0.77992151078E+02 -0.29543016097E+03  0.40964227501E+03  0.26300110470E+03 0.  0.
         25    1    3    3    0    0  0.72632339624E+02 -0.77992151078E+02 -0.11053772861E+03  0.19805133157E+03  0.12509000000E+03 0.  0.
         25    1    4    4    0    0 -0.44035557735E+02 -0.64329622357E+00 -0.12446710601E+03  0.18187664158E+03  0.12509000000E+03 0.  0.
         25    1    4    4    0    0 -0.28596781889E+02  0.78635447302E+02 -0.17096305497E+03  0.22776563343E+03  0.12509000000E+03 0.  0.
<mgrwt>
<rscale>  2 0.45219641E+03</rscale>
<asrwt>0</asrwt>
<pdfrwt beam="1">  1       21 0.14832774E-01 0.45219641E+03</pdfrwt>
<pdfrwt beam="2">  1       21 0.74533932E-01 0.45219641E+03</pdfrwt>
<totfact> 0.59514316E+04</totfact>
</mgrwt>
</event>
<event>
 7    0  0.4685107E-002  0.4576922E+03  0.7546771E-02  0.1025453E+00
         21   -1    0    0  502  501  0.00000000000E+00  0.00000000000E+00  0.66000769068E+02  0.66000769068E+02  0.00000000000E+00 0. -1.
         21   -1    0    0  501  502 -0.00000000000E+00 -0.00000000000E+00 -0.79348391286E+03  0.79348391286E+03  0.00000000000E+00 0. -1.
      99926    2    1    2    0    0  0.00000000000E+00  0.00000000000E+00 -0.72748314379E+03  0.85948468192E+03  0.45769224810E+03 0.  0.
      99925    2    3    3    0    0  0.36379000011E+02  0.67015018188E+02 -0.61993432073E+03  0.67774667889E+03  0.26307328718E+03 0.  0.
         25    1    4    4    0    0 -0.66784827004E+01  0.41581028785E+02 -0.38412872461E+03  0.40617233936E+03  0.12509000000E+03 0.  0.
         25    1    4    4    0    0  0.43057482712E+02  0.25433989403E+02 -0.23580559612E+03  0.27157433954E+03  0.12509000000E+03 0.  0.
         25    1    3    3    0    0 -0.36379000011E+02 -0.67015018188E+02 -0.10754882306E+03  0.18173800303E+03  0.12509000000E+03 0.  0.
<mgrwt>
<rscale>  2 0.45769225E+03</rscale>
<asrwt>0</asrwt>
<pdfrwt beam="1">  1       21 0.97059959E-02 0.45769225E+03</pdfrwt>
<pdfrwt beam="2">  1       21 0.11668881E+00 0.45769225E+03</pdfrwt>
<totfact> 0.44079769E+04</totfact>
</mgrwt>
</event>
<event>
 7    0  0.4685107E-002  0.4546863E+03  0.7546771E-02  0.1026334E+00
         21   -1    0    0  502  501  0.00000000000E+00  0.00000000000E+00  0.66076793336E+03  0.66076793336E+03  0.00000000000E+00 0. -1.
         21   -1    0    0  501  502 -0.00000000000E+00 -0.00000000000E+00 -0.78219448784E+02  0.78219448784E+02  0.00000000000E+00 0. -1.
      99926    2    1    2    0    0  0.00000000000E+00  0.71054273576E-14  0.58254848457E+03  0.73898738214E+03  0.45468628095E+03 0.  0.
      99925    2    3    3    0    0  0.26914323530E+02 -0.33565211319E+02  0.53631690922E+03  0.59885933041E+03  0.26295563558E+03 0.  0.
         25    1    3    3    0    0 -0.26914323530E+02  0.33565211319E+02  0.46231575353E+02  0.14012805173E+03  0.12509000000E+03 0.  0.
         25    1    4    4    0    0  0.49409438124E+01  0.74044629621E+01  0.33124768856E+03  0.35419172531E+03  0.12509000000E+03 0.  0.
         25    1    4    4    0    0  0.21973379717E+02 -0.40969674282E+02  0.20506922066E+03  0.24466760510E+03  0.12509000000E+03 0.  0.
<mgrwt>
<rscale>  2 0.45468628E+03</rscale>
<asrwt>0</asrwt>
<pdfrwt beam="1">  1       21 0.97171752E-01 0.45468628E+03</pdfrwt>
<pdfrwt beam="2">  1       21 0.11502860E-01 0.45468628E+03</pdfrwt>
<totfact> 0.50962368E+04</totfact>
</mgrwt>
</event>
<event>
 7    0  0.4685107E-002  0.4557614E+03  0.7546771E-02  0.1026018E+00
         21   -1    0    0  502  501  0.00000000000E+00  0.00000000000E+00  0.55492845335E+03  0.55492845335E+03  0.00000000000E+00 0.  1.
         21   -1    0    0  501  502 -0.00000000000E+00 -0.00000000000E+00 -0.93578950036E+02  0.93578950036E+02  0.00000000000E+00 0.  1.
      99926    2    1    2    0    0  0.00000000000E+00  0.00000000000E+00  0.46134950332E+03  0.64850740339E+03  0.45576143764E+03 0.  0.
      99925    2    3    3    0    0  0.91804889758E+02 -0.40113192163E+02  0.36725050153E+03  0.46265978784E+03  0.26295235773E+03 0.  0.
         25    1    3    3    0    0 -0.91804889758E+02  0.40113192163E+02  0.94099001781E+02  0.18584761555E+03  0.12509000000E+03 0.  0.
         25    1    4    4    0    0  0.38697622752E+02 -0.68443560265E+01  0.11592534550E+03  0.17501584227E+03  0.12509000000E+03 0.  0.
         25    1    4    4    0    0  0.53107267006E+02 -0.33268836136E+02  0.25132515603E+03  0.28764394557E+03  0.12509000000E+03 0.  0.
<mgrwt>
<rscale>  2 0.45576144E+03</rscale>
<asrwt>0</asrwt>
<pdfrwt beam="1">  1       21 0.81607124E-01 0.45576144E+03</pdfrwt>
<pdfrwt beam="2">  1       21 0.13761611E-01 0.45576144E+03</pdfrwt>
<totfact> 0.55453683E+04</totfact>
</mgrwt>
</event>
<event>
 7    0  0.4685107E-002  0.4575630E+03  0.7546771E-02  0.1025490E+00
         21   -1    0    0  502  501  0.00000000000E+00  0.00000000000E+00  0.46749833493E+02  0.46749833493E+02  0.00000000000E+00 0. -1.
         21   -1    0    0  501  502 -0.00000000000E+00 -0.00000000000E+00 -0.11195971923E+04  0.11195971923E+04  0.00000000000E+00 0. -1.
      99926    2    1    2    0    0  0.00000000000E+00  0.14210854715E-13 -0.10728473588E+04  0.11663470258E+04  0.45756303312E+03 0.  0.
      99925    2    3    3    0    0  0.21432565655E+02 -0.10092901789E+03 -0.80067641134E+03  0.84953390381E+03  0.26453566207E+03 0.  0.
         25    1    3    3    0    0 -0.21432565655E+02  0.10092901789E+03 -0.27217094748E+03  0.31681312201E+03  0.12509000000E+03 0.  0.
         25    1    4    4    0    0  0.12933454355E+00 -0.29655511413E+02 -0.26651399208E+03  0.29589978398E+03  0.12509000000E+03 0.  0.
         25    1    4    4    0    0  0.21303231111E+02 -0.71273506477E+02 -0.53416241926E+03  0.55363411983E+03  0.12509000000E+03 0.  0.
<mgrwt>
<rscale>  2 0.45756303E+03</rscale>
<asrwt>0</asrwt>
<pdfrwt beam="1">  1       21 0.68749748E-02 0.45756303E+03</pdfrwt>
<pdfrwt beam="2">  1       21 0.16464666E+00 0.45756303E+03</pdfrwt>
<totfact> 0.32585547E+04</totfact>
</mgrwt>
</event>
<event>
 6    0  0.4685107E-002  0.4552766E+03  0.7546771E-02  0.1026160E+00
         21   -1    0    0  502  501  0.00000000000E+00  0.00000000000E+00  0.10347381951E+04  0.10347381951E+04  0.00000000000E+00 0. -1.
         21   -1    0    0  501  502 -0.00000000000E+00 -0.00000000000E+00 -0.50079518369E+02  0.50079518369E+02  0.00000000000E+00 0. -1.
      99926    2    1    2    0    0  0.00000000000E+00  0.00000000000E+00  0.98465867675E+03  0.10848177135E+04  0.45527657725E+03 0.  0.
         25    1    3    3    0    0  0.21445377059E+02 -0.34896642402E+01  0.42931547811E+03  0.44769562182E+03  0.12509000000E+03 0.  0.
         25    1    3    3    0    0  0.41634946566E+02 -0.17039452003E+02  0.11912404324E+03  0.17849890050E+03  0.12509000000E+03 0.  0.
         25    1    3    3    0    0 -0.63080323625E+02  0.20529116243E+02  0.43621915540E+03  0.45862319117E+03  0.12509000000E+03 0.  0.
<mgrwt>
<rscale>  2 0.45527658E+03</rscale>
<asrwt>0</asrwt>
<pdfrwt beam="1">  1       21 0.15216737E+00 0.45527658E+03</pdfrwt>
<pdfrwt beam="2">  1       21 0.73646357E-02 0.45527658E+03</pdfrwt>
<totfact> 0.35947520E+04</totfact>
</mgrwt>
</event>
<event>
 7    0  0.4685107E-002  0.4512296E+03  0.7546771E-02  0.1027356E+00
         21   -1    0    0  502  501  0.00000000000E+00  0.00000000000E+00  0.25813337634E+03  0.25813337634E+03  0.00000000000E+00 0. -1.
         21   -1    0    0  501  502 -0.00000000000E+00 -0.00000000000E+00 -0.19719276908E+03  0.19719276908E+03  0.00000000000E+00 0. -1.
      99926    2    1    2    0    0  0.00000000000E+00  0.14210854715E-13  0.60940607257E+02  0.45532614542E+03  0.45122958801E+03 0.  0.
      99925    2    3    3    0    0 -0.13798548810E+02 -0.68478653109E+02  0.12371468741E+03  0.29890421883E+03  0.26298038382E+03 0.  0.
         25    1    4    4    0    0  0.39014280531E+01 -0.72671486675E+02  0.78613936914E+02  0.16469373180E+03  0.12509000000E+03 0.  0.
         25    1    3    3    0    0  0.13798548810E+02  0.68478653109E+02 -0.62774080149E+02  0.15642192659E+03  0.12509000000E+03 0.  0.
         25    1    4    4    0    0 -0.17699976863E+02  0.41928335656E+01  0.45100750491E+02  0.13421048703E+03  0.12509000000E+03 0.  0.
<mgrwt>
<rscale>  2 0.45122959E+03</rscale>
<asrwt>0</asrwt>
<pdfrwt beam="1">  1       21 0.37960791E-01 0.45122959E+03</pdfrwt>
<pdfrwt beam="2">  1       21 0.28998937E-01 0.45122959E+03</pdfrwt>
<totfact> 0.70622254E+04</totfact>
</mgrwt>
</event>
<event>
 7    0  0.4685107E-002  0.4551818E+03  0.7546771E-02  0.1026188E+00
         21   -1    0    0  502  501  0.00000000000E+00  0.00000000000E+00  0.15175939480E+03  0.15175939480E+03  0.00000000000E+00 0.  1.
         21   -1    0    0  501  502 -0.00000000000E+00 -0.00000000000E+00 -0.34131412689E+03  0.34131412689E+03  0.00000000000E+00 0.  1.
      99926    2    1    2    0    0  0.00000000000E+00  0.00000000000E+00 -0.18955473208E+03  0.49307352169E+03  0.45518183327E+03 0.  0.
      99925    2    3    3    0    0  0.86153899527E+02 -0.73445259499E+02 -0.11108088302E+03  0.30700269208E+03  0.26285925858E+03 0.  0.
         25    1    4    4    0    0  0.24905192124E+02 -0.11722135634E+02 -0.20355572206E+02  0.12969014796E+03  0.12509000000E+03 0.  0.
         25    1    4    4    0    0  0.61248707403E+02 -0.61723123865E+02 -0.90725310817E+02  0.17731254412E+03  0.12509000000E+03 0.  0.
         25    1    3    3    0    0 -0.86153899527E+02  0.73445259499E+02 -0.78473849059E+02  0.18607082961E+03  0.12509000000E+03 0.  0.
<mgrwt>
<rscale>  2 0.45518183E+03</rscale>
<asrwt>0</asrwt>
<pdfrwt beam="1">  1       21 0.22317559E-01 0.45518183E+03</pdfrwt>
<pdfrwt beam="2">  1       21 0.50193252E-01 0.45518183E+03</pdfrwt>
<totfact> 0.65665214E+04</totfact>
</mgrwt>
</event>
<event>
 7    0  0.4685107E-002  0.4548088E+03  0.7546771E-02  0.1026298E+00
         21   -1    0    0  502  501  0.00000000000E+00  0.00000000000E+00  0.81221036927E+02  0.81221036927E+02  0.00000000000E+00 0.  1.
         21   -1    0    0  501  502 -0.00000000000E+00 -0.00000000000E+00 -0.63669181200E+03  0.63669181200E+03  0.00000000000E+00 0.  1.
      99926    2    1    2    0    0  0.00000000000E+00  0.00000000000E+00 -0.55547077507E+03  0.71791284893E+03  0.45480883533E+03 0.  0.
      99925    2    3    3    0    0 -0.54792188043E+02 -0.64816645055E+02 -0.46726728406E+03  0.54289643463E+03  0.26304836558E+03 0.  0.
         25    1    3    3    0    0  0.54792188043E+02  0.64816645055E+02 -0.88203491015E+02  0.17501641430E+03  0.12509000000E+03 0.  0.
         25    1    4    4    0    0 -0.15915723727E+02 -0.25739653369E+01 -0.16543159029E+03  0.20802657216E+03  0.12509000000E+03 0.  0.
         25    1    4    4    0    0 -0.38876464316E+02 -0.62242679718E+02 -0.30183569377E+03  0.33486986246E+03  0.12509000000E+03 0.  0.
<mgrwt>
<rscale>  2 0.45480884E+03</rscale>
<asrwt>0</asrwt>
<pdfrwt beam="1">  1       21 0.11944270E-01 0.45480884E+03</pdfrwt>
<pdfrwt beam="2">  1       21 0.93631149E-01 0.45480884E+03</pdfrwt>
<totfact> 0.52019387E+04</totfact>
</mgrwt>
</event>
<event>
 7    0  0.4685107E-002  0.4507564E+03  0.7546771E-02  0.1027497E+00
         21   -1    0    0  502  501  0.00000000000E+00  0.00000000000E+00  0.13384395797E+03  0.13384395797E+03  0.00000000000E+00 0.  1.
         21   -1    0    0  501  502 -0.00000000000E+00 -0.00000000000E+00 -0.37951155756E+03  0.37951155756E+03  0.00000000000E+00 0.  1.
      99926    2    1    2    0    0  0.44408920985E-15  0.14210854715E-13 -0.24566759959E+03  0.51335551553E+03  0.45075638191E+03 0.  0.
      99925    2    3    3    0    0  0.31412898740E+01 -0.91439953645E+02 -0.22377668253E+03  0.35683761503E+03  0.26246132484E+03 0.  0.
         25    1    4    4    0    0 -0.52896505315E+01 -0.10392941922E+02 -0.12864742000E+03  0.17981562896E+03  0.12509000000E+03 0.  0.
         25    1    4    4    0    0  0.84309404055E+01 -0.81047011724E+02 -0.95129262526E+02  0.17702198608E+03  0.12509000000E+03 0.  0.
         25    1    3    3    0    0 -0.31412898740E+01  0.91439953645E+02 -0.21890917062E+02  0.15651790049E+03  0.12509000000E+03 0.  0.
<mgrwt>
<rscale>  2 0.45075638E+03</rscale>
<asrwt>0</asrwt>
<pdfrwt beam="1">  1       21 0.19682935E-01 0.45075638E+03</pdfrwt>
<pdfrwt beam="2">  1       21 0.55810522E-01 0.45075638E+03</pdfrwt>
<totfact> 0.66555226E+04</totfact>
</mgrwt>
</event>
<event>
 7    0  0.4685107E-002  0.4523514E+03  0.7546771E-02  0.1027023E+00
         21   -1    0    0  502  501  0.00000000000E+00  0.00000000000E+00  0.77731783180E+03  0.77731783180E+03  0.00000000000E+00 0.  1.
         21   -1    0    0  501  502 -0.00000000000E+00 -0.00000000000E+00 -0.65810218357E+02  0.65810218357E+02  0.00000000000E+00 0.  1.
      99926    2    1    2    0    0  0.14210854715E-13  0.00000000000E+00  0.71150761344E+03  0.84312805016E+03  0.45235143967E+03 0.  0.
      99925    2    3    3    0    0  0.64518423719E+02 -0.69468180536E+02  0.55519030180E+03  0.62160815235E+03  0.26300564394E+03 0.  0.
         25    1    4    4    0    0  0.71306802137E+02 -0.40425160361E+02  0.32951127295E+03  0.36186190836E+03  0.12509000000E+03 0.  0.
         25    1    4    4    0    0 -0.67883784186E+01 -0.29043020175E+02  0.22567902884E+03  0.25974624398E+03  0.12509000000E+03 0.  0.
         25    1    3    3    0    0 -0.64518423719E+02  0.69468180536E+02  0.15631731165E+03  0.22151989781E+03  0.12509000000E+03 0.  0.
<mgrwt>
<rscale>  2 0.45235144E+03</rscale>
<asrwt>0</asrwt>
<pdfrwt beam="1">  1       21 0.11431144E+00 0.45235144E+03</pdfrwt>
<pdfrwt beam="2">  1       21 0.96779737E-02 0.45235144E+03</pdfrwt>
<totfact> 0.46711407E+04</totfact>
</mgrwt>
</event>
<event>
 7    0  0.4685107E-002  0.4505355E+03  0.7546771E-02  0.1027562E+00
         21   -1    0    0  502  501  0.00000000000E+00  0.00000000000E+00  0.89278970982E+02  0.89278970982E+02  0.00000000000E+00 0.  1.
         21   -1    0    0  501  502 -0.00000000000E+00 -0.00000000000E+00 -0.56839316139E+03  0.56839316139E+03  0.00000000000E+00 0.  1.
      99926    2    1    2    0    0  0.00000000000E+00  0.00000000000E+00 -0.47911419040E+03  0.65767213237E+03  0.45053548833E+03 0.  0.
      99925    2    3    3    0    0  0.78518216924E+02  0.78065139029E+01 -0.41217113420E+03  0.49533010786E+03  0.26313650418E+03 0.  0.
         25    1    4    4    0    0  0.43182811630E+02  0.40945464491E+02 -0.17918135203E+03  0.22648344597E+03  0.12509000000E+03 0.  0.
         25    1    3    3    0    0 -0.78518216924E+02 -0.78065139029E+01 -0.66943056206E+02  0.16234202451E+03  0.12509000000E+03 0.  0.
         25    1    4    4    0    0  0.35335405294E+02 -0.33138950588E+02 -0.23298978217E+03  0.26884666189E+03  0.12509000000E+03 0.  0.
<mgrwt>
<rscale>  2 0.45053549E+03</rscale>
<asrwt>0</asrwt>
<pdfrwt beam="1">  1       21 0.13129260E-01 0.45053549E+03</pdfrwt>
<pdfrwt beam="2">  1       21 0.83587233E-01 0.45053549E+03</pdfrwt>
<totfact> 0.57250606E+04</totfact>
</mgrwt>
</event>
<event>
 7    0  0.4685107E-002  0.4605476E+03  0.7546771E-02  0.1024623E+00
         21   -1    0    0  502  501  0.00000000000E+00  0.00000000000E+00  0.13602244844E+04  0.13602244844E+04  0.00000000000E+00 0. -1.
         21   -1    0    0  501  502 -0.00000000000E+00 -0.00000000000E+00 -0.38983282319E+02  0.38983282319E+02  0.00000000000E+00 0. -1.
      99926    2    1    2    0    0  0.17763568394E-14  0.35527136788E-14  0.13212412021E+04  0.13992077667E+04  0.46054756581E+03 0.  0.
      99925    2    3    3    0    0 -0.13139122238E+02  0.87938167127E+01  0.47102504523E+03  0.53969337521E+03  0.26297220055E+03 0.  0.
         25    1    3    3    0    0  0.13139122238E+02 -0.87938167127E+01  0.85021615688E+03  0.85951439154E+03  0.12509000000E+03 0.  0.
         25    1    4    4    0    0  0.88706670044E+01  0.41828629699E+02  0.23910425483E+03  0.27321543839E+03  0.12509000000E+03 0.  0.
         25    1    4    4    0    0 -0.22009789243E+02 -0.33034812986E+02  0.23192079040E+03  0.26647793682E+03  0.12509000000E+03 0.  0.
<mgrwt>
<rscale>  2 0.46054757E+03</rscale>
<asrwt>0</asrwt>
<pdfrwt beam="1">  1       21 0.20003298E+00 0.46054757E+03</pdfrwt>
<pdfrwt beam="2">  1       21 0.57328365E-02 0.46054757E+03</pdfrwt>
<totfact> 0.25247028E+04</totfact>
</mgrwt>
</event>
<event>
 7    0  0.4685107E-002  0.4688566E+03  0.7546771E-02  0.1022243E+00
         21   -1    0    0  502  501  0.00000000000E+00  0.00000000000E+00  0.59141597230E+03  0.59141597230E+03  0.00000000000E+00 0. -1.
         21   -1    0    0  501  502 -0.00000000000E+00 -0.00000000000E+00 -0.92923831534E+02  0.92923831534E+02  0.00000000000E+00 0. -1.
      99926    2    1    2    0    0  0.35527136788E-14  0.00000000000E+00  0.49849214077E+03  0.68433980384E+03  0.46885664409E+03 0.  0.
      99925    2    3    3    0    0  0.29235453998E+02 -0.26147109422E+02  0.48423802269E+03  0.55247217671E+03  0.26306018383E+03 0.  0.
         25    1    4    4    0    0  0.51304402878E+02 -0.15331009721E+02  0.28700890638E+03  0.31762997663E+03  0.12509000000E+03 0.  0.
         25    1    4    4    0    0 -0.22068948880E+02 -0.10816099700E+02  0.19722911632E+03  0.23484220008E+03  0.12509000000E+03 0.  0.
         25    1    3    3    0    0 -0.29235453998E+02  0.26147109422E+02  0.14254118079E+02  0.13186762713E+03  0.12509000000E+03 0.  0.
<mgrwt>
<rscale>  2 0.46885664E+03</rscale>
<asrwt>0</asrwt>
<pdfrwt beam="1">  1       21 0.86972935E-01 0.46885664E+03</pdfrwt>
<pdfrwt beam="2">  1       21 0.13665270E-01 0.46885664E+03</pdfrwt>
<totfact> 0.48271637E+04</totfact>
</mgrwt>
</event>
<event>
 7    0  0.4685107E-002  0.4621983E+03  0.7546771E-02  0.1024146E+00
         21   -1    0    0  502  501  0.00000000000E+00  0.00000000000E+00  0.69828476896E+02  0.69828476896E+02  0.00000000000E+00 0.  1.
         21   -1    0    0  501  502 -0.00000000000E+00 -0.00000000000E+00 -0.76482855254E+03  0.76482855254E+03  0.00000000000E+00 0.  1.
      99926    2    1    2    0    0  0.17763568394E-14  0.00000000000E+00 -0.69500007564E+03  0.83465702944E+03  0.46219828174E+03 0.  0.
      99925    2    3    3    0    0 -0.10459971667E+02  0.76150851102E+02 -0.60049044268E+03  0.66004906297E+03  0.26299739665E+03 0.  0.
         25    1    3    3    0    0  0.10459971667E+02 -0.76150851102E+02 -0.94509632967E+02  0.17460796647E+03  0.12509000000E+03 0.  0.
         25    1    4    4    0    0 -0.43080978728E+02  0.53597406706E+02 -0.31764458166E+03  0.34824451337E+03  0.12509000000E+03 0.  0.
         25    1    4    4    0    0  0.32621007061E+02  0.22553444397E+02 -0.28284586102E+03  0.31180454960E+03  0.12509000000E+03 0.  0.
<mgrwt>
<rscale>  2 0.46219828E+03</rscale>
<asrwt>0</asrwt>
<pdfrwt beam="1">  1       21 0.10268894E-01 0.46219828E+03</pdfrwt>
<pdfrwt beam="2">  1       21 0.11247478E+00 0.46219828E+03</pdfrwt>
<totfact> 0.43617669E+04</totfact>
</mgrwt>
</event>
<event>
 7    0  0.4685107E-002  0.4604766E+03  0.7546771E-02  0.1024643E+00
         21   -1    0    0  502  501  0.00000000000E+00  0.00000000000E+00  0.33741276642E+03  0.33741276642E+03  0.00000000000E+00 0. -1.
         21   -1    0    0  501  502 -0.00000000000E+00 -0.00000000000E+00 -0.15710627720E+03  0.15710627720E+03  0.00000000000E+00 0. -1.
      99926    2    1    2    0    0 -0.14210854715E-13  0.00000000000E+00  0.18030648922E+03  0.49451904362E+03  0.46047655147E+03 0.  0.
      99925    2    3    3    0    0  0.77250603642E+02  0.69369771785E+02  0.50601855785E+02  0.28655120709E+03  0.26224268431E+03 0.  0.
         25    1    3    3    0    0 -0.77250603642E+02 -0.69369771785E+02  0.12970463343E+03  0.20796783654E+03  0.12509000000E+03 0.  0.
         25    1    4    4    0    0  0.20301670687E+02  0.60049790337E+00  0.75758333130E+01  0.12695440040E+03  0.12509000000E+03 0.  0.
         25    1    4    4    0    0  0.56948932954E+02  0.68769273881E+02  0.43026022472E+02  0.15959680669E+03  0.12509000000E+03 0.  0.
<mgrwt>
<rscale>  2 0.46047655E+03</rscale>
<asrwt>0</asrwt>
<pdfrwt beam="1">  1       21 0.49619525E-01 0.46047655E+03</pdfrwt>
<pdfrwt beam="2">  1       21 0.23103864E-01 0.46047655E+03</pdfrwt>
<totfact> 0.62878912E+04</totfact>
</mgrwt>
</event>
<event>
 6    0  0.4685107E-002  0.4539951E+03  0.7546771E-02  0.1026537E+00
         21   -1    0    0  502  501  0.00000000000E+00  0.00000000000E+00  0.25932567129E+03  0.25932567129E+03  0.00000000000E+00 0. -1.
         21   -1    0    0  501  502 -0.00000000000E+00 -0.00000000000E+00 -0.19869954419E+03  0.19869954419E+03  0.00000000000E+00 0. -1.
      99926    2    1    2    0    0 -0.44408920985E-15  0.00000000000E+00  0.60626127106E+02  0.45802521548E+03  0.45399512192E+03 0.  0.
         25    1    3    3    0    0 -0.77918958173E+01 -0.79358525209E+02  0.54781445307E+00  0.14834519663E+03  0.12509000000E+03 0.  0.
         25    1    3    3    0    0 -0.57021294666E+00  0.11606007850E+03  0.14208840270E+02  0.17122986365E+03  0.12509000000E+03 0.  0.
         25    1    3    3    0    0  0.83621087640E+01 -0.36701553294E+02  0.45869472383E+02  0.13845015520E+03  0.12509000000E+03 0.  0.
<mgrwt>
<rscale>  2 0.45399512E+03</rscale>
<asrwt>0</asrwt>
<pdfrwt beam="1">  1       21 0.38136128E-01 0.45399512E+03</pdfrwt>
<pdfrwt beam="2">  1       21 0.29220521E-01 0.45399512E+03</pdfrwt>
<totfact> 0.68875013E+04</totfact>
</mgrwt>
</event>
<event>
 7    0  0.4685107E-002  0.4146901E+03  0.7546771E-02  0.1038808E+00
         21   -1    0    0  502  501  0.00000000000E+00  0.00000000000E+00  0.43875364232E+03  0.43875364232E+03  0.00000000000E+00 0.  1.
         21   -1    0    0  501  502 -0.00000000000E+00 -0.00000000000E+00 -0.97986573804E+02  0.97986573804E+02  0.00000000000E+00 0.  1.
      99926    2    1    2    0    0 -0.35527136788E-14  0.71054273576E-14  0.34076706851E+03  0.53674021612E+03  0.41469008262E+03 0.  0.
      99925    2    3    3    0    0 -0.20682058472E+02  0.62096924432E+02  0.25105524588E+03  0.36946949308E+03  0.26304979427E+03 0.  0.
         25    1    4    4    0    0 -0.21906361644E+02  0.39660056217E+02  0.18010090851E+03  0.22391215708E+03  0.12509000000E+03 0.  0.
         25    1    3    3    0    0  0.20682058472E+02 -0.62096924432E+02  0.89711822631E+02  0.16727072304E+03  0.12509000000E+03 0.  0.
         25    1    4    4    0    0  0.12243031724E+01  0.22436868215E+02  0.70954337372E+02  0.14555733601E+03  0.12509000000E+03 0.  0.
<mgrwt>
<rscale>  2 0.41469008E+03</rscale>
<asrwt>0</asrwt>
<pdfrwt beam="1">  1       21 0.64522594E-01 0.41469008E+03</pdfrwt>
<pdfrwt beam="2">  1       21 0.14409790E-01 0.41469008E+03</pdfrwt>
<totfact> 0.87500993E+04</totfact>
</mgrwt>
</event>
<event>
 7    0  0.4685107E-002  0.4849820E+03  0.7546771E-02  0.1017775E+00
         21   -1    0    0  502  501  0.00000000000E+00  0.00000000000E+00  0.58810794656E+02  0.58810794656E+02  0.00000000000E+00 0.  1.
         21   -1    0    0  501  502 -0.00000000000E+00 -0.00000000000E+00 -0.99984831543E+03  0.99984831543E+03  0.00000000000E+00 0.  1.
      99926    2    1    2    0    0 -0.71054273576E-14  0.17763568394E-14 -0.94103752077E+03  0.10586591101E+04  0.48498195416E+03 0.  0.
      99925    2    3    3    0    0 -0.51064975596E+02  0.15058562486E+02 -0.30001409116E+03  0.40337830199E+03  0.26433162427E+03 0.  0.
         25    1    4    4    0    0 -0.36814439363E+02  0.47874400083E+02 -0.14113529066E+03  0.19802509815E+03  0.12509000000E+03 0.  0.
         25    1    4    4    0    0 -0.14250536233E+02 -0.32815837597E+02 -0.15887880050E+03  0.20535320384E+03  0.12509000000E+03 0.  0.
         25    1    3    3    0    0  0.51064975596E+02 -0.15058562486E+02 -0.64102342961E+03  0.65528080809E+03  0.12509000000E+03 0.  0.
<mgrwt>
<rscale>  2 0.48498195E+03</rscale>
<asrwt>0</asrwt>
<pdfrwt beam="1">  1       21 0.86486465E-02 0.48498195E+03</pdfrwt>
<pdfrwt beam="2">  1       21 0.14703651E+00 0.48498195E+03</pdfrwt>
<totfact> 0.29443635E+04</totfact>
</mgrwt>
</event>
<event>
 7    0  0.4685107E-002  0.4527013E+03  0.7546771E-02  0.1026920E+00
         21   -1    0    0  502  501  0.00000000000E+00  0.00000000000E+00  0.25177422264E+03  0.25177422264E+03  0.00000000000E+00 0.  1.
         21   -1    0    0  501  502 -0.00000000000E+00 -0.00000000000E+00 -0.20349432064E+03  0.20349432064E+03  0.00000000000E+00 0.  1.
      99926    2    1    2    0    0  0.71054273576E-14  0.13322676296E-14  0.48279901997E+02  0.45526854328E+03  0.45270133373E+03 0.  0.
      99925    2    3    3    0    0  0.41983837559E+02  0.28839598898E+01  0.13377502531E+03  0.29801752086E+03  0.26295955108E+03 0.  0.
         25    1    4    4    0    0  0.50972526902E+02  0.28163639035E+02  0.61360793310E+02  0.15101007952E+03  0.12509000000E+03 0.  0.
         25    1    3    3    0    0 -0.41983837559E+02 -0.28839598898E+01 -0.85495123310E+02  0.15725102241E+03  0.12509000000E+03 0.  0.
         25    1    4    4    0    0 -0.89886893432E+01 -0.25279679145E+02  0.72414231997E+02  0.14700744134E+03  0.12509000000E+03 0.  0.
<mgrwt>
<rscale>  2 0.45270133E+03</rscale>
<asrwt>0</asrwt>
<pdfrwt beam="1">  1       21 0.37025621E-01 0.45270133E+03</pdfrwt>
<pdfrwt beam="2">  1       21 0.29925635E-01 0.45270133E+03</pdfrwt>
<totfact> 0.69797409E+04</totfact>
</mgrwt>
</event>
<event>
 7    0  0.4685107E-002  0.4506318E+03  0.7546771E-02  0.1027534E+00
         21   -1    0    0  502  501  0.00000000000E+00  0.00000000000E+00  0.17323280477E+03  0.17323280477E+03  0.00000000000E+00 0. -1.
         21   -1    0    0  501  502 -0.00000000000E+00 -0.00000000000E+00 -0.29305800748E+03  0.29305800748E+03  0.00000000000E+00 0. -1.
      99926    2    1    2    0    0  0.00000000000E+00 -0.14210854715E-13 -0.11982520270E+03  0.46629081225E+03  0.45063182576E+03 0.  0.
      99925    2    3    3    0    0 -0.86330545240E+02 -0.59774971057E+02 -0.10625885933E+03  0.30240803714E+03  0.26293281563E+03 0.  0.
         25    1    3    3    0    0  0.86330545240E+02  0.59774971057E+02 -0.13566343378E+02  0.16388277511E+03  0.12509000000E+03 0.  0.
         25    1    4    4    0    0 -0.43667863588E+02  0.10360426116E+02 -0.59867608158E+02  0.14575959435E+03  0.12509000000E+03 0.  0.
         25    1    4    4    0    0 -0.42662681652E+02 -0.70135397173E+02 -0.46391251169E+02  0.15664844279E+03  0.12509000000E+03 0.  0.
<mgrwt>
<rscale>  2 0.45063183E+03</rscale>
<asrwt>0</asrwt>
<pdfrwt beam="1">  1       21 0.25475413E-01 0.45063183E+03</pdfrwt>
<pdfrwt beam="2">  1       21 0.43096766E-01 0.45063183E+03</pdfrwt>
<totfact> 0.70110769E+04</totfact>
</mgrwt>
</event>
<event>
 7    0  0.4685107E-002  0.4548799E+03  0.7546771E-02  0.1026277E+00
         21   -1    0    0  502  501  0.00000000000E+00  0.00000000000E+00  0.15316911739E+03  0.15316911739E+03  0.00000000000E+00 0.  1.
         21   -1    0    0  501  502 -0.00000000000E+00 -0.00000000000E+00 -0.33772426645E+03  0.33772426645E+03  0.00000000000E+00 0.  1.
      99926    2    1    2    0    0  0.00000000000E+00  0.00000000000E+00 -0.18455514905E+03  0.49089338384E+03  0.45487988662E+03 0.  0.
      99925    2    3    3    0    0  0.59093939893E+02 -0.95885909566E+02 -0.10612719041E+03  0.30519294177E+03  0.26304666844E+03 0.  0.
         25    1    4    4    0    0  0.39963027301E+02 -0.23415581996E+02 -0.17465129626E+02  0.13452833116E+03  0.12509000000E+03 0.  0.
         25    1    4    4    0    0  0.19130912591E+02 -0.72470327570E+02 -0.88662060783E+02  0.17066461062E+03  0.12509000000E+03 0.  0.
         25    1    3    3    0    0 -0.59093939893E+02  0.95885909566E+02 -0.78427958645E+02  0.18570044206E+03  0.12509000000E+03 0.  0.
<mgrwt>
<rscale>  2 0.45487989E+03</rscale>
<asrwt>0</asrwt>
<pdfrwt beam="1">  1       21 0.22524870E-01 0.45487989E+03</pdfrwt>
<pdfrwt beam="2">  1       21 0.49665333E-01 0.45487989E+03</pdfrwt>
<totfact> 0.65978171E+04</totfact>
</mgrwt>
</event>
<event>
 7    0  0.4685107E-002  0.4571515E+03  0.7546771E-02  0.1025611E+00
         21   -1    0    0  502  501  0.00000000000E+00  0.00000000000E+00  0.73629743720E+02  0.73629743720E+02  0.00000000000E+00 0. -1.
         21   -1    0    0  501  502 -0.00000000000E+00 -0.00000000000E+00 -0.70958937797E+03  0.70958937797E+03  0.00000000000E+00 0. -1.
      99926    2    1    2    0    0 -0.14210854715E-13  0.00000000000E+00 -0.63595963425E+03  0.78321912169E+03  0.45715154619E+03 0.  0.
      99925    2    3    3    0    0 -0.96090667323E+02  0.40148913364E+02 -0.48380055626E+03  0.56040699297E+03  0.26295944162E+03 0.  0.
         25    1    4    4    0    0 -0.11699634249E+02  0.18325922216E+02 -0.26349236114E+03  0.29248667208E+03  0.12509000000E+03 0.  0.
         25    1    3    3    0    0  0.96090667323E+02 -0.40148913364E+02 -0.15215907799E+03  0.22281212872E+03  0.12509000000E+03 0.  0.
         25    1    4    4    0    0 -0.84391033074E+02  0.21822991148E+02 -0.22030819512E+03  0.26792032088E+03  0.12509000000E+03 0.  0.
<mgrwt>
<rscale>  2 0.45715155E+03</rscale>
<asrwt>0</asrwt>
<pdfrwt beam="1">  1       21 0.10827903E-01 0.45715155E+03</pdfrwt>
<pdfrwt beam="2">  1       21 0.10435139E+00 0.45715155E+03</pdfrwt>
<totfact> 0.47775308E+04</totfact>
</mgrwt>
</event>
<event>
 7    0  0.4685107E-002  0.4392199E+03  0.7546771E-02  0.1030986E+00
         21   -1    0    0  502  501  0.00000000000E+00  0.00000000000E+00  0.46266598178E+02  0.46266598178E+02  0.00000000000E+00 0. -1.
         21   -1    0    0  501  502 -0.00000000000E+00 -0.00000000000E+00 -0.10424050111E+04  0.10424050111E+04  0.00000000000E+00 0. -1.
      99926    2    1    2    0    0  0.00000000000E+00  0.00000000000E+00 -0.99613841295E+03  0.10886716093E+04  0.43921991662E+03 0.  0.
      99925    2    3    3    0    0  0.91196883080E+02 -0.24725501337E+02 -0.57654017354E+03  0.64074481560E+03  0.26311048082E+03 0.  0.
         25    1    3    3    0    0 -0.91196883080E+02  0.24725501337E+02 -0.41959823941E+03  0.44792679370E+03  0.12509000000E+03 0.  0.
         25    1    4    4    0    0  0.36797938287E+02 -0.12747461272E+01 -0.19234140759E+03  0.23237564075E+03  0.12509000000E+03 0.  0.
         25    1    4    4    0    0  0.54398944794E+02 -0.23450755210E+02 -0.38419876595E+03  0.40836917486E+03  0.12509000000E+03 0.  0.
<mgrwt>
<rscale>  2 0.43921992E+03</rscale>
<asrwt>0</asrwt>
<pdfrwt beam="1">  1       21 0.68039115E-02 0.43921992E+03</pdfrwt>
<pdfrwt beam="2">  1       21 0.15329486E+00 0.43921992E+03</pdfrwt>
<totfact> 0.40670697E+04</totfact>
</mgrwt>
</event>
<event>
 7    0  0.4685107E-002  0.4627668E+03  0.7546771E-02  0.1023982E+00
         21   -1    0    0  502  501  0.00000000000E+00  0.00000000000E+00  0.35986204888E+03  0.35986204888E+03  0.00000000000E+00 0. -1.
         21   -1    0    0  501  502 -0.00000000000E+00 -0.00000000000E+00 -0.14877445677E+03  0.14877445677E+03  0.00000000000E+00 0. -1.
      99926    2    1    2    0    0 -0.88817841970E-15 -0.35527136788E-14  0.21108759212E+03  0.50863650565E+03  0.46276681313E+03 0.  0.
      99925    2    3    3    0    0  0.79405540428E+01  0.30044765167E+02  0.41476703487E+01  0.26483868033E+03  0.26297639269E+03 0.  0.
         25    1    3    3    0    0 -0.79405540428E+01 -0.30044765167E+02  0.20693992177E+03  0.24379782533E+03  0.12509000000E+03 0.  0.
         25    1    4    4    0    0  0.28557667216E+02 -0.50847994524E+01 -0.23156283812E+02  0.13048033232E+03  0.12509000000E+03 0.  0.
         25    1    4    4    0    0 -0.20617113173E+02  0.35129564619E+02  0.27303954161E+02  0.13435834801E+03  0.12509000000E+03 0.  0.
<mgrwt>
<rscale>  2 0.46276681E+03</rscale>
<asrwt>0</asrwt>
<pdfrwt beam="1">  1       21 0.52920889E-01 0.46276681E+03</pdfrwt>
<pdfrwt beam="2">  1       21 0.21878597E-01 0.46276681E+03</pdfrwt>
<totfact> 0.60830585E+04</totfact>
</mgrwt>
</event>
<event>
 7    0  0.4685107E-002  0.4478263E+03  0.7546771E-02  0.1028372E+00
         21   -1    0    0  502  501  0.00000000000E+00  0.00000000000E+00  0.49854191774E+02  0.49854191774E+02  0.00000000000E+00 0.  1.
         21   -1    0    0  501  502 -0.00000000000E+00 -0.00000000000E+00 -0.10056744742E+04  0.10056744742E+04  0.00000000000E+00 0.  1.
      99926    2    1    2    0    0  0.00000000000E+00  0.71054273576E-14 -0.95582028244E+03  0.10555286660E+04  0.44782625247E+03 0.  0.
      99925    2    3    3    0    0 -0.88555023037E+02 -0.54259000898E+02 -0.55511025961E+03  0.62309131587E+03  0.26326670185E+03 0.  0.
         25    1    4    4    0    0 -0.11185337136E+02 -0.46613779925E+02 -0.22983669506E+03  0.26602701130E+03  0.12509000000E+03 0.  0.
         25    1    4    4    0    0 -0.77369685901E+02 -0.76452209729E+01 -0.32527356455E+03  0.35706430457E+03  0.12509000000E+03 0.  0.
         25    1    3    3    0    0  0.88555023037E+02  0.54259000898E+02 -0.40071002282E+03  0.43243735012E+03  0.12509000000E+03 0.  0.
<mgrwt>
<rscale>  2 0.44782625E+03</rscale>
<asrwt>0</asrwt>
<pdfrwt beam="1">  1       21 0.73314987E-02 0.44782625E+03</pdfrwt>
<pdfrwt beam="2">  1       21 0.14789331E+00 0.44782625E+03</pdfrwt>
<totfact> 0.39225802E+04</totfact>
</mgrwt>
</event>
<event>
 7    0  0.4685107E-002  0.4587854E+03  0.7546771E-02  0.1025134E+00
         21   -1    0    0  502  501  0.00000000000E+00  0.00000000000E+00  0.16298928755E+03  0.16298928755E+03  0.00000000000E+00 0. -1.
         21   -1    0    0  501  502 -0.00000000000E+00 -0.00000000000E+00 -0.32284953353E+03  0.32284953353E+03  0.00000000000E+00 0. -1.
      99926    2    1    2    0    0  0.00000000000E+00  0.00000000000E+00 -0.15986024598E+03  0.48583882108E+03  0.45878542024E+03 0.  0.
      99925    2    3    3    0    0  0.41663553178E+02 -0.91620127568E+02 -0.38104070596E+02  0.28433901021E+03  0.26318558679E+03 0.  0.
         25    1    3    3    0    0 -0.41663553178E+02  0.91620127568E+02 -0.12175617538E+03  0.20149981087E+03  0.12509000000E+03 0.  0.
         25    1    4    4    0    0  0.33608169687E+02 -0.14558874402E+02 -0.42604083583E+02  0.13712799106E+03  0.12509000000E+03 0.  0.
         25    1    4    4    0    0  0.80553834909E+01 -0.77061253167E+02  0.45000129868E+01  0.14721101915E+03  0.12509000000E+03 0.  0.
<mgrwt>
<rscale>  2 0.45878542E+03</rscale>
<asrwt>0</asrwt>
<pdfrwt beam="1">  1       21 0.23969013E-01 0.45878542E+03</pdfrwt>
<pdfrwt beam="2">  1       21 0.47477872E-01 0.45878542E+03</pdfrwt>
<totfact> 0.64322782E+04</totfact>
</mgrwt>
</event>
<event>
 7    0  0.4685107E-002  0.4535550E+03  0.7546771E-02  0.1026667E+00
         21   -1    0    0  502  501  0.00000000000E+00  0.00000000000E+00  0.46706045865E+03  0.46706045865E+03  0.00000000000E+00 0. -1.
         21   -1    0    0  501  502 -0.00000000000E+00 -0.00000000000E+00 -0.11011000031E+03  0.11011000031E+03  0.00000000000E+00 0. -1.
      99926    2    1    2    0    0 -0.71054273576E-14  0.00000000000E+00  0.35695045834E+03  0.57717045896E+03  0.45355496799E+03 0.  0.
      99925    2    3    3    0    0  0.55462818214E+02 -0.91127731848E+02  0.18288719371E+03  0.33774214837E+03  0.26313807298E+03 0.  0.
         25    1    4    4    0    0 -0.86451387407E+01 -0.59617201515E+02  0.10428607375E+03  0.17364343471E+03  0.12509000000E+03 0.  0.
         25    1    4    4    0    0  0.64107956955E+02 -0.31510530334E+02  0.78601119964E+02  0.16409871366E+03  0.12509000000E+03 0.  0.
         25    1    3    3    0    0 -0.55462818214E+02  0.91127731848E+02  0.17406326463E+03  0.23942831058E+03  0.12509000000E+03 0.  0.
<mgrwt>
<rscale>  2 0.45355497E+03</rscale>
<asrwt>0</asrwt>
<pdfrwt beam="1">  1       21 0.68685361E-01 0.45355497E+03</pdfrwt>
<pdfrwt beam="2">  1       21 0.16192647E-01 0.45355497E+03</pdfrwt>
<totfact> 0.60797590E+04</totfact>
</mgrwt>
</event>
<event>
 7    0  0.4685107E-002  0.4565853E+03  0.7546771E-02  0.1025776E+00
         21   -1    0    0  502  501  0.00000000000E+00  0.00000000000E+00  0.86776626775E+02  0.86776626775E+02  0.00000000000E+00 0.  1.
         21   -1    0    0  501  502 -0.00000000000E+00 -0.00000000000E+00 -0.60059424941E+03  0.60059424941E+03  0.00000000000E+00 0.  1.
      99926    2    1    2    0    0  0.00000000000E+00  0.00000000000E+00 -0.51381762264E+03  0.68737087619E+03  0.45658533934E+03 0.  0.
      99925    2    3    3    0    0 -0.42773841300E+02  0.48873459764E+02 -0.18067630509E+03  0.32564050405E+03  0.26302014008E+03 0.  0.
         25    1    4    4    0    0 -0.43294851003E+02 -0.95466190639E+01 -0.83221154669E+02  0.15664881341E+03  0.12509000000E+03 0.  0.
         25    1    4    4    0    0  0.52100970231E+00  0.58420078828E+02 -0.97455150422E+02  0.16899169064E+03  0.12509000000E+03 0.  0.
         25    1    3    3    0    0  0.42773841300E+02 -0.48873459764E+02 -0.33314131755E+03  0.36173037214E+03  0.12509000000E+03 0.  0.
<mgrwt>
<rscale>  2 0.45658534E+03</rscale>
<asrwt>0</asrwt>
<pdfrwt beam="1">  1       21 0.12761269E-01 0.45658534E+03</pdfrwt>
<pdfrwt beam="2">  1       21 0.88322681E-01 0.45658534E+03</pdfrwt>
<totfact> 0.52930469E+04</totfact>
</mgrwt>
</event>
<event>
 7    0  0.4685107E-002  0.4551507E+03  0.7546771E-02  0.1026197E+00
         21   -1    0    0  502  501  0.00000000000E+00  0.00000000000E+00  0.52180406474E+02  0.52180406474E+02  0.00000000000E+00 0.  1.
         21   -1    0    0  501  502 -0.00000000000E+00 -0.00000000000E+00 -0.99252848085E+03  0.99252848085E+03  0.00000000000E+00 0.  1.
      99926    2    1    2    0    0  0.00000000000E+00  0.00000000000E+00 -0.94034807437E+03  0.10447088873E+04  0.45515069842E+03 0.  0.
      99925    2    3    3    0    0 -0.53998810062E+02  0.58725258351E+02 -0.77649374197E+03  0.82366527668E+03  0.26290193845E+03 0.  0.
         25    1    4    4    0    0 -0.46624877545E+02  0.75353972176E+01 -0.30272244955E+03  0.33093662683E+03  0.12509000000E+03 0.  0.
         25    1    3    3    0    0  0.53998810062E+02 -0.58725258351E+02 -0.16385433241E+03  0.22104361064E+03  0.12509000000E+03 0.  0.
         25    1    4    4    0    0 -0.73739325174E+01  0.51189861133E+02 -0.47377129242E+03  0.49272864985E+03  0.12509000000E+03 0.  0.
<mgrwt>
<rscale>  2 0.45515070E+03</rscale>
<asrwt>0</asrwt>
<pdfrwt beam="1">  1       21 0.76735895E-02 0.45515070E+03</pdfrwt>
<pdfrwt beam="2">  1       21 0.14596006E+00 0.45515070E+03</pdfrwt>
<totfact> 0.37428091E+04</totfact>
</mgrwt>
</event>
<event>
 7    0  0.4685107E-002  0.4473959E+03  0.7546771E-02  0.1028501E+00
         21   -1    0    0  502  501  0.00000000000E+00  0.00000000000E+00  0.11327735274E+04  0.11327735274E+04  0.00000000000E+00 0. -1.
         21   -1    0    0  501  502 -0.00000000000E+00 -0.00000000000E+00 -0.44175446562E+02  0.44175446562E+02  0.00000000000E+00 0. -1.
      99926    2    1    2    0    0 -0.22204460493E-15  0.14210854715E-13  0.10885980808E+04  0.11769489739E+04  0.44739591605E+03 0.  0.
      99925    2    3    3    0    0  0.11068508707E+01 -0.94688024159E+02  0.56524505114E+03  0.63058558863E+03  0.26300032264E+03 0.  0.
         25    1    4    4    0    0  0.34568745183E+02 -0.38370775357E+02  0.32274098069E+03  0.34996651735E+03  0.12509000000E+03 0.  0.
         25    1    4    4    0    0 -0.33461894312E+02 -0.56317248802E+02  0.24250407044E+03  0.28061907128E+03  0.12509000000E+03 0.  0.
         25    1    3    3    0    0 -0.11068508707E+01  0.94688024159E+02  0.52335302966E+03  0.54636338530E+03  0.12509000000E+03 0.  0.
<mgrwt>
<rscale>  2 0.44739592E+03</rscale>
<asrwt>0</asrwt>
<pdfrwt beam="1">  1       21 0.16658432E+00 0.44739592E+03</pdfrwt>
<pdfrwt beam="2">  1       21 0.64963899E-02 0.44739592E+03</pdfrwt>
<totfact> 0.34918670E+04</totfact>
</mgrwt>
</event>
<event>
 7    0  0.4685107E-002  0.4535380E+03  0.7546771E-02  0.1026672E+00
         21   -1    0    0  502  501  0.00000000000E+00  0.00000000000E+00  0.50923963622E+03  0.50923963622E+03  0.00000000000E+00 0.  1.
         21   -1    0    0  501  502 -0.00000000000E+00 -0.00000000000E+00 -0.10098229702E+03  0.10098229702E+03  0.00000000000E+00 0.  1.
      99926    2    1    2    0    0 -0.17763568394E-14  0.00000000000E+00  0.40825733920E+03  0.61022193324E+03  0.45353803897E+03 0.  0.
      99925    2    3    3    0    0 -0.15384687557E+02 -0.10622533573E+03  0.29952302325E+03  0.41276011382E+03  0.26293793857E+03 0.  0.
         25    1    3    3    0    0  0.15384687557E+02  0.10622533573E+03  0.10873431595E+03  0.19746181942E+03  0.12509000000E+03 0.  0.
         25    1    4    4    0    0  0.27383918622E+02 -0.72782709065E+02  0.16570153027E+03  0.22170184251E+03  0.12509000000E+03 0.  0.
         25    1    4    4    0    0 -0.42768606179E+02 -0.33442626665E+02  0.13382149298E+03  0.19105827131E+03  0.12509000000E+03 0.  0.
<mgrwt>
<rscale>  2 0.45353804E+03</rscale>
<asrwt>0</asrwt>
<pdfrwt beam="1">  1       21 0.74888181E-01 0.45353804E+03</pdfrwt>
<pdfrwt beam="2">  1       21 0.14850338E-01 0.45353804E+03</pdfrwt>
<totfact> 0.58728706E+04</totfact>
</mgrwt>
</event>
<event>
 7    0  0.4685107E-002  0.5334626E+03  0.7546771E-02  0.1005396E+00
         21   -1    0    0  502  501  0.00000000000E+00  0.00000000000E+00  0.52512229483E+03  0.52512229483E+03  0.00000000000E+00 0.  1.
         21   -1    0    0  501  502 -0.00000000000E+00 -0.00000000000E+00 -0.13548384891E+03  0.13548384891E+03  0.00000000000E+00 0.  1.
      99926    2    1    2    0    0  0.00000000000E+00  0.00000000000E+00  0.38963844591E+03  0.66060614374E+03  0.53346261220E+03 0.  0.
      99925    2    3    3    0    0  0.99032557628E+02 -0.12974543840E+03  0.31583758201E+03  0.44212181509E+03  0.26282502717E+03 0.  0.
         25    1    4    4    0    0  0.88468407070E+02 -0.54686200621E+02  0.17806096639E+03  0.24118552079E+03  0.12509000000E+03 0.  0.
         25    1    3    3    0    0 -0.99032557628E+02  0.12974543840E+03  0.73800863900E+02  0.21848432865E+03  0.12509000000E+03 0.  0.
         25    1    4    4    0    0  0.10564150558E+02 -0.75059237776E+02  0.13777661563E+03  0.20093629430E+03  0.12509000000E+03 0.  0.
<mgrwt>
<rscale>  2 0.53346261E+03</rscale>
<asrwt>0</asrwt>
<pdfrwt beam="1">  1       21 0.77223866E-01 0.53346261E+03</pdfrwt>
<pdfrwt beam="2">  1       21 0.19924096E-01 0.53346261E+03</pdfrwt>
<totfact> 0.30976523E+04</totfact>
</mgrwt>
</event>
<event>
 7    0  0.4685107E-002  0.4526094E+03  0.7546771E-02  0.1026947E+00
         21   -1    0    0  502  501  0.00000000000E+00  0.00000000000E+00  0.17460022697E+03  0.17460022697E+03  0.00000000000E+00 0.  1.
         21   -1    0    0  501  502 -0.00000000000E+00 -0.00000000000E+00 -0.29332042173E+03  0.29332042173E+03  0.00000000000E+00 0.  1.
      99926    2    1    2    0    0  0.00000000000E+00  0.71054273576E-14 -0.11872019476E+03  0.46792064870E+03  0.45260937776E+03 0.  0.
      99925    2    3    3    0    0  0.19319075133E+02  0.42935492278E+02 -0.17872471864E+03  0.32141217063E+03  0.26295736387E+03 0.  0.
         25    1    3    3    0    0 -0.19319075133E+02 -0.42935492278E+02  0.60004523880E+02  0.14650847807E+03  0.12509000000E+03 0.  0.
         25    1    4    4    0    0 -0.11436730750E+02  0.27166920063E+02 -0.12996763843E+03  0.18277837808E+03  0.12509000000E+03 0.  0.
         25    1    4    4    0    0  0.30755805883E+02  0.15768572216E+02 -0.48757080212E+02  0.13863379255E+03  0.12509000000E+03 0.  0.
<mgrwt>
<rscale>  2 0.45260938E+03</rscale>
<asrwt>0</asrwt>
<pdfrwt beam="1">  1       21 0.25676504E-01 0.45260938E+03</pdfrwt>
<pdfrwt beam="2">  1       21 0.43135356E-01 0.45260938E+03</pdfrwt>
<totfact> 0.68887876E+04</totfact>
</mgrwt>
</event>
<event>
 7    0  0.4685107E-002  0.4551791E+03  0.7546771E-02  0.1026189E+00
         21   -1    0    0  502  501  0.00000000000E+00  0.00000000000E+00  0.54064754440E+02  0.54064754440E+02  0.00000000000E+00 0.  1.
         21   -1    0    0  501  502 -0.00000000000E+00 -0.00000000000E+00 -0.95805481245E+03  0.95805481245E+03  0.00000000000E+00 0.  1.
      99926    2    1    2    0    0  0.71054273576E-14  0.00000000000E+00 -0.90399005802E+03  0.10121195669E+04  0.45517907762E+03 0.  0.
      99925    2    3    3    0    0  0.52969198104E+02  0.38267489072E+02 -0.36258754881E+03  0.45262486474E+03  0.26292470587E+03 0.  0.
         25    1    3    3    0    0 -0.52969198104E+02 -0.38267489072E+02 -0.54140250920E+03  0.55949470215E+03  0.12509000000E+03 0.  0.
         25    1    4    4    0    0  0.43736768468E+02  0.12000101856E+02 -0.24450882079E+03  0.27836842297E+03  0.12509000000E+03 0.  0.
         25    1    4    4    0    0  0.92324296361E+01  0.26267387216E+02 -0.11807872802E+03  0.17425644177E+03  0.12509000000E+03 0.  0.
<mgrwt>
<rscale>  2 0.45517908E+03</rscale>
<asrwt>0</asrwt>
<pdfrwt beam="1">  1       21 0.79507001E-02 0.45517908E+03</pdfrwt>
<pdfrwt beam="2">  1       21 0.14089040E+00 0.45517908E+03</pdfrwt>
<totfact> 0.38644604E+04</totfact>
</mgrwt>
</event>
<event>
 7    0  0.4685107E-002  0.4552035E+03  0.7546771E-02  0.1026182E+00
         21   -1    0    0  502  501  0.00000000000E+00  0.00000000000E+00  0.13579753242E+03  0.13579753242E+03  0.00000000000E+00 0. -1.
         21   -1    0    0  501  502 -0.00000000000E+00 -0.00000000000E+00 -0.38146913746E+03  0.38146913746E+03  0.00000000000E+00 0. -1.
      99926    2    1    2    0    0 -0.71054273576E-14  0.00000000000E+00 -0.24567160504E+03  0.51726666988E+03  0.45520354815E+03 0.  0.
      99925    2    3    3    0    0 -0.51052824207E+02 -0.94896768570E+02 -0.11452224174E+03  0.30641257070E+03  0.26298580207E+03 0.  0.
         25    1    3    3    0    0  0.51052824207E+02  0.94896768570E+02 -0.13114936330E+03  0.21085409917E+03  0.12509000000E+03 0.  0.
         25    1    4    4    0    0 -0.51863516682E+02 -0.20325409353E+02 -0.39086468822E+02  0.14240156872E+03  0.12509000000E+03 0.  0.
         25    1    4    4    0    0  0.81069247498E+00 -0.74571359217E+02 -0.75435772914E+02  0.16401100199E+03  0.12509000000E+03 0.  0.
<mgrwt>
<rscale>  2 0.45520355E+03</rscale>
<asrwt>0</asrwt>
<pdfrwt beam="1">  1       21 0.19970226E-01 0.45520355E+03</pdfrwt>
<pdfrwt beam="2">  1       21 0.56098402E-01 0.45520355E+03</pdfrwt>
<totfact> 0.63970502E+04</totfact>
</mgrwt>
</event>
<event>
 7    0  0.4685107E-002  0.4534166E+03  0.7546771E-02  0.1026708E+00
         21   -1    0    0  502  501  0.00000000000E+00  0.00000000000E+00  0.90740735296E+03  0.90740735296E+03  0.00000000000E+00 0. -1.
         21   -1    0    0  501  502 -0.00000000000E+00 -0.00000000000E+00 -0.56641207871E+02  0.56641207871E+02  0.00000000000E+00 0. -1.
      99926    2    1    2    0    0  0.00000000000E+00  0.00000000000E+00  0.85076614509E+03  0.96404856083E+03  0.45341657889E+03 0.  0.
      99925    2    3    3    0    0 -0.70596919370E+02 -0.20599638375E+02  0.35757511275E+03  0.44995404364E+03  0.26304070028E+03 0.  0.
         25    1    4    4    0    0 -0.93090772775E+01 -0.15881158511E+02  0.11888919014E+03  0.17355407730E+03  0.12509000000E+03 0.  0.
         25    1    3    3    0    0  0.70596919370E+02  0.20599638375E+02  0.49319103234E+03  0.51409451719E+03  0.12509000000E+03 0.  0.
         25    1    4    4    0    0 -0.61287842092E+02 -0.47184798642E+01  0.23868592261E+03  0.27639996634E+03  0.12509000000E+03 0.  0.
<mgrwt>
<rscale>  2 0.45341658E+03</rscale>
<asrwt>0</asrwt>
<pdfrwt beam="1">  1       21 0.13344225E+00 0.45341658E+03</pdfrwt>
<pdfrwt beam="2">  1       21 0.83295900E-02 0.45341658E+03</pdfrwt>
<totfact> 0.41083405E+04</totfact>
</mgrwt>
</event>
<event>
 7    0  0.4685107E-002  0.4526080E+03  0.7546771E-02  0.1026947E+00
         21   -1    0    0  502  501  0.00000000000E+00  0.00000000000E+00  0.12121107342E+04  0.12121107342E+04  0.00000000000E+00 0. -1.
         21   -1    0    0  501  502 -0.00000000000E+00 -0.00000000000E+00 -0.42251510796E+02  0.42251510796E+02  0.00000000000E+00 0. -1.
      99926    2    1    2    0    0 -0.17763568394E-14  0.00000000000E+00  0.11698592234E+04  0.12543622450E+04  0.45260804134E+03 0.  0.
      99925    2    3    3    0    0  0.14693352862E+02  0.38212425527E+02  0.45209496511E+03  0.52463001830E+03  0.26300325958E+03 0.  0.
         25    1    4    4    0    0  0.11550789309E+02 -0.13241803270E+01  0.15268840804E+03  0.19772817765E+03  0.12509000000E+03 0.  0.
         25    1    3    3    0    0 -0.14693352862E+02 -0.38212425527E+02  0.71776425827E+03  0.72973222666E+03  0.12509000000E+03 0.  0.
         25    1    4    4    0    0  0.31425635535E+01  0.39536605854E+02  0.29940655706E+03  0.32690184065E+03  0.12509000000E+03 0.  0.
<mgrwt>
<rscale>  2 0.45260804E+03</rscale>
<asrwt>0</asrwt>
<pdfrwt beam="1">  1       21 0.17825156E+00 0.45260804E+03</pdfrwt>
<pdfrwt beam="2">  1       21 0.62134582E-02 0.45260804E+03</pdfrwt>
<totfact> 0.31043421E+04</totfact>
</mgrwt>
</event>
<event>
 7    0  0.4685107E-002  0.4045236E+03  0.7546771E-02  0.1042224E+00
         21   -1    0    0  502  501  0.00000000000E+00  0.00000000000E+00  0.51485776451E+02  0.51485776451E+02  0.00000000000E+00 0. -1.
         21   -1    0    0  501  502 -0.00000000000E+00 -0.00000000000E+00 -0.79458517423E+03  0.79458517423E+03  0.00000000000E+00 0. -1.
      99926    2    1    2    0    0  0.88817841970E-15 -0.71054273576E-14 -0.74309939778E+03  0.84607095068E+03  0.40452359462E+03 0.  0.
      99925    2    3    3    0    0  0.65385084454E+01 -0.50972188667E+02 -0.46050885535E+03  0.53278858782E+03  0.26297216078E+03 0.  0.
         25    1    4    4    0    0 -0.31712867997E+02 -0.75901024588E+01 -0.24427790043E+03  0.27637387068E+03  0.12509000000E+03 0.  0.
         25    1    3    3    0    0 -0.65385084454E+01  0.50972188667E+02 -0.28259054243E+03  0.31328236286E+03  0.12509000000E+03 0.  0.
         25    1    4    4    0    0  0.38251376443E+02 -0.43382086208E+02 -0.21623095491E+03  0.25641471714E+03  0.12509000000E+03 0.  0.
<mgrwt>
<rscale>  2 0.40452359E+03</rscale>
<asrwt>0</asrwt>
<pdfrwt beam="1">  1       21 0.75714376E-02 0.40452359E+03</pdfrwt>
<pdfrwt beam="2">  1       21 0.11685076E+00 0.40452359E+03</pdfrwt>
<totfact> 0.69207811E+04</totfact>
</mgrwt>
</event>
<event>
 7    0  0.4685107E-002  0.4373676E+03  0.7546771E-02  0.1031558E+00
         21   -1    0    0  502  501  0.00000000000E+00  0.00000000000E+00  0.86599469465E+03  0.86599469465E+03  0.00000000000E+00 0. -1.
         21   -1    0    0  501  502 -0.00000000000E+00 -0.00000000000E+00 -0.55222742045E+02  0.55222742045E+02  0.00000000000E+00 0. -1.
      99926    2    1    2    0    0  0.00000000000E+00  0.00000000000E+00  0.81077195261E+03  0.92121743670E+03  0.43736758744E+03 0.  0.
      99925    2    3    3    0    0 -0.72201181141E+02 -0.35236122428E+02  0.40956193636E+03  0.49334878849E+03  0.26305408666E+03 0.  0.
         25    1    3    3    0    0  0.72201181141E+02  0.35236122428E+02  0.40121001624E+03  0.42786864821E+03  0.12509000000E+03 0.  0.
         25    1    4    4    0    0 -0.18835167574E+02 -0.28971397337E+02  0.26321537952E+03  0.29346882205E+03  0.12509000000E+03 0.  0.
         25    1    4    4    0    0 -0.53366013567E+02 -0.62647250911E+01  0.14634655685E+03  0.19987996645E+03  0.12509000000E+03 0.  0.
<mgrwt>
<rscale>  2 0.43736759E+03</rscale>
<asrwt>0</asrwt>
<pdfrwt beam="1">  1       21 0.12735215E+00 0.43736759E+03</pdfrwt>
<pdfrwt beam="2">  1       21 0.81209921E-02 0.43736759E+03</pdfrwt>
<totfact> 0.48707731E+04</totfact>
</mgrwt>
</event>
<event>
 7    0  0.4685107E-002  0.4512881E+03  0.7546771E-02  0.1027339E+00
         21   -1    0    0  502  501  0.00000000000E+00  0.00000000000E+00  0.26200541783E+04  0.26200541783E+04  0.00000000000E+00 0. -1.
         21   -1    0    0  501  502 -0.00000000000E+00 -0.00000000000E+00 -0.19432893371E+02  0.19432893371E+02  0.00000000000E+00 0. -1.
      99926    2    1    2    0    0  0.88817841970E-15  0.00000000000E+00  0.26006212850E+04  0.26394870717E+04  0.45128808304E+03 0.  0.
      99925    2    3    3    0    0  0.76426880274E+01  0.10849599374E+03  0.15578338551E+04  0.15836069064E+04  0.26293482617E+03 0.  0.
         25    1    4    4    0    0  0.28880521819E+01  0.49712200947E+02  0.54545769899E+03  0.56182849096E+03  0.12509000000E+03 0.  0.
         25    1    4    4    0    0  0.47546358456E+01  0.58783792796E+02  0.10123761561E+04  0.10217784155E+04  0.12509000000E+03 0.  0.
         25    1    3    3    0    0 -0.76426880274E+01 -0.10849599374E+03  0.10427874299E+04  0.10558801653E+04  0.12509000000E+03 0.  0.
<mgrwt>
<rscale>  2 0.45128808E+03</rscale>
<asrwt>0</asrwt>
<pdfrwt beam="1">  1       21 0.38530184E+00 0.45128808E+03</pdfrwt>
<pdfrwt beam="2">  1       21 0.28577802E-02 0.45128808E+03</pdfrwt>
<totfact> 0.59780477E+03</totfact>
</mgrwt>
</event>
<event>
 7    0  0.4685107E-002  0.4474080E+03  0.7546771E-02  0.1028498E+00
         21   -1    0    0  502  501  0.00000000000E+00  0.00000000000E+00  0.31791690387E+02  0.31791690387E+02  0.00000000000E+00 0.  1.
         21   -1    0    0  501  502 -0.00000000000E+00 -0.00000000000E+00 -0.15741057476E+04  0.15741057476E+04  0.00000000000E+00 0.  1.
      99926    2    1    2    0    0  0.14210854715E-13 -0.44408920985E-15 -0.15423140572E+04  0.16058974380E+04  0.44740801317E+03 0.  0.
      99925    2    3    3    0    0 -0.10098274011E+03 -0.16871737262E+01 -0.10932875693E+04  0.11289565032E+04  0.26280166762E+03 0.  0.
         25    1    4    4    0    0 -0.61043243385E+02 -0.39798568953E+02 -0.55243803448E+03  0.57109149328E+03  0.12509000000E+03 0.  0.
         25    1    4    4    0    0 -0.39939496728E+02  0.38111395227E+02 -0.54084953486E+03  0.55786500993E+03  0.12509000000E+03 0.  0.
         25    1    3    3    0    0  0.10098274011E+03  0.16871737262E+01 -0.44902648784E+03  0.47694093475E+03  0.12509000000E+03 0.  0.
<mgrwt>
<rscale>  2 0.44740801E+03</rscale>
<asrwt>0</asrwt>
<pdfrwt beam="1">  1       21 0.46752498E-02 0.44740801E+03</pdfrwt>
<pdfrwt beam="2">  1       21 0.23148608E+00 0.44740801E+03</pdfrwt>
<totfact> 0.22600098E+04</totfact>
</mgrwt>
</event>
<event>
 7    0  0.4685107E-002  0.4436586E+03  0.7546771E-02  0.1029630E+00
         21   -1    0    0  502  501  0.00000000000E+00  0.00000000000E+00  0.18253592369E+02  0.18253592369E+02  0.00000000000E+00 0.  1.
         21   -1    0    0  501  502 -0.00000000000E+00 -0.00000000000E+00 -0.26958116927E+04  0.26958116927E+04  0.00000000000E+00 0.  1.
      99926    2    1    2    0    0  0.00000000000E+00  0.00000000000E+00 -0.26775581004E+04  0.27140652851E+04  0.44365864239E+03 0.  0.
      99925    2    3    3    0    0  0.88281023925E+02  0.49074718025E+02 -0.15884471112E+04  0.16131510641E+04  0.26246954770E+03 0.  0.
         25    1    3    3    0    0 -0.88281023925E+02 -0.49074718025E+02 -0.10891109892E+04  0.11009142210E+04  0.12509000000E+03 0.  0.
         25    1    4    4    0    0  0.65674054301E+02  0.43966377995E+02 -0.68561399138E+03  0.70139872902E+03  0.12509000000E+03 0.  0.
         25    1    4    4    0    0  0.22606969624E+02  0.51083400297E+01 -0.90283311981E+03  0.91175233509E+03  0.12509000000E+03 0.  0.
<mgrwt>
<rscale>  2 0.44365864E+03</rscale>
<asrwt>0</asrwt>
<pdfrwt beam="1">  1       21 0.26843534E-02 0.44365864E+03</pdfrwt>
<pdfrwt beam="2">  1       21 0.39644267E+00 0.44365864E+03</pdfrwt>
<totfact> 0.56635682E+03</totfact>
</mgrwt>
</event>
<event>
 7    0  0.4685107E-002  0.4402485E+03  0.7546771E-02  0.1030671E+00
         21   -1    0    0  502  501  0.00000000000E+00  0.00000000000E+00  0.17266398699E+03  0.17266398699E+03  0.00000000000E+00 0. -1.
         21   -1    0    0  501  502 -0.00000000000E+00 -0.00000000000E+00 -0.28062996024E+03  0.28062996024E+03  0.00000000000E+00 0. -1.
      99926    2    1    2    0    0 -0.22204460493E-15  0.00000000000E+00 -0.10796597325E+03  0.45329394723E+03  0.44024851075E+03 0.  0.
      99925    2    3    3    0    0  0.16126572940E+01 -0.30664088930E+02 -0.16535641433E+03  0.31228310424E+03  0.26312564759E+03 0.  0.
         25    1    4    4    0    0 -0.57476969097E+01 -0.21929926392E+02 -0.12991756935E+03  0.18176919601E+03  0.12509000000E+03 0.  0.
         25    1    4    4    0    0  0.73603542036E+01 -0.87341625378E+01 -0.35438844984E+02  0.13051390824E+03  0.12509000000E+03 0.  0.
         25    1    3    3    0    0 -0.16126572940E+01  0.30664088930E+02  0.57390441076E+02  0.14101084299E+03  0.12509000000E+03 0.  0.
<mgrwt>
<rscale>  2 0.44024851E+03</rscale>
<asrwt>0</asrwt>
<pdfrwt beam="1">  1       21 0.25391763E-01 0.44024851E+03</pdfrwt>
<pdfrwt beam="2">  1       21 0.41269112E-01 0.44024851E+03</pdfrwt>
<totfact> 0.77362120E+04</totfact>
</mgrwt>
</event>
<event>
 7    0  0.4685107E-002  0.4541742E+03  0.7546771E-02  0.1026485E+00
         21   -1    0    0  502  501  0.00000000000E+00  0.00000000000E+00  0.16891458920E+03  0.16891458920E+03  0.00000000000E+00 0. -1.
         21   -1    0    0  501  502 -0.00000000000E+00 -0.00000000000E+00 -0.30529363226E+03  0.30529363226E+03  0.00000000000E+00 0. -1.
      99926    2    1    2    0    0  0.00000000000E+00  0.00000000000E+00 -0.13637904305E+03  0.47420822146E+03  0.45417418896E+03 0.  0.
      99925    2    3    3    0    0  0.65818529709E+02  0.26808774816E+02 -0.17663964553E+03  0.32481205862E+03  0.26315493496E+03 0.  0.
         25    1    4    4    0    0 -0.14940102622E+01  0.32907281364E+02 -0.98378920917E+02  0.16251474214E+03  0.12509000000E+03 0.  0.
         25    1    4    4    0    0  0.67312539971E+02 -0.60985065479E+01 -0.78260724610E+02  0.16229731648E+03  0.12509000000E+03 0.  0.
         25    1    3    3    0    0 -0.65818529709E+02 -0.26808774816E+02  0.40260602473E+02  0.14939616284E+03  0.12509000000E+03 0.  0.
<mgrwt>
<rscale>  2 0.45417419E+03</rscale>
<asrwt>0</asrwt>
<pdfrwt beam="1">  1       21 0.24840381E-01 0.45417419E+03</pdfrwt>
<pdfrwt beam="2">  1       21 0.44896122E-01 0.45417419E+03</pdfrwt>
<totfact> 0.67565887E+04</totfact>
</mgrwt>
</event>
<event>
 7    0  0.4685107E-002  0.4487184E+03  0.7546771E-02  0.1028105E+00
         21   -1    0    0  502  501  0.00000000000E+00  0.00000000000E+00  0.15621313163E+03  0.15621313163E+03  0.00000000000E+00 0.  1.
         21   -1    0    0  501  502 -0.00000000000E+00 -0.00000000000E+00 -0.32223316200E+03  0.32223316200E+03  0.00000000000E+00 0.  1.
      99926    2    1    2    0    0 -0.71054273576E-14  0.14210854715E-13 -0.16602003036E+03  0.47844629363E+03  0.44871840324E+03 0.  0.
      99925    2    3    3    0    0  0.48294585158E+02 -0.95591604608E+02 -0.10540851422E+03  0.30297154953E+03  0.26307923355E+03 0.  0.
         25    1    4    4    0    0  0.58301541380E+02 -0.36737218238E+02 -0.32941401912E+02  0.14656512884E+03  0.12509000000E+03 0.  0.
         25    1    4    4    0    0 -0.10006956222E+02 -0.58854386370E+02 -0.72467112305E+02  0.15640642069E+03  0.12509000000E+03 0.  0.
         25    1    3    3    0    0 -0.48294585158E+02  0.95591604608E+02 -0.60611516146E+02  0.17547474410E+03  0.12509000000E+03 0.  0.
<mgrwt>
<rscale>  2 0.44871840E+03</rscale>
<asrwt>0</asrwt>
<pdfrwt beam="1">  1       21 0.22972520E-01 0.44871840E+03</pdfrwt>
<pdfrwt beam="2">  1       21 0.47387229E-01 0.44871840E+03</pdfrwt>
<totfact> 0.70251481E+04</totfact>
</mgrwt>
</event>
<event>
 7    0  0.4685107E-002  0.4609778E+03  0.7546771E-02  0.1024498E+00
         21   -1    0    0  502  501  0.00000000000E+00  0.00000000000E+00  0.20716773645E+03  0.20716773645E+03  0.00000000000E+00 0.  1.
         21   -1    0    0  501  502 -0.00000000000E+00 -0.00000000000E+00 -0.25643539538E+03  0.25643539538E+03  0.00000000000E+00 0.  1.
      99926    2    1    2    0    0  0.44408920985E-15  0.00000000000E+00 -0.49267658930E+02  0.46360313184E+03  0.46097783204E+03 0.  0.
      99925    2    3    3    0    0  0.29617616256E+01  0.76104269022E+02 -0.12239352118E+03  0.29990972444E+03  0.26299246566E+03 0.  0.
         25    1    3    3    0    0 -0.29617616256E+01 -0.76104269022E+02  0.73125862251E+02  0.16369340740E+03  0.12509000000E+03 0.  0.
         25    1    4    4    0    0 -0.42737300158E+01  0.79664267437E+02 -0.62639142723E+02  0.16104605110E+03  0.12509000000E+03 0.  0.
         25    1    4    4    0    0  0.72354916415E+01 -0.35599984154E+01 -0.59754378457E+02  0.13886367334E+03  0.12509000000E+03 0.  0.
<mgrwt>
<rscale>  2 0.46097783E+03</rscale>
<asrwt>0</asrwt>
<pdfrwt beam="1">  1       21 0.30465844E-01 0.46097783E+03</pdfrwt>
<pdfrwt beam="2">  1       21 0.37711087E-01 0.46097783E+03</pdfrwt>
<totfact> 0.64775071E+04</totfact>
</mgrwt>
</event>
<event>
 7    0  0.4685107E-002  0.4513912E+03  0.7546771E-02  0.1027308E+00
         21   -1    0    0  502  501  0.00000000000E+00  0.00000000000E+00  0.20879462219E+03  0.20879462219E+03  0.00000000000E+00 0.  1.
         21   -1    0    0  501  502 -0.00000000000E+00 -0.00000000000E+00 -0.24396465406E+03  0.24396465406E+03  0.00000000000E+00 0.  1.
      99926    2    1    2    0    0  0.17763568394E-14 -0.14210854715E-13 -0.35170031873E+02  0.45275927626E+03  0.45139121734E+03 0.  0.
      99925    2    3    3    0    0 -0.64195573016E+01 -0.10942631273E+03 -0.27739420688E+02  0.28627188720E+03  0.26299579712E+03 0.  0.
         25    1    4    4    0    0 -0.17767728940E+02 -0.65066790671E+02 -0.51117018961E+02  0.15102925931E+03  0.12509000000E+03 0.  0.
         25    1    4    4    0    0  0.11348171639E+02 -0.44359522059E+02  0.23377598274E+02  0.13524262789E+03  0.12509000000E+03 0.  0.
         25    1    3    3    0    0  0.64195573016E+01  0.10942631273E+03 -0.74306111853E+01  0.16648738906E+03  0.12509000000E+03 0.  0.
<mgrwt>
<rscale>  2 0.45139122E+03</rscale>
<asrwt>0</asrwt>
<pdfrwt beam="1">  1       21 0.30705092E-01 0.45139122E+03</pdfrwt>
<pdfrwt beam="2">  1       21 0.35877155E-01 0.45139122E+03</pdfrwt>
<totfact> 0.70724872E+04</totfact>
</mgrwt>
</event>
<event>
 7    0  0.4685107E-002  0.4136274E+03  0.7546771E-02  0.1039161E+00
         21   -1    0    0  502  501  0.00000000000E+00  0.00000000000E+00  0.28111029688E+03  0.28111029688E+03  0.00000000000E+00 0. -1.
         21   -1    0    0  501  502 -0.00000000000E+00 -0.00000000000E+00 -0.15215343851E+03  0.15215343851E+03  0.00000000000E+00 0. -1.
      99926    2    1    2    0    0  0.71054273576E-14  0.71054273576E-14  0.12895685836E+03  0.43326373539E+03  0.41362736018E+03 0.  0.
      99925    2    3    3    0    0  0.53198809636E+02  0.39771836332E+02  0.10074039490E+03  0.28884909201E+03  0.26243715149E+03 0.  0.
         25    1    3    3    0    0 -0.53198809636E+02 -0.39771836332E+02  0.28216463462E+02  0.14441464338E+03  0.12509000000E+03 0.  0.
         25    1    4    4    0    0 -0.77801432603E+01  0.12510578332E+02  0.26222093294E+02  0.12865516498E+03  0.12509000000E+03 0.  0.
         25    1    4    4    0    0  0.60978952896E+02  0.27261257999E+02  0.74518301608E+02  0.16019392703E+03  0.12509000000E+03 0.  0.
<mgrwt>
<rscale>  2 0.41362736E+03</rscale>
<asrwt>0</asrwt>
<pdfrwt beam="1">  1       21 0.41339750E-01 0.41362736E+03</pdfrwt>
<pdfrwt beam="2">  1       21 0.22375506E-01 0.41362736E+03</pdfrwt>
<totfact> 0.98977787E+04</totfact>
</mgrwt>
</event>
<event>
 7    0  0.4685107E-002  0.4538579E+03  0.7546771E-02  0.1026578E+00
         21   -1    0    0  502  501  0.00000000000E+00  0.00000000000E+00  0.12174823342E+03  0.12174823342E+03  0.00000000000E+00 0.  1.
         21   -1    0    0  501  502 -0.00000000000E+00 -0.00000000000E+00 -0.42297735133E+03  0.42297735133E+03  0.00000000000E+00 0.  1.
      99926    2    1    2    0    0  0.71054273576E-14  0.00000000000E+00 -0.30122911791E+03  0.54472558476E+03  0.45385788658E+03 0.  0.
      99925    2    3    3    0    0 -0.54816756601E+02  0.48151798014E+02 -0.87676767024E+02  0.28670313007E+03  0.26303611322E+03 0.  0.
         25    1    3    3    0    0  0.54816756601E+02 -0.48151798014E+02 -0.21355235088E+03  0.25802245469E+03  0.12509000000E+03 0.  0.
         25    1    4    4    0    0 -0.46522020496E+02  0.41465218140E+02 -0.12356827231E+02  0.14029918740E+03  0.12509000000E+03 0.  0.
         25    1    4    4    0    0 -0.82947361048E+01  0.66865798737E+01 -0.75319939793E+02  0.14640394267E+03  0.12509000000E+03 0.  0.
<mgrwt>
<rscale>  2 0.45385789E+03</rscale>
<asrwt>0</asrwt>
<pdfrwt beam="1">  1       21 0.17904152E-01 0.45385789E+03</pdfrwt>
<pdfrwt beam="2">  1       21 0.62202551E-01 0.45385789E+03</pdfrwt>
<totfact> 0.62781870E+04</totfact>
</mgrwt>
</event>
<event>
 7    0  0.4685107E-002  0.4703624E+03  0.7546771E-02  0.1021818E+00
         21   -1    0    0  502  501  0.00000000000E+00  0.00000000000E+00  0.12909494199E+03  0.12909494199E+03  0.00000000000E+00 0.  1.
         21   -1    0    0  501  502 -0.00000000000E+00 -0.00000000000E+00 -0.42844580468E+03  0.42844580468E+03  0.00000000000E+00 0.  1.
      99926    2    1    2    0    0  0.00000000000E+00  0.00000000000E+00 -0.29935086269E+03  0.55754074666E+03  0.47036235521E+03 0.  0.
      99925    2    3    3    0    0 -0.53949672618E+02 -0.30792721830E+02 -0.54544050393E+02  0.27569567869E+03  0.26301006620E+03 0.  0.
         25    1    4    4    0    0 -0.55539793232E+02  0.12928123742E+02 -0.33716470130E+02  0.14154897906E+03  0.12509000000E+03 0.  0.
         25    1    4    4    0    0  0.15901206141E+01 -0.43720845572E+02 -0.20827580263E+02  0.13414669963E+03  0.12509000000E+03 0.  0.
         25    1    3    3    0    0  0.53949672618E+02  0.30792721830E+02 -0.24480681230E+03  0.28184506797E+03  0.12509000000E+03 0.  0.
<mgrwt>
<rscale>  2 0.47036236E+03</rscale>
<asrwt>0</asrwt>
<pdfrwt beam="1">  1       21 0.18984550E-01 0.47036236E+03</pdfrwt>
<pdfrwt beam="2">  1       21 0.63006737E-01 0.47036236E+03</pdfrwt>
<totfact> 0.54445206E+04</totfact>
</mgrwt>
</event>
<event>
 7    0  0.4685107E-002  0.4502703E+03  0.7546771E-02  0.1027641E+00
         21   -1    0    0  502  501  0.00000000000E+00  0.00000000000E+00  0.27970413781E+03  0.27970413781E+03  0.00000000000E+00 0. -1.
         21   -1    0    0  501  502 -0.00000000000E+00 -0.00000000000E+00 -0.18121228352E+03  0.18121228352E+03  0.00000000000E+00 0. -1.
      99926    2    1    2    0    0  0.00000000000E+00  0.71054273576E-14  0.98491854287E+02  0.46091642133E+03  0.45027025451E+03 0.  0.
      99925    2    3    3    0    0  0.89420087582E+02 -0.58299715780E+02  0.83033204276E+02  0.29574594309E+03  0.26301395575E+03 0.  0.
         25    1    4    4    0    0  0.52888357621E+02 -0.41269540714E+02  0.82788717431E+02  0.16432234540E+03  0.12509000000E+03 0.  0.
         25    1    3    3    0    0 -0.89420087582E+02  0.58299715780E+02  0.15458650011E+02  0.16517047824E+03  0.12509000000E+03 0.  0.
         25    1    4    4    0    0  0.36531729962E+02 -0.17030175066E+02  0.24448684523E+00  0.13142359769E+03  0.12509000000E+03 0.  0.
<mgrwt>
<rscale>  2 0.45027025E+03</rscale>
<asrwt>0</asrwt>
<pdfrwt beam="1">  1       21 0.41132962E-01 0.45027025E+03</pdfrwt>
<pdfrwt beam="2">  1       21 0.26648865E-01 0.45027025E+03</pdfrwt>
<totfact> 0.70734478E+04</totfact>
</mgrwt>
</event>
<event>
 7    0  0.4685107E-002  0.4376043E+03  0.7546771E-02  0.1031484E+00
         21   -1    0    0  502  501  0.00000000000E+00  0.00000000000E+00  0.50115055144E+02  0.50115055144E+02  0.00000000000E+00 0. -1.
         21   -1    0    0  501  502 -0.00000000000E+00 -0.00000000000E+00 -0.95528960084E+03  0.95528960084E+03  0.00000000000E+00 0. -1.
      99926    2    1    2    0    0  0.00000000000E+00  0.14210854715E-13 -0.90517454570E+03  0.10054046560E+04  0.43760434652E+03 0.  0.
      99925    2    3    3    0    0 -0.58481454377E+01  0.81068610233E+02 -0.46217931862E+03  0.53796631815E+03  0.26304318377E+03 0.  0.
         25    1    3    3    0    0  0.58481454377E+01 -0.81068610233E+02 -0.44299522707E+03  0.46743833784E+03  0.12509000000E+03 0.  0.
         25    1    4    4    0    0 -0.28592249458E+02  0.18961553336E+02 -0.26757746612E+03  0.29735881643E+03  0.12509000000E+03 0.  0.
         25    1    4    4    0    0  0.22744104020E+02  0.62107056897E+02 -0.19460185250E+03  0.24060750171E+03  0.12509000000E+03 0.  0.
<mgrwt>
<rscale>  2 0.43760435E+03</rscale>
<asrwt>0</asrwt>
<pdfrwt beam="1">  1       21 0.73698612E-02 0.43760435E+03</pdfrwt>
<pdfrwt beam="2">  1       21 0.14048376E+00 0.43760435E+03</pdfrwt>
<totfact> 0.44731832E+04</totfact>
</mgrwt>
</event>
<event>
 7    0  0.4685107E-002  0.4553634E+03  0.7546771E-02  0.1026135E+00
         21   -1    0    0  502  501  0.00000000000E+00  0.00000000000E+00  0.19789834577E+03  0.19789834577E+03  0.00000000000E+00 0. -1.
         21   -1    0    0  501  502 -0.00000000000E+00 -0.00000000000E+00 -0.26194734668E+03  0.26194734668E+03  0.00000000000E+00 0. -1.
      99926    2    1    2    0    0  0.00000000000E+00  0.53290705182E-14 -0.64049000918E+02  0.45984569245E+03  0.45536335639E+03 0.  0.
      99925    2    3    3    0    0 -0.11280244297E+03 -0.45225863439E+01 -0.29231867481E+02  0.28778586039E+03  0.26309951432E+03 0.  0.
         25    1    3    3    0    0  0.11280244297E+03  0.45225863439E+01 -0.34817133436E+02  0.17205983206E+03  0.12509000000E+03 0.  0.
         25    1    4    4    0    0 -0.58511599059E+02 -0.41925852333E+02 -0.56498340481E+01  0.14443272843E+03  0.12509000000E+03 0.  0.
         25    1    4    4    0    0 -0.54290843916E+02  0.37403265989E+02 -0.23582033433E+02  0.14335313195E+03  0.12509000000E+03 0.  0.
<mgrwt>
<rscale>  2 0.45536336E+03</rscale>
<asrwt>0</asrwt>
<pdfrwt beam="1">  1       21 0.29102698E-01 0.45536336E+03</pdfrwt>
<pdfrwt beam="2">  1       21 0.38521668E-01 0.45536336E+03</pdfrwt>
<totfact> 0.67994582E+04</totfact>
</mgrwt>
</event>
<event>
 7    0  0.4685107E-002  0.5181768E+03  0.7546771E-02  0.1009140E+00
         21   -1    0    0  502  501  0.00000000000E+00  0.00000000000E+00  0.17863054348E+04  0.17863054348E+04  0.00000000000E+00 0.  1.
         21   -1    0    0  501  502 -0.00000000000E+00 -0.00000000000E+00 -0.37578566631E+02  0.37578566631E+02  0.00000000000E+00 0.  1.
      99926    2    1    2    0    0  0.00000000000E+00  0.00000000000E+00  0.17487268682E+04  0.18238840014E+04  0.51817679533E+03 0.  0.
      99925    2    3    3    0    0 -0.54058361262E+02 -0.13960826581E+03  0.12970122425E+04  0.13318409287E+04  0.26295765400E+03 0.  0.
         25    1    4    4    0    0 -0.67884817221E+02 -0.71770924219E+02  0.70914556000E+03  0.72683859786E+03  0.12509000000E+03 0.  0.
         25    1    3    3    0    0  0.54058361262E+02  0.13960826581E+03  0.45171462569E+03  0.49204307277E+03  0.12509000000E+03 0.  0.
         25    1    4    4    0    0  0.13826455959E+02 -0.67837341587E+02  0.58786668248E+03  0.60500233079E+03  0.12509000000E+03 0.  0.
<mgrwt>
<rscale>  2 0.51817680E+03</rscale>
<asrwt>0</asrwt>
<pdfrwt beam="1">  1       21 0.26269192E+00 0.51817680E+03</pdfrwt>
<pdfrwt beam="2">  1       21 0.55262610E-02 0.51817680E+03</pdfrwt>
<totfact> 0.10587723E+04</totfact>
</mgrwt>
</event>
<event>
 7    0  0.4685107E-002  0.4473588E+03  0.7546771E-02  0.1028513E+00
         21   -1    0    0  502  501  0.00000000000E+00  0.00000000000E+00  0.27979591007E+03  0.27979591007E+03  0.00000000000E+00 0. -1.
         21   -1    0    0  501  502 -0.00000000000E+00 -0.00000000000E+00 -0.17881771926E+03  0.17881771926E+03  0.00000000000E+00 0. -1.
      99926    2    1    2    0    0  0.00000000000E+00  0.00000000000E+00  0.10097819081E+03  0.45861362933E+03  0.44735876653E+03 0.  0.
      99925    2    3    3    0    0  0.67989619557E+02 -0.26156281390E+02 -0.14670031060E+02  0.27333341251E+03  0.26303841005E+03 0.  0.
         25    1    3    3    0    0 -0.67989619557E+02  0.26156281390E+02  0.11564822187E+03  0.18528021682E+03  0.12509000000E+03 0.  0.
         25    1    4    4    0    0  0.30410588634E+00 -0.28684919789E+02 -0.24842927466E+02  0.13071953277E+03  0.12509000000E+03 0.  0.
         25    1    4    4    0    0  0.67685513671E+02  0.25286383992E+01  0.10172896405E+02  0.14261387974E+03  0.12509000000E+03 0.  0.
<mgrwt>
<rscale>  2 0.44735877E+03</rscale>
<asrwt>0</asrwt>
<pdfrwt beam="1">  1       21 0.41146457E-01 0.44735877E+03</pdfrwt>
<pdfrwt beam="2">  1       21 0.26296723E-01 0.44735877E+03</pdfrwt>
<totfact> 0.72593473E+04</totfact>
</mgrwt>
</event>
<event>
 7    0  0.4685107E-002  0.4649060E+03  0.7546771E-02  0.1023368E+00
         21   -1    0    0  502  501  0.00000000000E+00  0.00000000000E+00  0.58379080187E+02  0.58379080187E+02  0.00000000000E+00 0.  1.
         21   -1    0    0  501  502 -0.00000000000E+00 -0.00000000000E+00 -0.92557821419E+03  0.92557821419E+03  0.00000000000E+00 0.  1.
      99926    2    1    2    0    0 -0.71054273576E-14  0.00000000000E+00 -0.86719913400E+03  0.98395729437E+03  0.46490603259E+03 0.  0.
      99925    2    3    3    0    0 -0.35274692839E+02  0.45435211437E+02 -0.76925765439E+03  0.81499367722E+03  0.26296139009E+03 0.  0.
         25    1    4    4    0    0 -0.44808409667E+02  0.18177797450E+02 -0.30236074863E+03  0.33076843306E+03  0.12509000000E+03 0.  0.
         25    1    4    4    0    0  0.95337168277E+01  0.27257413987E+02 -0.46689690576E+03  0.48422524416E+03  0.12509000000E+03 0.  0.
         25    1    3    3    0    0  0.35274692839E+02 -0.45435211437E+02 -0.97941479606E+02  0.16896361715E+03  0.12509000000E+03 0.  0.
<mgrwt>
<rscale>  2 0.46490603E+03</rscale>
<asrwt>0</asrwt>
<pdfrwt beam="1">  1       21 0.85851597E-02 0.46490603E+03</pdfrwt>
<pdfrwt beam="2">  1       21 0.13611443E+00 0.46490603E+03</pdfrwt>
<totfact> 0.36857449E+04</totfact>
</mgrwt>
</event>
<event>
 7    0  0.4685107E-002  0.4530705E+03  0.7546771E-02  0.1026810E+00
         21   -1    0    0  502  501  0.00000000000E+00  0.00000000000E+00  0.74100530703E+02  0.74100530703E+02  0.00000000000E+00 0.  1.
         21   -1    0    0  501  502 -0.00000000000E+00 -0.00000000000E+00 -0.69254850386E+03  0.69254850386E+03  0.00000000000E+00 0.  1.
      99926    2    1    2    0    0  0.00000000000E+00  0.00000000000E+00 -0.61844797316E+03  0.76664903457E+03  0.45307046548E+03 0.  0.
      99925    2    3    3    0    0 -0.33942383463E+02 -0.50194294182E+02 -0.23173990331E+03  0.35572058343E+03  0.26298706837E+03 0.  0.
         25    1    3    3    0    0  0.33942383463E+02  0.50194294182E+02 -0.38670806985E+03  0.41092845113E+03  0.12509000000E+03 0.  0.
         25    1    4    4    0    0 -0.19866235549E+02 -0.46469041711E+02 -0.16519330012E+03  0.21328472439E+03  0.12509000000E+03 0.  0.
         25    1    4    4    0    0 -0.14076147914E+02 -0.37252524708E+01 -0.66546603192E+02  0.14243585905E+03  0.12509000000E+03 0.  0.
<mgrwt>
<rscale>  2 0.45307047E+03</rscale>
<asrwt>0</asrwt>
<pdfrwt beam="1">  1       21 0.10897137E-01 0.45307047E+03</pdfrwt>
<pdfrwt beam="2">  1       21 0.10184537E+00 0.45307047E+03</pdfrwt>
<totfact> 0.50175868E+04</totfact>
</mgrwt>
</event>
<event>
 7    0  0.4685107E-002  0.4464867E+03  0.7546771E-02  0.1028775E+00
         21   -1    0    0  502  501  0.00000000000E+00  0.00000000000E+00  0.16162285012E+03  0.16162285012E+03  0.00000000000E+00 0.  1.
         21   -1    0    0  501  502 -0.00000000000E+00 -0.00000000000E+00 -0.30835741315E+03  0.30835741315E+03  0.00000000000E+00 0.  1.
      99926    2    1    2    0    0  0.00000000000E+00  0.00000000000E+00 -0.14673456302E+03  0.46998026327E+03  0.44648674770E+03 0.  0.
      99925    2    3    3    0    0  0.97549989476E+02 -0.10408581629E+02 -0.53906887234E+02  0.28589108783E+03  0.26306543405E+03 0.  0.
         25    1    4    4    0    0  0.34319068181E+02 -0.12104439347E+02 -0.64402419433E+02  0.14532548167E+03  0.12509000000E+03 0.  0.
         25    1    3    3    0    0 -0.97549989476E+02  0.10408581629E+02 -0.92827675791E+02  0.18408917543E+03  0.12509000000E+03 0.  0.
         25    1    4    4    0    0  0.63230921295E+02  0.16958577184E+01  0.10495532200E+02  0.14056560617E+03  0.12509000000E+03 0.  0.
<mgrwt>
<rscale>  2 0.44648675E+03</rscale>
<asrwt>0</asrwt>
<pdfrwt beam="1">  1       21 0.23768066E-01 0.44648675E+03</pdfrwt>
<pdfrwt beam="2">  1       21 0.45346678E-01 0.44648675E+03</pdfrwt>
<totfact> 0.72192391E+04</totfact>
</mgrwt>
</event>
<event>
 7    0  0.4685107E-002  0.4571308E+03  0.7546771E-02  0.1025617E+00
         21   -1    0    0  502  501  0.00000000000E+00  0.00000000000E+00  0.11393610793E+04  0.11393610793E+04  0.00000000000E+00 0.  1.
         21   -1    0    0  501  502 -0.00000000000E+00 -0.00000000000E+00 -0.45852145791E+02  0.45852145791E+02  0.00000000000E+00 0.  1.
      99926    2    1    2    0    0  0.00000000000E+00  0.44408920985E-15  0.10935089336E+04  0.11852132251E+04  0.45713083606E+03 0.  0.
      99925    2    3    3    0    0  0.63919918566E+01  0.19399669074E+01  0.98495086286E+03  0.10194513965E+04  0.26288462579E+03 0.  0.
         25    1    4    4    0    0  0.15091074052E+01  0.11412858855E+02  0.64363603038E+03  0.65577997717E+03  0.12509000000E+03 0.  0.
         25    1    4    4    0    0  0.48828844514E+01 -0.94728919476E+01  0.34131483248E+03  0.36367141929E+03  0.12509000000E+03 0.  0.
         25    1    3    3    0    0 -0.63919918566E+01 -0.19399669074E+01  0.10855807070E+03  0.16576182867E+03  0.12509000000E+03 0.  0.
<mgrwt>
<rscale>  2 0.45713084E+03</rscale>
<asrwt>0</asrwt>
<pdfrwt beam="1">  1       21 0.16755308E+00 0.45713084E+03</pdfrwt>
<pdfrwt beam="2">  1       21 0.67429634E-02 0.45713084E+03</pdfrwt>
<totfact> 0.32092062E+04</totfact>
</mgrwt>
</event>
<event>
 7    0  0.4685107E-002  0.4588258E+03  0.7546771E-02  0.1025122E+00
         21   -1    0    0  502  501  0.00000000000E+00  0.00000000000E+00  0.42503562062E+03  0.42503562062E+03  0.00000000000E+00 0. -1.
         21   -1    0    0  501  502 -0.00000000000E+00 -0.00000000000E+00 -0.12382557690E+03  0.12382557690E+03  0.00000000000E+00 0. -1.
      99926    2    1    2    0    0  0.00000000000E+00  0.00000000000E+00  0.30121004372E+03  0.54886119752E+03  0.45882580977E+03 0.  0.
      99925    2    3    3    0    0 -0.44739803873E+02 -0.11140663389E+02  0.31711819900E+03  0.41459898416E+03  0.26306387266E+03 0.  0.
         25    1    4    4    0    0  0.18495083610E+02 -0.56418508976E+01  0.15893867563E+03  0.20318196108E+03  0.12509000000E+03 0.  0.
         25    1    3    3    0    0  0.44739803873E+02  0.11140663389E+02 -0.15908155281E+02  0.13426221336E+03  0.12509000000E+03 0.  0.
         25    1    4    4    0    0 -0.63234887483E+02 -0.54988124916E+01  0.15817952337E+03  0.21141702308E+03  0.12509000000E+03 0.  0.
<mgrwt>
<rscale>  2 0.45882581E+03</rscale>
<asrwt>0</asrwt>
<pdfrwt beam="1">  1       21 0.62505238E-01 0.45882581E+03</pdfrwt>
<pdfrwt beam="2">  1       21 0.18209644E-01 0.45882581E+03</pdfrwt>
<totfact> 0.60101745E+04</totfact>
</mgrwt>
</event>
<event>
 7    0  0.4685107E-002  0.4422920E+03  0.7546771E-02  0.1030046E+00
         21   -1    0    0  502  501  0.00000000000E+00  0.00000000000E+00  0.56773647296E+03  0.56773647296E+03  0.00000000000E+00 0.  1.
         21   -1    0    0  501  502 -0.00000000000E+00 -0.00000000000E+00 -0.86141296519E+02  0.86141296519E+02  0.00000000000E+00 0.  1.
      99926    2    1    2    0    0  0.71054273576E-14  0.14210854715E-13  0.48159517644E+03  0.65387776947E+03  0.44229201151E+03 0.  0.
      99925    2    3    3    0    0  0.46389817748E+02  0.66132777787E+02  0.21744867740E+03  0.35065105472E+03  0.26295755434E+03 0.  0.
         25    1    3    3    0    0 -0.46389817748E+02 -0.66132777787E+02  0.26414649904E+03  0.30322671476E+03  0.12509000000E+03 0.  0.
         25    1    4    4    0    0  0.31740995519E+02  0.85383262617E+01  0.14519514708E+03  0.19444673473E+03  0.12509000000E+03 0.  0.
         25    1    4    4    0    0  0.14648822228E+02  0.57594451525E+02  0.72253530322E+02  0.15620431999E+03  0.12509000000E+03 0.  0.
<mgrwt>
<rscale>  2 0.44229201E+03</rscale>
<asrwt>0</asrwt>
<pdfrwt beam="1">  1       21 0.83490656E-01 0.44229201E+03</pdfrwt>
<pdfrwt beam="2">  1       21 0.12667838E-01 0.44229201E+03</pdfrwt>
<totfact> 0.61403903E+04</totfact>
</mgrwt>
</event>
<event>
 7    0  0.4685107E-002  0.4393256E+03  0.7546771E-02  0.1030954E+00
         21   -1    0    0  502  501  0.00000000000E+00  0.00000000000E+00  0.23302401309E+04  0.23302401309E+04  0.00000000000E+00 0. -1.
         21   -1    0    0  501  502 -0.00000000000E+00 -0.00000000000E+00 -0.20706773334E+02  0.20706773334E+02  0.00000000000E+00 0. -1.
      99926    2    1    2    0    0  0.00000000000E+00  0.00000000000E+00  0.23095333576E+04  0.23509469043E+04  0.43932563870E+03 0.  0.
      99925    2    3    3    0    0  0.65534089428E+02 -0.30561996399E+02  0.18267165549E+04  0.18469743598E+04  0.26304402927E+03 0.  0.
         25    1    4    4    0    0  0.51145138041E+02 -0.21404747110E+02  0.70328333404E+03  0.71646977912E+03  0.12509000000E+03 0.  0.
         25    1    4    4    0    0  0.14388951387E+02 -0.91572492892E+01  0.11234332209E+04  0.11305045807E+04  0.12509000000E+03 0.  0.
         25    1    3    3    0    0 -0.65534089428E+02  0.30561996399E+02  0.48281680269E+03  0.50397254446E+03  0.12509000000E+03 0.  0.
<mgrwt>
<rscale>  2 0.43932564E+03</rscale>
<asrwt>0</asrwt>
<pdfrwt beam="1">  1       21 0.34268219E+00 0.43932564E+03</pdfrwt>
<pdfrwt beam="2">  1       21 0.30451153E-02 0.43932564E+03</pdfrwt>
<totfact> 0.99359632E+03</totfact>
</mgrwt>
</event>
<event>
 7    0  0.4685107E-002  0.4622500E+03  0.7546771E-02  0.1024131E+00
         21   -1    0    0  502  501  0.00000000000E+00  0.00000000000E+00  0.17587080154E+03  0.17587080154E+03  0.00000000000E+00 0.  1.
         21   -1    0    0  501  502 -0.00000000000E+00 -0.00000000000E+00 -0.30373867112E+03  0.30373867112E+03  0.00000000000E+00 0.  1.
      99926    2    1    2    0    0  0.00000000000E+00  0.00000000000E+00 -0.12786786958E+03  0.47960947267E+03  0.46224999102E+03 0.  0.
      99925    2    3    3    0    0 -0.35731577712E+02 -0.10688931826E+03 -0.12222539223E+03  0.31114161919E+03  0.26299807734E+03 0.  0.
         25    1    3    3    0    0  0.35731577712E+02  0.10688931826E+03 -0.56424773517E+01  0.16846785348E+03  0.12509000000E+03 0.  0.
         25    1    4    4    0    0 -0.15139537774E+02 -0.59589443449E+02 -0.10548685141E+03  0.17480014672E+03  0.12509000000E+03 0.  0.
         25    1    4    4    0    0 -0.20592039938E+02 -0.47299874813E+02 -0.16738540820E+02  0.13634147247E+03  0.12509000000E+03 0.  0.
<mgrwt>
<rscale>  2 0.46224999E+03</rscale>
<asrwt>0</asrwt>
<pdfrwt beam="1">  1       21 0.25863353E-01 0.46224999E+03</pdfrwt>
<pdfrwt beam="2">  1       21 0.44667451E-01 0.46224999E+03</pdfrwt>
<totfact> 0.63023655E+04</totfact>
</mgrwt>
</event>
<event>
 7    0  0.4685107E-002  0.4493444E+03  0.7546771E-02  0.1027918E+00
         21   -1    0    0  502  501  0.00000000000E+00  0.00000000000E+00  0.13959267181E+03  0.13959267181E+03  0.00000000000E+00 0. -1.
         21   -1    0    0  501  502 -0.00000000000E+00 -0.00000000000E+00 -0.36160642592E+03  0.36160642592E+03  0.00000000000E+00 0. -1.
      99926    2    1    2    0    0  0.00000000000E+00  0.00000000000E+00 -0.22201375411E+03  0.50119909773E+03  0.44934444311E+03 0.  0.
      99925    2    3    3    0    0  0.83421577040E+02 -0.24415483230E+02 -0.21092650995E+03  0.34847152844E+03  0.26341438495E+03 0.  0.
         25    1    3    3    0    0 -0.83421577040E+02  0.24415483230E+02 -0.11087244155E+02  0.15272756929E+03  0.12509000000E+03 0.  0.
         25    1    4    4    0    0  0.51830264967E+02  0.20322936533E+02 -0.13475706060E+03  0.19211031102E+03  0.12509000000E+03 0.  0.
         25    1    4    4    0    0  0.31591312073E+02 -0.44738419763E+02 -0.76169449350E+02  0.15636121743E+03  0.12509000000E+03 0.  0.
<mgrwt>
<rscale>  2 0.44934444E+03</rscale>
<asrwt>0</asrwt>
<pdfrwt beam="1">  1       21 0.20528335E-01 0.44934444E+03</pdfrwt>
<pdfrwt beam="2">  1       21 0.53177414E-01 0.44934444E+03</pdfrwt>
<totfact> 0.68196845E+04</totfact>
</mgrwt>
</event>
<event>
 7    0  0.4685107E-002  0.4568091E+03  0.7546771E-02  0.1025711E+00
         21   -1    0    0  502  501  0.00000000000E+00  0.00000000000E+00  0.59018234701E+03  0.59018234701E+03  0.00000000000E+00 0.  1.
         21   -1    0    0  501  502 -0.00000000000E+00 -0.00000000000E+00 -0.88394109570E+02  0.88394109570E+02  0.00000000000E+00 0.  1.
      99926    2    1    2    0    0  0.00000000000E+00 -0.71054273576E-14  0.50178823744E+03  0.67857645658E+03  0.45680912009E+03 0.  0.
      99925    2    3    3    0    0 -0.10039181362E+03 -0.47964707428E+02  0.27360795018E+03  0.39556959978E+03  0.26312519543E+03 0.  0.
         25    1    4    4    0    0 -0.62265039238E+02 -0.72417330174E+01  0.89467711566E+02  0.16607635991E+03  0.12509000000E+03 0.  0.
         25    1    4    4    0    0 -0.38126774385E+02 -0.40722974411E+02  0.18414023861E+03  0.22949323987E+03  0.12509000000E+03 0.  0.
         25    1    3    3    0    0  0.10039181362E+03  0.47964707428E+02  0.22818028727E+03  0.28300685681E+03  0.12509000000E+03 0.  0.
<mgrwt>
<rscale>  2 0.45680912E+03</rscale>
<asrwt>0</asrwt>
<pdfrwt beam="1">  1       21 0.86791520E-01 0.45680912E+03</pdfrwt>
<pdfrwt beam="2">  1       21 0.12999134E-01 0.45680912E+03</pdfrwt>
<totfact> 0.53318041E+04</totfact>
</mgrwt>
</event>
<event>
 7    0  0.4685107E-002  0.4544978E+03  0.7546771E-02  0.1026389E+00
         21   -1    0    0  502  501  0.00000000000E+00  0.00000000000E+00  0.56982430857E+03  0.56982430857E+03  0.00000000000E+00 0.  1.
         21   -1    0    0  501  502 -0.00000000000E+00 -0.00000000000E+00 -0.90628057847E+02  0.90628057847E+02  0.00000000000E+00 0.  1.
      99926    2    1    2    0    0  0.14210854715E-13  0.00000000000E+00  0.47919625072E+03  0.66045236642E+03  0.45449783454E+03 0.  0.
      99925    2    3    3    0    0 -0.79535607519E+02 -0.58368817280E+02  0.38126467370E+03  0.47344719651E+03  0.26278634816E+03 0.  0.
         25    1    3    3    0    0  0.79535607519E+02  0.58368817280E+02  0.97931577021E+02  0.18700516991E+03  0.12509000000E+03 0.  0.
         25    1    4    4    0    0 -0.68869159300E+02 -0.37804957573E+02  0.15667316739E+03  0.21532804137E+03  0.12509000000E+03 0.  0.
         25    1    4    4    0    0 -0.10666448219E+02 -0.20563859707E+02  0.22459150631E+03  0.25811915514E+03  0.12509000000E+03 0.  0.
<mgrwt>
<rscale>  2 0.45449783E+03</rscale>
<asrwt>0</asrwt>
<pdfrwt beam="1">  1       21 0.83797691E-01 0.45449783E+03</pdfrwt>
<pdfrwt beam="2">  1       21 0.13327656E-01 0.45449783E+03</pdfrwt>
<totfact> 0.55321576E+04</totfact>
</mgrwt>
</event>
<event>
 7    0  0.4685107E-002  0.4256905E+03  0.7546771E-02  0.1035230E+00
         21   -1    0    0  502  501  0.00000000000E+00  0.00000000000E+00  0.16528874599E+03  0.16528874599E+03  0.00000000000E+00 0.  1.
         21   -1    0    0  501  502 -0.00000000000E+00 -0.00000000000E+00 -0.27408454740E+03  0.27408454740E+03  0.00000000000E+00 0.  1.
      99926    2    1    2    0    0 -0.22204460493E-15  0.00000000000E+00 -0.10879580141E+03  0.43937329339E+03  0.42569045625E+03 0.  0.
      99925    2    3    3    0    0 -0.13162262966E+01  0.81363416302E+02 -0.86248539089E+02  0.28845071356E+03  0.26295107092E+03 0.  0.
         25    1    4    4    0    0  0.13266530201E+02  0.53039357364E+02 -0.63976568135E+01  0.13666606150E+03  0.12509000000E+03 0.  0.
         25    1    4    4    0    0 -0.14582756497E+02  0.28324058938E+02 -0.79850882276E+02  0.15178465206E+03  0.12509000000E+03 0.  0.
         25    1    3    3    0    0  0.13162262966E+01 -0.81363416302E+02 -0.22547262321E+02  0.15092257983E+03  0.12509000000E+03 0.  0.
<mgrwt>
<rscale>  2 0.42569046E+03</rscale>
<asrwt>0</asrwt>
<pdfrwt beam="1">  1       21 0.24307169E-01 0.42569046E+03</pdfrwt>
<pdfrwt beam="2">  1       21 0.40306551E-01 0.42569046E+03</pdfrwt>
<totfact> 0.88672665E+04</totfact>
</mgrwt>
</event>
<event>
 7    0  0.4685107E-002  0.4537470E+03  0.7546771E-02  0.1026610E+00
         21   -1    0    0  502  501  0.00000000000E+00  0.00000000000E+00  0.67838966724E+03  0.67838966724E+03  0.00000000000E+00 0. -1.
         21   -1    0    0  501  502 -0.00000000000E+00 -0.00000000000E+00 -0.75873202013E+02  0.75873202013E+02  0.00000000000E+00 0. -1.
      99926    2    1    2    0    0  0.00000000000E+00  0.00000000000E+00  0.60251646522E+03  0.75426286925E+03  0.45374704965E+03 0.  0.
      99925    2    3    3    0    0 -0.44463868137E+02 -0.40102173636E+02  0.53662549206E+03  0.60072346602E+03  0.26328035247E+03 0.  0.
         25    1    3    3    0    0  0.44463868137E+02  0.40102173636E+02  0.65890973166E+02  0.15353940323E+03  0.12509000000E+03 0.  0.
         25    1    4    4    0    0 -0.32007265172E+02  0.12863576543E+00  0.34200736147E+03  0.36556945300E+03  0.12509000000E+03 0.  0.
         25    1    4    4    0    0 -0.12456602965E+02 -0.40230809401E+02  0.19461813059E+03  0.23515401301E+03  0.12509000000E+03 0.  0.
<mgrwt>
<rscale>  2 0.45374705E+03</rscale>
<asrwt>0</asrwt>
<pdfrwt beam="1">  1       21 0.99763183E-01 0.45374705E+03</pdfrwt>
<pdfrwt beam="2">  1       21 0.11157824E-01 0.45374705E+03</pdfrwt>
<totfact> 0.50549813E+04</totfact>
</mgrwt>
</event>
<event>
 7    0  0.4685107E-002  0.4579349E+03  0.7546771E-02  0.1025382E+00
         21   -1    0    0  502  501  0.00000000000E+00  0.00000000000E+00  0.12474411137E+03  0.12474411137E+03  0.00000000000E+00 0.  1.
         21   -1    0    0  501  502 -0.00000000000E+00 -0.00000000000E+00 -0.42026905218E+03  0.42026905218E+03  0.00000000000E+00 0.  1.
      99926    2    1    2    0    0  0.35527136788E-14  0.00000000000E+00 -0.29552494081E+03  0.54501316356E+03  0.45793488381E+03 0.  0.
      99925    2    3    3    0    0 -0.20136092597E+02  0.17131858524E+02 -0.51217579172E+02  0.26927314497E+03  0.26303198167E+03 0.  0.
         25    1    4    4    0    0  0.11900578137E+02  0.38024061224E+02 -0.43255870508E+02  0.13822456882E+03  0.12509000000E+03 0.  0.
         25    1    3    3    0    0  0.20136092597E+02 -0.17131858524E+02 -0.24430736164E+03  0.27574001859E+03  0.12509000000E+03 0.  0.
         25    1    4    4    0    0 -0.32036670734E+02 -0.20892202700E+02 -0.79617086643E+01  0.13104857615E+03  0.12509000000E+03 0.  0.
<mgrwt>
<rscale>  2 0.45793488E+03</rscale>
<asrwt>0</asrwt>
<pdfrwt beam="1">  1       21 0.18344722E-01 0.45793488E+03</pdfrwt>
<pdfrwt beam="2">  1       21 0.61804274E-01 0.45793488E+03</pdfrwt>
<totfact> 0.60773526E+04</totfact>
</mgrwt>
</event>
<event>
 7    0  0.4685107E-002  0.4519546E+03  0.7546771E-02  0.1027141E+00
         21   -1    0    0  502  501  0.00000000000E+00  0.00000000000E+00  0.66827983766E+02  0.66827983766E+02  0.00000000000E+00 0.  1.
         21   -1    0    0  501  502 -0.00000000000E+00 -0.00000000000E+00 -0.76413692586E+03  0.76413692586E+03  0.00000000000E+00 0.  1.
      99926    2    1    2    0    0  0.00000000000E+00  0.00000000000E+00 -0.69730894209E+03  0.83096490962E+03  0.45195455557E+03 0.  0.
      99925    2    3    3    0    0 -0.10681268471E+03 -0.26167988439E+02 -0.42962798712E+03  0.51569627022E+03  0.26318951835E+03 0.  0.
         25    1    4    4    0    0 -0.37512274872E+02 -0.34322836102E+02 -0.26543885448E+03  0.29780953882E+03  0.12509000000E+03 0.  0.
         25    1    4    4    0    0 -0.69300409842E+02  0.81548476633E+01 -0.16418913264E+03  0.21788673140E+03  0.12509000000E+03 0.  0.
         25    1    3    3    0    0  0.10681268471E+03  0.26167988439E+02 -0.26768095497E+03  0.31526863940E+03  0.12509000000E+03 0.  0.
<mgrwt>
<rscale>  2 0.45195456E+03</rscale>
<asrwt>0</asrwt>
<pdfrwt beam="1">  1       21 0.98276446E-02 0.45195456E+03</pdfrwt>
<pdfrwt beam="2">  1       21 0.11237308E+00 0.45195456E+03</pdfrwt>
<totfact> 0.47426372E+04</totfact>
</mgrwt>
</event>
<event>
 7    0  0.4685107E-002  0.4789522E+03  0.7546771E-02  0.1019424E+00
         21   -1    0    0  502  501  0.00000000000E+00  0.00000000000E+00  0.21365854499E+04  0.21365854499E+04  0.00000000000E+00 0. -1.
         21   -1    0    0  501  502 -0.00000000000E+00 -0.00000000000E+00 -0.26841333473E+02  0.26841333473E+02  0.00000000000E+00 0. -1.
      99926    2    1    2    0    0  0.00000000000E+00  0.00000000000E+00  0.21097441164E+04  0.21634267834E+04  0.47895220034E+03 0.  0.
      99925    2    3    3    0    0 -0.10096258782E+03 -0.27235590298E+01  0.17013664056E+04  0.17245410070E+04  0.26304595940E+03 0.  0.
         25    1    4    4    0    0 -0.89776789194E+02  0.23805863926E+01  0.83127820981E+03  0.84542090657E+03  0.12509000000E+03 0.  0.
         25    1    4    4    0    0 -0.11185798624E+02 -0.51041454224E+01  0.87008819584E+03  0.87912010046E+03  0.12509000000E+03 0.  0.
         25    1    3    3    0    0  0.10096258782E+03  0.27235590298E+01  0.40837771078E+03  0.43888577634E+03  0.12509000000E+03 0.  0.
<mgrwt>
<rscale>  2 0.47895220E+03</rscale>
<asrwt>0</asrwt>
<pdfrwt beam="1">  1       21 0.31420363E+00 0.47895220E+03</pdfrwt>
<pdfrwt beam="2">  1       21 0.39472564E-02 0.47895220E+03</pdfrwt>
<totfact> 0.93555900E+03</totfact>
</mgrwt>
</event>
<event>
 7    0  0.4685107E-002  0.4523909E+03  0.7546771E-02  0.1027011E+00
         21   -1    0    0  502  501  0.00000000000E+00  0.00000000000E+00  0.66114591673E+03  0.66114591673E+03  0.00000000000E+00 0. -1.
         21   -1    0    0  501  502 -0.00000000000E+00 -0.00000000000E+00 -0.77387421507E+02  0.77387421507E+02  0.00000000000E+00 0. -1.
      99926    2    1    2    0    0  0.44408920985E-15  0.14210854715E-13  0.58375849522E+03  0.73853333824E+03  0.45239088291E+03 0.  0.
      99925    2    3    3    0    0  0.34968015544E+01  0.73805843530E+02  0.23356813588E+03  0.35940232389E+03  0.26297609428E+03 0.  0.
         25    1    3    3    0    0 -0.34968015544E+01 -0.73805843530E+02  0.35019035934E+03  0.37913101435E+03  0.12509000000E+03 0.  0.
         25    1    4    4    0    0 -0.28973404953E+02  0.28943969521E+02  0.14791776853E+03  0.19800097453E+03  0.12509000000E+03 0.  0.
         25    1    4    4    0    0  0.32470206507E+02  0.44861874009E+02  0.85650367347E+02  0.16140134937E+03  0.12509000000E+03 0.  0.
<mgrwt>
<rscale>  2 0.45239088E+03</rscale>
<asrwt>0</asrwt>
<pdfrwt beam="1">  1       21 0.97227338E-01 0.45239088E+03</pdfrwt>
<pdfrwt beam="2">  1       21 0.11380503E-01 0.45239088E+03</pdfrwt>
<totfact> 0.51917053E+04</totfact>
</mgrwt>
</event>
<event>
 7    0  0.4685107E-002  0.4520232E+03  0.7546771E-02  0.1027120E+00
         21   -1    0    0  502  501  0.00000000000E+00  0.00000000000E+00  0.31752893922E+03  0.31752893922E+03  0.00000000000E+00 0. -1.
         21   -1    0    0  501  502 -0.00000000000E+00 -0.00000000000E+00 -0.16087115959E+03  0.16087115959E+03  0.00000000000E+00 0. -1.
      99926    2    1    2    0    0  0.00000000000E+00  0.00000000000E+00  0.15665777963E+03  0.47840009881E+03  0.45202322354E+03 0.  0.
      99925    2    3    3    0    0 -0.34836943798E+02  0.89313258246E+02  0.15679092567E+03  0.32079934824E+03  0.26294173634E+03 0.  0.
         25    1    3    3    0    0  0.34836943798E+02 -0.89313258246E+02 -0.13314603904E+00  0.15760075057E+03  0.12509000000E+03 0.  0.
         25    1    4    4    0    0 -0.21084622944E+01  0.35162389437E+02  0.33719998261E+02  0.13425865196E+03  0.12509000000E+03 0.  0.
         25    1    4    4    0    0 -0.32728481503E+02  0.54150868809E+02  0.12307092741E+03  0.18654069628E+03  0.12509000000E+03 0.  0.
<mgrwt>
<rscale>  2 0.45202322E+03</rscale>
<asrwt>0</asrwt>
<pdfrwt beam="1">  1       21 0.46695432E-01 0.45202322E+03</pdfrwt>
<pdfrwt beam="2">  1       21 0.23657523E-01 0.45202322E+03</pdfrwt>
<totfact> 0.68419119E+04</totfact>
</mgrwt>
</event>
<event>
 7    0  0.4685107E-002  0.4538051E+03  0.7546771E-02  0.1026593E+00
         21   -1    0    0  502  501  0.00000000000E+00  0.00000000000E+00  0.11735200119E+03  0.11735200119E+03  0.00000000000E+00 0.  1.
         21   -1    0    0  501  502 -0.00000000000E+00 -0.00000000000E+00 -0.43872083054E+03  0.43872083054E+03  0.00000000000E+00 0.  1.
      99926    2    1    2    0    0  0.00000000000E+00  0.00000000000E+00 -0.32136882935E+03  0.55607283172E+03  0.45380510101E+03 0.  0.
      99925    2    3    3    0    0 -0.16295775474E+02 -0.11060969242E+03 -0.19876107253E+03  0.34827430794E+03  0.26322798723E+03 0.  0.
         25    1    4    4    0    0 -0.35362048867E+02 -0.86247988195E+02 -0.12415053294E+03  0.19937415303E+03  0.12509000000E+03 0.  0.
         25    1    4    4    0    0  0.19066273393E+02 -0.24361704221E+02 -0.74610539585E+02  0.14890015491E+03  0.12509000000E+03 0.  0.
         25    1    3    3    0    0  0.16295775474E+02  0.11060969242E+03 -0.12260775682E+03  0.20779852378E+03  0.12509000000E+03 0.  0.
<mgrwt>
<rscale>  2 0.45380510E+03</rscale>
<asrwt>0</asrwt>
<pdfrwt beam="1">  1       21 0.17257647E-01 0.45380510E+03</pdfrwt>
<pdfrwt beam="2">  1       21 0.64517769E-01 0.45380510E+03</pdfrwt>
<totfact> 0.62051450E+04</totfact>
</mgrwt>
</event>
<event>
 7    0  0.4685107E-002  0.4612893E+03  0.7546771E-02  0.1024408E+00
         21   -1    0    0  502  501  0.00000000000E+00  0.00000000000E+00  0.18962903489E+03  0.18962903489E+03  0.00000000000E+00 0.  1.
         21   -1    0    0  501  502 -0.00000000000E+00 -0.00000000000E+00 -0.28053172927E+03  0.28053172927E+03  0.00000000000E+00 0.  1.
      99926    2    1    2    0    0  0.00000000000E+00  0.14210854715E-13 -0.90902694379E+02  0.47016076416E+03  0.46128932820E+03 0.  0.
      99925    2    3    3    0    0 -0.51077613284E+02  0.10626377443E+03 -0.73163479991E+02  0.29735133108E+03  0.26299050734E+03 0.  0.
         25    1    3    3    0    0  0.51077613284E+02 -0.10626377443E+03 -0.17739214388E+02  0.17280943308E+03  0.12509000000E+03 0.  0.
         25    1    4    4    0    0  0.32555979663E+01  0.67558641992E+02 -0.62040586173E+02  0.15514931988E+03  0.12509000000E+03 0.  0.
         25    1    4    4    0    0 -0.54333211250E+02  0.38705132439E+02 -0.11122893817E+02  0.14220201120E+03  0.12509000000E+03 0.  0.
<mgrwt>
<rscale>  2 0.46128933E+03</rscale>
<asrwt>0</asrwt>
<pdfrwt beam="1">  1       21 0.27886623E-01 0.46128933E+03</pdfrwt>
<pdfrwt beam="2">  1       21 0.41254666E-01 0.46128933E+03</pdfrwt>
<totfact> 0.64160619E+04</totfact>
</mgrwt>
</event>
<event>
 7    0  0.4685107E-002  0.4573810E+03  0.7546771E-02  0.1025544E+00
         21   -1    0    0  502  501  0.00000000000E+00  0.00000000000E+00  0.83545986920E+03  0.83545986920E+03  0.00000000000E+00 0.  1.
         21   -1    0    0  501  502 -0.00000000000E+00 -0.00000000000E+00 -0.62599456058E+02  0.62599456058E+02  0.00000000000E+00 0.  1.
      99926    2    1    2    0    0  0.00000000000E+00  0.00000000000E+00  0.77286041314E+03  0.89805932526E+03  0.45738095006E+03 0.  0.
      99925    2    3    3    0    0  0.76482236367E+02  0.73801297593E+02  0.39681873642E+03  0.48775332392E+03  0.26294872392E+03 0.  0.
         25    1    3    3    0    0 -0.76482236367E+02 -0.73801297593E+02  0.37604167672E+03  0.41030600134E+03  0.12509000000E+03 0.  0.
         25    1    4    4    0    0  0.54116309137E+02  0.38047634640E+02  0.26929378218E+03  0.30420855780E+03  0.12509000000E+03 0.  0.
         25    1    4    4    0    0  0.22365927230E+02  0.35753662953E+02  0.12752495424E+03  0.18354476612E+03  0.12509000000E+03 0.  0.
<mgrwt>
<rscale>  2 0.45738095E+03</rscale>
<asrwt>0</asrwt>
<pdfrwt beam="1">  1       21 0.12286174E+00 0.45738095E+03</pdfrwt>
<pdfrwt beam="2">  1       21 0.92058029E-02 0.45738095E+03</pdfrwt>
<totfact> 0.42519485E+04</totfact>
</mgrwt>
</event>
<event>
 7    0  0.4685107E-002  0.4663838E+03  0.7546771E-02  0.1022946E+00
         21   -1    0    0  502  501  0.00000000000E+00  0.00000000000E+00  0.55460008642E+03  0.55460008642E+03  0.00000000000E+00 0.  1.
         21   -1    0    0  501  502 -0.00000000000E+00 -0.00000000000E+00 -0.98049871933E+02  0.98049871933E+02  0.00000000000E+00 0.  1.
      99926    2    1    2    0    0  0.00000000000E+00  0.00000000000E+00  0.45655021448E+03  0.65264995835E+03  0.46638382239E+03 0.  0.
      99925    2    3    3    0    0 -0.93726831648E+02 -0.40295657147E+02  0.18683035474E+03  0.33831769816E+03  0.26295403492E+03 0.  0.
         25    1    4    4    0    0 -0.73884732063E+01 -0.34042271999E+02  0.82007673203E+02  0.15357809865E+03  0.12509000000E+03 0.  0.
         25    1    4    4    0    0 -0.86338358442E+02 -0.62533851473E+01  0.10482268153E+03  0.18473959951E+03  0.12509000000E+03 0.  0.
         25    1    3    3    0    0  0.93726831648E+02  0.40295657147E+02  0.26971985974E+03  0.31433226019E+03  0.12509000000E+03 0.  0.
<mgrwt>
<rscale>  2 0.46638382E+03</rscale>
<asrwt>0</asrwt>
<pdfrwt beam="1">  1       21 0.81558835E-01 0.46638382E+03</pdfrwt>
<pdfrwt beam="2">  1       21 0.14419099E-01 0.46638382E+03</pdfrwt>
<totfact> 0.50828194E+04</totfact>
</mgrwt>
</event>
<event>
 7    0  0.4685107E-002  0.4550258E+03  0.7546771E-02  0.1026234E+00
         21   -1    0    0  502  501  0.00000000000E+00  0.00000000000E+00  0.19248887051E+04  0.19248887051E+04  0.00000000000E+00 0.  1.
         21   -1    0    0  501  502 -0.00000000000E+00 -0.00000000000E+00 -0.26890965005E+02  0.26890965005E+02  0.00000000000E+00 0.  1.
      99926    2    1    2    0    0  0.00000000000E+00  0.71054273576E-14  0.18979977401E+04  0.19517796701E+04  0.45502577864E+03 0.  0.
      99925    2    3    3    0    0  0.32944972726E+02 -0.57184066026E+02  0.15885776224E+04  0.16115684035E+04  0.26309402865E+03 0.  0.
         25    1    3    3    0    0 -0.32944972726E+02  0.57184066026E+02  0.30942011766E+03  0.34021126664E+03  0.12509000000E+03 0.  0.
         25    1    4    4    0    0 -0.21215022026E+02 -0.21062919871E+02  0.84592310744E+03  0.85564428097E+03  0.12509000000E+03 0.  0.
         25    1    4    4    0    0  0.54159994753E+02 -0.36121146155E+02  0.74265451501E+03  0.75592412251E+03  0.12509000000E+03 0.  0.
<mgrwt>
<rscale>  2 0.45502578E+03</rscale>
<asrwt>0</asrwt>
<pdfrwt beam="1">  1       21 0.28307178E+00 0.45502578E+03</pdfrwt>
<pdfrwt beam="2">  1       21 0.39545550E-02 0.45502578E+03</pdfrwt>
<totfact> 0.14510444E+04</totfact>
</mgrwt>
</event>
<event>
 7    0  0.4685107E-002  0.4637444E+03  0.7546771E-02  0.1023701E+00
         21   -1    0    0  502  501  0.00000000000E+00  0.00000000000E+00  0.26882023172E+03  0.26882023172E+03  0.00000000000E+00 0. -1.
         21   -1    0    0  501  502 -0.00000000000E+00 -0.00000000000E+00 -0.20000247976E+03  0.20000247976E+03  0.00000000000E+00 0. -1.
      99926    2    1    2    0    0  0.00000000000E+00  0.71054273576E-14  0.68817751961E+02  0.46882271148E+03  0.46374438197E+03 0.  0.
      99925    2    3    3    0    0  0.33312333937E+02 -0.60621306731E+02  0.14354284762E+03  0.30752794267E+03  0.26302895658E+03 0.  0.
         25    1    4    4    0    0  0.26162062638E+02  0.78709182280E+01  0.53847556811E+02  0.13890094438E+03  0.12509000000E+03 0.  0.
         25    1    3    3    0    0 -0.33312333937E+02  0.60621306731E+02 -0.74725095659E+02  0.16129476880E+03  0.12509000000E+03 0.  0.
         25    1    4    4    0    0  0.71502712989E+01 -0.68492224959E+02  0.89695290810E+02  0.16862699829E+03  0.12509000000E+03 0.  0.
<mgrwt>
<rscale>  2 0.46374438E+03</rscale>
<asrwt>0</asrwt>
<pdfrwt beam="1">  1       21 0.39532387E-01 0.46374438E+03</pdfrwt>
<pdfrwt beam="2">  1       21 0.29412129E-01 0.46374438E+03</pdfrwt>
<totfact> 0.63030617E+04</totfact>
</mgrwt>
</event>
<event>
 7    0  0.4685107E-002  0.4552909E+03  0.7546771E-02  0.1026156E+00
         21   -1    0    0  502  501  0.00000000000E+00  0.00000000000E+00  0.93263357754E+02  0.93263357754E+02  0.00000000000E+00 0. -1.
         21   -1    0    0  501  502 -0.00000000000E+00 -0.00000000000E+00 -0.55565704866E+03  0.55565704866E+03  0.00000000000E+00 0. -1.
      99926    2    1    2    0    0 -0.49960036108E-15  0.14210854715E-13 -0.46239369090E+03  0.64892040641E+03  0.45529086139E+03 0.  0.
      99925    2    3    3    0    0 -0.48208039085E+00  0.10277425902E+03 -0.35883679049E+03  0.45673736751E+03  0.26321550097E+03 0.  0.
         25    1    4    4    0    0  0.94405799794E+01  0.91187269346E+02 -0.22088839080E+03  0.26989522399E+03  0.12509000000E+03 0.  0.
         25    1    3    3    0    0  0.48208039085E+00 -0.10277425902E+03 -0.10355690042E+03  0.19218303891E+03  0.12509000000E+03 0.  0.
         25    1    4    4    0    0 -0.99226603703E+01  0.11586989675E+02 -0.13794839968E+03  0.18684214352E+03  0.12509000000E+03 0.  0.
<mgrwt>
<rscale>  2 0.45529086E+03</rscale>
<asrwt>0</asrwt>
<pdfrwt beam="1">  1       21 0.13715200E-01 0.45529086E+03</pdfrwt>
<pdfrwt beam="2">  1       21 0.81714269E-01 0.45529086E+03</pdfrwt>
<totfact> 0.55635952E+04</totfact>
</mgrwt>
</event>
<event>
 7    0  0.4685107E-002  0.4503552E+03  0.7546771E-02  0.1027616E+00
         21   -1    0    0  502  501  0.00000000000E+00  0.00000000000E+00  0.25545847356E+03  0.25545847356E+03  0.00000000000E+00 0. -1.
         21   -1    0    0  501  502 -0.00000000000E+00 -0.00000000000E+00 -0.19848608782E+03  0.19848608782E+03  0.00000000000E+00 0. -1.
      99926    2    1    2    0    0  0.00000000000E+00  0.00000000000E+00  0.56972385739E+02  0.45394456139E+03  0.45035520656E+03 0.  0.
      99925    2    3    3    0    0 -0.28203744383E+02  0.71947190839E+02 -0.41453261267E+02  0.27700681653E+03  0.26275949853E+03 0.  0.
         25    1    4    4    0    0  0.98570541763E+01  0.11756224637E+02  0.39059971971E+01  0.12608780769E+03  0.12509000000E+03 0.  0.
         25    1    3    3    0    0  0.28203744383E+02 -0.71947190839E+02  0.98425647006E+02  0.17693774486E+03  0.12509000000E+03 0.  0.
         25    1    4    4    0    0 -0.38060798559E+02  0.60190966203E+02 -0.45359258464E+02  0.15091900884E+03  0.12509000000E+03 0.  0.
<mgrwt>
<rscale>  2 0.45035521E+03</rscale>
<asrwt>0</asrwt>
<pdfrwt beam="1">  1       21 0.37567423E-01 0.45035521E+03</pdfrwt>
<pdfrwt beam="2">  1       21 0.29189131E-01 0.45035521E+03</pdfrwt>
<totfact> 0.71226109E+04</totfact>
</mgrwt>
</event>
<event>
 7    0  0.4685107E-002  0.4544593E+03  0.7546771E-02  0.1026401E+00
         21   -1    0    0  502  501  0.00000000000E+00  0.00000000000E+00  0.13960355507E+03  0.13960355507E+03  0.00000000000E+00 0.  1.
         21   -1    0    0  501  502 -0.00000000000E+00 -0.00000000000E+00 -0.36985679781E+03  0.36985679781E+03  0.00000000000E+00 0.  1.
      99926    2    1    2    0    0  0.88817841970E-15  0.00000000000E+00 -0.23025324274E+03  0.50946035288E+03  0.45445934402E+03 0.  0.
      99925    2    3    3    0    0  0.45625064050E+01 -0.87530961713E+02 -0.65624705995E+02  0.28488842914E+03  0.26300632939E+03 0.  0.
         25    1    4    4    0    0 -0.27257750074E+02 -0.72782198634E+02 -0.37448688373E+02  0.15195441994E+03  0.12509000000E+03 0.  0.
         25    1    3    3    0    0 -0.45625064050E+01  0.87530961713E+02 -0.16462853674E+03  0.22457192374E+03  0.12509000000E+03 0.  0.
         25    1    4    4    0    0  0.31820256479E+02 -0.14748763079E+02 -0.28176017621E+02  0.13293400921E+03  0.12509000000E+03 0.  0.
<mgrwt>
<rscale>  2 0.45445934E+03</rscale>
<asrwt>0</asrwt>
<pdfrwt beam="1">  1       21 0.20529935E-01 0.45445934E+03</pdfrwt>
<pdfrwt beam="2">  1       21 0.54390704E-01 0.45445934E+03</pdfrwt>
<totfact> 0.64889003E+04</totfact>
</mgrwt>
</event>
<event>
 7    0  0.4685107E-002  0.4559703E+03  0.7546771E-02  0.1025956E+00
         21   -1    0    0  502  501  0.00000000000E+00  0.00000000000E+00  0.98993427505E+02  0.98993427505E+02  0.00000000000E+00 0.  1.
         21   -1    0    0  501  502 -0.00000000000E+00 -0.00000000000E+00 -0.52505747414E+03  0.52505747414E+03  0.00000000000E+00 0.  1.
      99926    2    1    2    0    0 -0.17763568394E-14  0.00000000000E+00 -0.42606404663E+03  0.62405090164E+03  0.45597034554E+03 0.  0.
      99925    2    3    3    0    0 -0.81954670516E+01 -0.10006948529E+03 -0.19372739408E+03  0.34172326257E+03  0.26298938647E+03 0.  0.
         25    1    4    4    0    0  0.25861013236E+02 -0.66639726489E+02 -0.12734461963E+03  0.19228573894E+03  0.12509000000E+03 0.  0.
         25    1    4    4    0    0 -0.34056480288E+02 -0.33429758806E+02 -0.66382774457E+02  0.14943752363E+03  0.12509000000E+03 0.  0.
         25    1    3    3    0    0  0.81954670516E+01  0.10006948529E+03 -0.23233665255E+03  0.28232763907E+03  0.12509000000E+03 0.  0.
<mgrwt>
<rscale>  2 0.45597035E+03</rscale>
<asrwt>0</asrwt>
<pdfrwt beam="1">  1       21 0.14557857E-01 0.45597035E+03</pdfrwt>
<pdfrwt beam="2">  1       21 0.77214335E-01 0.45597035E+03</pdfrwt>
<totfact> 0.56785454E+04</totfact>
</mgrwt>
</event>
<event>
 7    0  0.4685107E-002  0.4562766E+03  0.7546771E-02  0.1025867E+00
         21   -1    0    0  502  501  0.00000000000E+00  0.00000000000E+00  0.30068740107E+02  0.30068740107E+02  0.00000000000E+00 0.  1.
         21   -1    0    0  501  502 -0.00000000000E+00 -0.00000000000E+00 -0.17309367241E+04  0.17309367241E+04  0.00000000000E+00 0.  1.
      99926    2    1    2    0    0  0.71054273576E-14  0.00000000000E+00 -0.17008679840E+04  0.17610054642E+04  0.45627661128E+03 0.  0.
      99925    2    3    3    0    0  0.44183405064E+02  0.27877396264E+02 -0.14616885886E+04  0.14860807221E+04  0.26300771903E+03 0.  0.
         25    1    4    4    0    0  0.53402733648E+02  0.26731708484E+02 -0.63697663643E+03  0.65188432997E+03  0.12509000000E+03 0.  0.
         25    1    3    3    0    0 -0.44183405064E+02 -0.27877396264E+02 -0.23917939547E+03  0.27492474211E+03  0.12509000000E+03 0.  0.
         25    1    4    4    0    0 -0.92193285841E+01  0.11456877804E+01 -0.82471195213E+03  0.83419639217E+03  0.12509000000E+03 0.  0.
<mgrwt>
<rscale>  2 0.45627661E+03</rscale>
<asrwt>0</asrwt>
<pdfrwt beam="1">  1       21 0.44218733E-02 0.45627661E+03</pdfrwt>
<pdfrwt beam="2">  1       21 0.25454953E+00 0.45627661E+03</pdfrwt>
<totfact> 0.17843398E+04</totfact>
</mgrwt>
</event>
<event>
 7    0  0.4685107E-002  0.4526225E+03  0.7546771E-02  0.1026943E+00
         21   -1    0    0  502  501  0.00000000000E+00  0.00000000000E+00  0.47474619701E+02  0.47474619701E+02  0.00000000000E+00 0.  1.
         21   -1    0    0  501  502 -0.00000000000E+00 -0.00000000000E+00 -0.10788244855E+04  0.10788244855E+04  0.00000000000E+00 0.  1.
      99926    2    1    2    0    0  0.00000000000E+00  0.00000000000E+00 -0.10313498658E+04  0.11262991052E+04  0.45262250132E+03 0.  0.
      99925    2    3    3    0    0 -0.24952821398E+02 -0.40430596278E+02 -0.89978860921E+03  0.93864743657E+03  0.26302507960E+03 0.  0.
         25    1    4    4    0    0 -0.36964639600E+02 -0.45522672953E+01 -0.35009623423E+03  0.37363349561E+03  0.12509000000E+03 0.  0.
         25    1    4    4    0    0  0.12011818201E+02 -0.35878328983E+02 -0.54969237498E+03  0.56501394096E+03  0.12509000000E+03 0.  0.
         25    1    3    3    0    0  0.24952821398E+02  0.40430596278E+02 -0.13156125664E+03  0.18765166868E+03  0.12509000000E+03 0.  0.
<mgrwt>
<rscale>  2 0.45262250E+03</rscale>
<asrwt>0</asrwt>
<pdfrwt beam="1">  1       21 0.69815621E-02 0.45262250E+03</pdfrwt>
<pdfrwt beam="2">  1       21 0.15865065E+00 0.45262250E+03</pdfrwt>
<totfact> 0.35232093E+04</totfact>
</mgrwt>
</event>
<event>
 7    0  0.4685107E-002  0.4366641E+03  0.7546771E-02  0.1031775E+00
         21   -1    0    0  502  501  0.00000000000E+00  0.00000000000E+00  0.14551359223E+04  0.14551359223E+04  0.00000000000E+00 0.  1.
         21   -1    0    0  501  502 -0.00000000000E+00 -0.00000000000E+00 -0.32759054422E+02  0.32759054422E+02  0.00000000000E+00 0.  1.
      99926    2    1    2    0    0  0.00000000000E+00  0.00000000000E+00  0.14223768679E+04  0.14878949768E+04  0.43666406709E+03 0.  0.
      99925    2    3    3    0    0  0.40926015269E+02 -0.67817468497E+02  0.10888869499E+04  0.11230152962E+04  0.26308633203E+03 0.  0.
         25    1    4    4    0    0  0.14483218236E+02 -0.69861533690E+02  0.65695515601E+03  0.67255333068E+03  0.12509000000E+03 0.  0.
         25    1    4    4    0    0  0.26442797032E+02  0.20440651924E+01  0.43193179392E+03  0.45046196556E+03  0.12509000000E+03 0.  0.
         25    1    3    3    0    0 -0.40926015269E+02  0.67817468497E+02  0.33348991799E+03  0.36487968053E+03  0.12509000000E+03 0.  0.
<mgrwt>
<rscale>  2 0.43666407E+03</rscale>
<asrwt>0</asrwt>
<pdfrwt beam="1">  1       21 0.21399053E+00 0.43666407E+03</pdfrwt>
<pdfrwt beam="2">  1       21 0.48175090E-02 0.43666407E+03</pdfrwt>
<totfact> 0.27836031E+04</totfact>
</mgrwt>
</event>
<event>
 7    0  0.4685107E-002  0.4311361E+03  0.7546771E-02  0.1033502E+00
         21   -1    0    0  502  501  0.00000000000E+00  0.00000000000E+00  0.49756137845E+03  0.49756137845E+03  0.00000000000E+00 0.  1.
         21   -1    0    0  501  502 -0.00000000000E+00 -0.00000000000E+00 -0.93394679977E+02  0.93394679977E+02  0.00000000000E+00 0.  1.
      99926    2    1    2    0    0  0.00000000000E+00  0.00000000000E+00  0.40416669847E+03  0.59095605843E+03  0.43113610709E+03 0.  0.
      99925    2    3    3    0    0 -0.50762465686E+02  0.53515549357E+02  0.19211224106E+03  0.33394371834E+03  0.26300295039E+03 0.  0.
         25    1    4    4    0    0 -0.64834640493E+02  0.31976351807E+02  0.11593135823E+03  0.18523931981E+03  0.12509000000E+03 0.  0.
         25    1    3    3    0    0  0.50762465686E+02 -0.53515549357E+02  0.21205445742E+03  0.25701234008E+03  0.12509000000E+03 0.  0.
         25    1    4    4    0    0  0.14072174807E+02  0.21539197550E+02  0.76180882832E+02  0.14870439854E+03  0.12509000000E+03 0.  0.
<mgrwt>
<rscale>  2 0.43113611E+03</rscale>
<asrwt>0</asrwt>
<pdfrwt beam="1">  1       21 0.73170790E-01 0.43113611E+03</pdfrwt>
<pdfrwt beam="2">  1       21 0.13734512E-01 0.43113611E+03</pdfrwt>
<totfact> 0.71861541E+04</totfact>
</mgrwt>
</event>
<event>
 7    0  0.4685107E-002  0.4594212E+03  0.7546771E-02  0.1024949E+00
         21   -1    0    0  502  501  0.00000000000E+00  0.00000000000E+00  0.91186178320E+02  0.91186178320E+02  0.00000000000E+00 0. -1.
         21   -1    0    0  501  502 -0.00000000000E+00 -0.00000000000E+00 -0.57867280369E+03  0.57867280369E+03  0.00000000000E+00 0. -1.
      99926    2    1    2    0    0  0.00000000000E+00  0.00000000000E+00 -0.48748662537E+03  0.66985898201E+03  0.45942120746E+03 0.  0.
      99925    2    3    3    0    0  0.65685164348E+02  0.76704961551E+02 -0.21863240406E+03  0.35660462472E+03  0.26299912229E+03 0.  0.
         25    1    4    4    0    0 -0.35155670386E+01  0.27933361933E+02 -0.12395022328E+03  0.17833619339E+03  0.12509000000E+03 0.  0.
         25    1    4    4    0    0  0.69200731387E+02  0.48771599618E+02 -0.94682180775E+02  0.17826843133E+03  0.12509000000E+03 0.  0.
         25    1    3    3    0    0 -0.65685164348E+02 -0.76704961551E+02 -0.26885422131E+03  0.31325435729E+03  0.12509000000E+03 0.  0.
<mgrwt>
<rscale>  2 0.45942121E+03</rscale>
<asrwt>0</asrwt>
<pdfrwt beam="1">  1       21 0.13409732E-01 0.45942121E+03</pdfrwt>
<pdfrwt beam="2">  1       21 0.85098941E-01 0.45942121E+03</pdfrwt>
<totfact> 0.52708954E+04</totfact>
</mgrwt>
</event>
<event>
 7    0  0.4685107E-002  0.4553469E+03  0.7546771E-02  0.1026139E+00
         21   -1    0    0  502  501  0.00000000000E+00  0.00000000000E+00  0.10614834598E+03  0.10614834598E+03  0.00000000000E+00 0. -1.
         21   -1    0    0  501  502 -0.00000000000E+00 -0.00000000000E+00 -0.48832795140E+03  0.48832795140E+03  0.00000000000E+00 0. -1.
      99926    2    1    2    0    0  0.00000000000E+00  0.00000000000E+00 -0.38217960542E+03  0.59447629738E+03  0.45534691978E+03 0.  0.
      99925    2    3    3    0    0 -0.75720637875E+02  0.74725737296E+02 -0.29205435508E+03  0.40715940102E+03  0.26299330924E+03 0.  0.
         25    1    4    4    0    0 -0.54993627406E+01  0.58552649647E+02 -0.16086201422E+03  0.21209137533E+03  0.12509000000E+03 0.  0.
         25    1    3    3    0    0  0.75720637875E+02 -0.74725737296E+02 -0.90125250337E+02  0.18731689636E+03  0.12509000000E+03 0.  0.
         25    1    4    4    0    0 -0.70221275134E+02  0.16173087649E+02 -0.13119234087E+03  0.19506802569E+03  0.12509000000E+03 0.  0.
<mgrwt>
<rscale>  2 0.45534692E+03</rscale>
<asrwt>0</asrwt>
<pdfrwt beam="1">  1       21 0.15610051E-01 0.45534692E+03</pdfrwt>
<pdfrwt beam="2">  1       21 0.71812935E-01 0.45534692E+03</pdfrwt>
<totfact> 0.58858031E+04</totfact>
</mgrwt>
</event>
<event>
 7    0  0.4685107E-002  0.4574319E+03  0.7546771E-02  0.1025529E+00
         21   -1    0    0  502  501  0.00000000000E+00  0.00000000000E+00  0.35535144759E+02  0.35535144759E+02  0.00000000000E+00 0.  1.
         21   -1    0    0  501  502 -0.00000000000E+00 -0.00000000000E+00 -0.14720914104E+04  0.14720914104E+04  0.00000000000E+00 0.  1.
      99926    2    1    2    0    0 -0.14210854715E-13  0.14210854715E-13 -0.14365562657E+04  0.15076265552E+04  0.45743188070E+03 0.  0.
      99925    2    3    3    0    0  0.93360240176E+02 -0.66793104792E+02 -0.94433594606E+03  0.98694833937E+03  0.26290529144E+03 0.  0.
         25    1    3    3    0    0 -0.93360240176E+02  0.66793104792E+02 -0.49222031963E+03  0.52067821584E+03  0.12509000000E+03 0.  0.
         25    1    4    4    0    0  0.50786399472E+02 -0.69459293085E+02 -0.57383772595E+03  0.59358326761E+03  0.12509000000E+03 0.  0.
         25    1    4    4    0    0  0.42573840704E+02  0.26661882936E+01 -0.37049822011E+03  0.39336507175E+03  0.12509000000E+03 0.  0.
<mgrwt>
<rscale>  2 0.45743188E+03</rscale>
<asrwt>0</asrwt>
<pdfrwt beam="1">  1       21 0.52257571E-02 0.45743188E+03</pdfrwt>
<pdfrwt beam="2">  1       21 0.21648401E+00 0.45743188E+03</pdfrwt>
<totfact> 0.23152406E+04</totfact>
</mgrwt>
</event>
<event>
 7    0  0.4685107E-002  0.4483843E+03  0.7546771E-02  0.1028205E+00
         21   -1    0    0  502  501  0.00000000000E+00  0.00000000000E+00  0.89859923975E+02  0.89859923975E+02  0.00000000000E+00 0.  1.
         21   -1    0    0  501  502 -0.00000000000E+00 -0.00000000000E+00 -0.55933850866E+03  0.55933850866E+03  0.00000000000E+00 0.  1.
      99926    2    1    2    0    0  0.00000000000E+00  0.00000000000E+00 -0.46947858469E+03  0.64919843264E+03  0.44838428101E+03 0.  0.
      99925    2    3    3    0    0 -0.61890702322E+02 -0.65323667135E+02 -0.38072024684E+03  0.47136932602E+03  0.26295150625E+03 0.  0.
         25    1    4    4    0    0 -0.29492790751E+02 -0.52050133517E+02 -0.13552109287E+03  0.19388789498E+03  0.12509000000E+03 0.  0.
         25    1    3    3    0    0  0.61890702322E+02  0.65323667135E+02 -0.88758337849E+02  0.17782910661E+03  0.12509000000E+03 0.  0.
         25    1    4    4    0    0 -0.32397911570E+02 -0.13273533618E+02 -0.24519915397E+03  0.27748143105E+03  0.12509000000E+03 0.  0.
<mgrwt>
<rscale>  2 0.44838428E+03</rscale>
<asrwt>0</asrwt>
<pdfrwt beam="1">  1       21 0.13214695E-01 0.44838428E+03</pdfrwt>
<pdfrwt beam="2">  1       21 0.82255659E-01 0.44838428E+03</pdfrwt>
<totfact> 0.58754547E+04</totfact>
</mgrwt>
</event>
<event>
 7    0  0.4685107E-002  0.4679468E+03  0.7546771E-02  0.1022501E+00
         21   -1    0    0  502  501  0.00000000000E+00  0.00000000000E+00  0.67620388327E+03  0.67620388327E+03  0.00000000000E+00 0. -1.
         21   -1    0    0  501  502 -0.00000000000E+00 -0.00000000000E+00 -0.80957180765E+02  0.80957180765E+02  0.00000000000E+00 0. -1.
      99926    2    1    2    0    0  0.00000000000E+00  0.00000000000E+00  0.59524670250E+03  0.75716106403E+03  0.46794683464E+03 0.  0.
      99925    2    3    3    0    0 -0.74300762739E+02 -0.18696165323E+02  0.53007789682E+03  0.59664741578E+03  0.26293613696E+03 0.  0.
         25    1    4    4    0    0 -0.52286424325E+02  0.24801497758E+02  0.30251910099E+03  0.33243690984E+03  0.12509000000E+03 0.  0.
         25    1    3    3    0    0  0.74300762739E+02  0.18696165323E+02  0.65168805681E+02  0.16051364825E+03  0.12509000000E+03 0.  0.
         25    1    4    4    0    0 -0.22014338413E+02 -0.43497663081E+02  0.22755879583E+03  0.26421050594E+03  0.12509000000E+03 0.  0.
<mgrwt>
<rscale>  2 0.46794683E+03</rscale>
<asrwt>0</asrwt>
<pdfrwt beam="1">  1       21 0.99441745E-01 0.46794683E+03</pdfrwt>
<pdfrwt beam="2">  1       21 0.11905468E-01 0.46794683E+03</pdfrwt>
<totfact> 0.45136537E+04</totfact>
</mgrwt>
</event>
<event>
 7    0  0.4685107E-002  0.4328160E+03  0.7546771E-02  0.1032974E+00
         21   -1    0    0  502  501  0.00000000000E+00  0.00000000000E+00  0.14338151287E+03  0.14338151287E+03  0.00000000000E+00 0. -1.
         21   -1    0    0  501  502 -0.00000000000E+00 -0.00000000000E+00 -0.32662804413E+03  0.32662804413E+03  0.00000000000E+00 0. -1.
      99926    2    1    2    0    0  0.00000000000E+00  0.00000000000E+00 -0.18324653126E+03  0.47000955700E+03  0.43281600300E+03 0.  0.
      99925    2    3    3    0    0 -0.64283229605E+02 -0.49774969928E+02 -0.16177032590E+03  0.31928259611E+03  0.26298641904E+03 0.  0.
         25    1    3    3    0    0  0.64283229605E+02  0.49774969928E+02 -0.21476205362E+02  0.15072696088E+03  0.12509000000E+03 0.  0.
         25    1    4    4    0    0 -0.59608294290E+02 -0.10779747036E+02 -0.11394075530E+03  0.17972021454E+03  0.12509000000E+03 0.  0.
         25    1    4    4    0    0 -0.46749353151E+01 -0.38995222892E+02 -0.47829570594E+02  0.13956238158E+03  0.12509000000E+03 0.  0.
<mgrwt>
<rscale>  2 0.43281600E+03</rscale>
<asrwt>0</asrwt>
<pdfrwt beam="1">  1       21 0.21085517E-01 0.43281600E+03</pdfrwt>
<pdfrwt beam="2">  1       21 0.48033535E-01 0.43281600E+03</pdfrwt>
<totfact> 0.80743316E+04</totfact>
</mgrwt>
</event>
<event>
 7    0  0.4685107E-002  0.4636025E+03  0.7546771E-02  0.1023742E+00
         21   -1    0    0  502  501  0.00000000000E+00  0.00000000000E+00  0.63652064102E+03  0.63652064102E+03  0.00000000000E+00 0.  1.
         21   -1    0    0  501  502 -0.00000000000E+00 -0.00000000000E+00 -0.84414886051E+02  0.84414886051E+02  0.00000000000E+00 0.  1.
      99926    2    1    2    0    0  0.00000000000E+00  0.00000000000E+00  0.55210575497E+03  0.72093552707E+03  0.46360249085E+03 0.  0.
      99925    2    3    3    0    0  0.66260568694E+02  0.95633822925E+02  0.29246586117E+03  0.41013547301E+03  0.26294207579E+03 0.  0.
         25    1    3    3    0    0 -0.66260568694E+02 -0.95633822925E+02  0.25963989380E+03  0.31080005406E+03  0.12509000000E+03 0.  0.
         25    1    4    4    0    0  0.52148673459E+02  0.14605543974E+02  0.11845104974E+03  0.18058506401E+03  0.12509000000E+03 0.  0.
         25    1    4    4    0    0  0.14111895235E+02  0.81028278951E+02  0.17401481143E+03  0.22955040900E+03  0.12509000000E+03 0.  0.
<mgrwt>
<rscale>  2 0.46360249E+03</rscale>
<asrwt>0</asrwt>
<pdfrwt beam="1">  1       21 0.93605974E-01 0.46360249E+03</pdfrwt>
<pdfrwt beam="2">  1       21 0.12413954E-01 0.46360249E+03</pdfrwt>
<totfact> 0.48420603E+04</totfact>
</mgrwt>
</event>
<event>
 7    0  0.4685107E-002  0.4565312E+03  0.7546771E-02  0.1025792E+00
         21   -1    0    0  502  501  0.00000000000E+00  0.00000000000E+00  0.75048362217E+02  0.75048362217E+02  0.00000000000E+00 0. -1.
         21   -1    0    0  501  502 -0.00000000000E+00 -0.00000000000E+00 -0.69428815753E+03  0.69428815753E+03  0.00000000000E+00 0. -1.
      99926    2    1    2    0    0  0.00000000000E+00  0.14210854715E-13 -0.61923979531E+03  0.76933651975E+03  0.45653122184E+03 0.  0.
      99925    2    3    3    0    0 -0.37361816107E+02 -0.84000590505E+02 -0.50441801362E+03  0.57624702195E+03  0.26300397969E+03 0.  0.
         25    1    4    4    0    0 -0.16938885163E+02 -0.70145820511E+01 -0.28050524457E+03  0.30767975319E+03  0.12509000000E+03 0.  0.
         25    1    3    3    0    0  0.37361816107E+02  0.84000590505E+02 -0.11482178169E+03  0.19308949780E+03  0.12509000000E+03 0.  0.
         25    1    4    4    0    0 -0.20422930944E+02 -0.76986008454E+02 -0.22391276905E+03  0.26856726876E+03  0.12509000000E+03 0.  0.
<mgrwt>
<rscale>  2 0.45653122E+03</rscale>
<asrwt>0</asrwt>
<pdfrwt beam="1">  1       21 0.11036524E-01 0.45653122E+03</pdfrwt>
<pdfrwt beam="2">  1       21 0.10210120E+00 0.45653122E+03</pdfrwt>
<totfact> 0.48695674E+04</totfact>
</mgrwt>
</event>
<event>
 7    0  0.4685107E-002  0.4660839E+03  0.7546771E-02  0.1023031E+00
         21   -1    0    0  502  501  0.00000000000E+00  0.00000000000E+00  0.75777528712E+02  0.75777528712E+02  0.00000000000E+00 0.  1.
         21   -1    0    0  501  502 -0.00000000000E+00 -0.00000000000E+00 -0.71668412298E+03  0.71668412298E+03  0.00000000000E+00 0.  1.
      99926    2    1    2    0    0  0.13322676296E-14 -0.14210854715E-13 -0.64090659426E+03  0.79246165169E+03  0.46608390535E+03 0.  0.
      99925    2    3    3    0    0  0.29479439255E+01 -0.12140070910E+03 -0.43562560310E+03  0.52313913875E+03  0.26297921946E+03 0.  0.
         25    1    4    4    0    0 -0.14726026686E+02 -0.91442815386E+02 -0.28104205825E+03  0.32126436303E+03  0.12509000000E+03 0.  0.
         25    1    4    4    0    0  0.17673970612E+02 -0.29957893712E+02 -0.15458354486E+03  0.20187477572E+03  0.12509000000E+03 0.  0.
         25    1    3    3    0    0 -0.29479439255E+01  0.12140070910E+03 -0.20528099116E+03  0.26932251294E+03  0.12509000000E+03 0.  0.
<mgrwt>
<rscale>  2 0.46608391E+03</rscale>
<asrwt>0</asrwt>
<pdfrwt beam="1">  1       21 0.11143755E-01 0.46608391E+03</pdfrwt>
<pdfrwt beam="2">  1       21 0.10539472E+00 0.46608391E+03</pdfrwt>
<totfact> 0.44162789E+04</totfact>
</mgrwt>
</event>
<event>
 7    0  0.4685107E-002  0.4534729E+03  0.7546771E-02  0.1026691E+00
         21   -1    0    0  502  501  0.00000000000E+00  0.00000000000E+00  0.52567265422E+02  0.52567265422E+02  0.00000000000E+00 0.  1.
         21   -1    0    0  501  502 -0.00000000000E+00 -0.00000000000E+00 -0.97797376395E+03  0.97797376395E+03  0.00000000000E+00 0.  1.
      99926    2    1    2    0    0  0.00000000000E+00  0.00000000000E+00 -0.92540649853E+03  0.10305410294E+04  0.45347285001E+03 0.  0.
      99925    2    3    3    0    0  0.97739138179E+02  0.53927963799E+02 -0.59022144804E+03  0.65576417499E+03  0.26306678061E+03 0.  0.
         25    1    3    3    0    0 -0.97739138179E+02 -0.53927963799E+02 -0.33518505049E+03  0.37477685438E+03  0.12509000000E+03 0.  0.
         25    1    4    4    0    0  0.76037030918E+02  0.60603304135E+02 -0.31517196977E+03  0.35275383651E+03  0.12509000000E+03 0.  0.
         25    1    4    4    0    0  0.21702107261E+02 -0.66753403354E+01 -0.27504947827E+03  0.30301033848E+03  0.12509000000E+03 0.  0.
<mgrwt>
<rscale>  2 0.45347285E+03</rscale>
<asrwt>0</asrwt>
<pdfrwt beam="1">  1       21 0.77304814E-02 0.45347285E+03</pdfrwt>
<pdfrwt beam="2">  1       21 0.14381965E+00 0.45347285E+03</pdfrwt>
<totfact> 0.38456052E+04</totfact>
</mgrwt>
</event>
<event>
 7    0  0.4685107E-002  0.4559759E+03  0.7546771E-02  0.1025955E+00
         21   -1    0    0  502  501  0.00000000000E+00  0.00000000000E+00  0.16103917468E+03  0.16103917468E+03  0.00000000000E+00 0.  1.
         21   -1    0    0  501  502 -0.00000000000E+00 -0.00000000000E+00 -0.32276939287E+03  0.32276939287E+03  0.00000000000E+00 0.  1.
      99926    2    1    2    0    0  0.00000000000E+00  0.00000000000E+00 -0.16173021819E+03  0.48380856755E+03  0.45597594954E+03 0.  0.
      99925    2    3    3    0    0 -0.51542168705E+02 -0.10161774339E+03 -0.95868635541E+02  0.30223759769E+03  0.26300952312E+03 0.  0.
         25    1    4    4    0    0  0.34655930558E+01 -0.54945322756E+02 -0.17057649562E+02  0.13772970027E+03  0.12509000000E+03 0.  0.
         25    1    3    3    0    0  0.51542168705E+02  0.10161774339E+03 -0.65861582649E+02  0.18157096986E+03  0.12509000000E+03 0.  0.
         25    1    4    4    0    0 -0.55007761761E+02 -0.46672420634E+02 -0.78810985979E+02  0.16450789742E+03  0.12509000000E+03 0.  0.
<mgrwt>
<rscale>  2 0.45597595E+03</rscale>
<asrwt>0</asrwt>
<pdfrwt beam="1">  1       21 0.23682232E-01 0.45597595E+03</pdfrwt>
<pdfrwt beam="2">  1       21 0.47466087E-01 0.45597595E+03</pdfrwt>
<totfact> 0.65911782E+04</totfact>
</mgrwt>
</event>
<event>
 7    0  0.4685107E-002  0.4515396E+03  0.7546771E-02  0.1027264E+00
         21   -1    0    0  502  501  0.00000000000E+00  0.00000000000E+00  0.61888774437E+03  0.61888774437E+03  0.00000000000E+00 0. -1.
         21   -1    0    0  501  502 -0.00000000000E+00 -0.00000000000E+00 -0.82360665568E+02  0.82360665568E+02  0.00000000000E+00 0. -1.
      99926    2    1    2    0    0  0.00000000000E+00  0.00000000000E+00  0.53652707880E+03  0.70124840994E+03  0.45153961748E+03 0.  0.
      99925    2    3    3    0    0 -0.76544975907E+02  0.43253371460E+02  0.23395333067E+03  0.36223754192E+03  0.26220581298E+03 0.  0.
         25    1    3    3    0    0  0.76544975907E+02 -0.43253371460E+02  0.30257374813E+03  0.33901086802E+03  0.12509000000E+03 0.  0.
         25    1    4    4    0    0 -0.44922480142E+01  0.14674921472E+01  0.12240357289E+03  0.17507848692E+03  0.12509000000E+03 0.  0.
         25    1    4    4    0    0 -0.72052727893E+02  0.41785879312E+02  0.11154975778E+03  0.18715905500E+03  0.12509000000E+03 0.  0.
<mgrwt>
<rscale>  2 0.45153962E+03</rscale>
<asrwt>0</asrwt>
<pdfrwt beam="1">  1       21 0.91012901E-01 0.45153962E+03</pdfrwt>
<pdfrwt beam="2">  1       21 0.12111863E-01 0.45153962E+03</pdfrwt>
<totfact> 0.54298817E+04</totfact>
</mgrwt>
</event>
<event>
 7    0  0.4685107E-002  0.4380162E+03  0.7546771E-02  0.1031357E+00
         21   -1    0    0  502  501  0.00000000000E+00  0.00000000000E+00  0.10288367091E+03  0.10288367091E+03  0.00000000000E+00 0.  1.
         21   -1    0    0  501  502 -0.00000000000E+00 -0.00000000000E+00 -0.46620184579E+03  0.46620184579E+03  0.00000000000E+00 0.  1.
      99926    2    1    2    0    0  0.14210854715E-13  0.00000000000E+00 -0.36331817489E+03  0.56908551670E+03  0.43801624298E+03 0.  0.
      99925    2    3    3    0    0  0.66664593288E+02  0.54903485647E+02 -0.17646697889E+03  0.32821327197E+03  0.26291594955E+03 0.  0.
         25    1    4    4    0    0  0.31568387965E+02  0.18356788614E+01 -0.12231528352E+03  0.17778770913E+03  0.12509000000E+03 0.  0.
         25    1    3    3    0    0 -0.66664593288E+02 -0.54903485647E+02 -0.18685119600E+03  0.24087224473E+03  0.12509000000E+03 0.  0.
         25    1    4    4    0    0  0.35096205323E+02  0.53067806786E+02 -0.54151695365E+02  0.15042556284E+03  0.12509000000E+03 0.  0.
<mgrwt>
<rscale>  2 0.43801624E+03</rscale>
<asrwt>0</asrwt>
<pdfrwt beam="1">  1       21 0.15129952E-01 0.43801624E+03</pdfrwt>
<pdfrwt beam="2">  1       21 0.68559094E-01 0.43801624E+03</pdfrwt>
<totfact> 0.69496424E+04</totfact>
</mgrwt>
</event>
<event>
 7    0  0.4685107E-002  0.4559853E+03  0.7546771E-02  0.1025952E+00
         21   -1    0    0  502  501  0.00000000000E+00  0.00000000000E+00  0.17699818655E+03  0.17699818655E+03  0.00000000000E+00 0.  1.
         21   -1    0    0  501  502 -0.00000000000E+00 -0.00000000000E+00 -0.29367901275E+03  0.29367901275E+03  0.00000000000E+00 0.  1.
      99926    2    1    2    0    0  0.00000000000E+00  0.71054273576E-14 -0.11668082619E+03  0.47067719930E+03  0.45598531856E+03 0.  0.
      99925    2    3    3    0    0  0.27803512484E+02  0.33208550555E+02 -0.18225092136E+03  0.32295181686E+03  0.26307153883E+03 0.  0.
         25    1    4    4    0    0 -0.10992636103E+01  0.39871802209E+01 -0.13231505792E+03  0.18213151468E+03  0.12509000000E+03 0.  0.
         25    1    3    3    0    0 -0.27803512484E+02 -0.33208550555E+02  0.65570095165E+02  0.14772538244E+03  0.12509000000E+03 0.  0.
         25    1    4    4    0    0  0.28902776094E+02  0.29221370334E+02 -0.49935863438E+02  0.14082030219E+03  0.12509000000E+03 0.  0.
<mgrwt>
<rscale>  2 0.45598532E+03</rscale>
<asrwt>0</asrwt>
<pdfrwt beam="1">  1       21 0.26029145E-01 0.45598532E+03</pdfrwt>
<pdfrwt beam="2">  1       21 0.43188090E-01 0.45598532E+03</pdfrwt>
<totfact> 0.66861231E+04</totfact>
</mgrwt>
</event>
<event>
 7    0  0.4685107E-002  0.4559555E+03  0.7546771E-02  0.1025961E+00
         21   -1    0    0  502  501  0.00000000000E+00  0.00000000000E+00  0.32238705802E+02  0.32238705802E+02  0.00000000000E+00 0. -1.
         21   -1    0    0  501  502 -0.00000000000E+00 -0.00000000000E+00 -0.16121568225E+04  0.16121568225E+04  0.00000000000E+00 0. -1.
      99926    2    1    2    0    0  0.00000000000E+00  0.00000000000E+00 -0.15799181167E+04  0.16443955283E+04  0.45595547812E+03 0.  0.
      99925    2    3    3    0    0 -0.37531821843E+02 -0.10743156257E+03 -0.10212170890E+04  0.10606622632E+04  0.26300174051E+03 0.  0.
         25    1    4    4    0    0 -0.17997988850E+01 -0.40093499152E+02 -0.35493162621E+03  0.37846359843E+03  0.12509000000E+03 0.  0.
         25    1    3    3    0    0  0.37531821843E+02  0.10743156257E+03 -0.55870102769E+03  0.58373326505E+03  0.12509000000E+03 0.  0.
         25    1    4    4    0    0 -0.35732022958E+02 -0.67338063421E+02 -0.66628546280E+03  0.68219866482E+03  0.12509000000E+03 0.  0.
<mgrwt>
<rscale>  2 0.45595548E+03</rscale>
<asrwt>0</asrwt>
<pdfrwt beam="1">  1       21 0.47409869E-02 0.45595548E+03</pdfrwt>
<pdfrwt beam="2">  1       21 0.23708185E+00 0.45595548E+03</pdfrwt>
<totfact> 0.20293914E+04</totfact>
</mgrwt>
</event>
<event>
 7    0  0.4685107E-002  0.4552633E+03  0.7546771E-02  0.1026164E+00
         21   -1    0    0  502  501  0.00000000000E+00  0.00000000000E+00  0.56860891184E+02  0.56860891184E+02  0.00000000000E+00 0. -1.
         21   -1    0    0  501  502 -0.00000000000E+00 -0.00000000000E+00 -0.91127951465E+03  0.91127951465E+03  0.00000000000E+00 0. -1.
      99926    2    1    2    0    0 -0.17763568394E-14  0.00000000000E+00 -0.85441862347E+03  0.96814040583E+03  0.45526328787E+03 0.  0.
      99925    2    3    3    0    0 -0.80934460200E+01  0.56585981532E+02 -0.74589639429E+03  0.79294891203E+03  0.26294309063E+03 0.  0.
         25    1    4    4    0    0  0.47609535423E+01  0.55812309889E+02 -0.47329943048E+03  0.49274490318E+03  0.12509000000E+03 0.  0.
         25    1    3    3    0    0  0.80934460200E+01 -0.56585981532E+02 -0.10852222918E+03  0.17519149380E+03  0.12509000000E+03 0.  0.
         25    1    4    4    0    0 -0.12854399562E+02  0.77367164313E+00 -0.27259696380E+03  0.30020400885E+03  0.12509000000E+03 0.  0.
<mgrwt>
<rscale>  2 0.45526329E+03</rscale>
<asrwt>0</asrwt>
<pdfrwt beam="1">  1       21 0.83618961E-02 0.45526329E+03</pdfrwt>
<pdfrwt beam="2">  1       21 0.13401169E+00 0.45526329E+03</pdfrwt>
<totfact> 0.40331788E+04</totfact>
</mgrwt>
</event>
<event>
 7    0  0.4685107E-002  0.4546987E+03  0.7546771E-02  0.1026330E+00
         21   -1    0    0  502  501  0.00000000000E+00  0.00000000000E+00  0.18963977799E+02  0.18963977799E+02  0.00000000000E+00 0. -1.
         21   -1    0    0  501  502 -0.00000000000E+00 -0.00000000000E+00 -0.27255736410E+04  0.27255736410E+04  0.00000000000E+00 0. -1.
      99926    2    1    2    0    0  0.17763568394E-14  0.00000000000E+00 -0.27066096632E+04  0.27445376188E+04  0.45469866073E+03 0.  0.
      99925    2    3    3    0    0  0.13638676365E+02  0.89610124465E+02 -0.21102185030E+04  0.21284646427E+04  0.26291370566E+03 0.  0.
         25    1    3    3    0    0 -0.13638676365E+02 -0.89610124465E+02 -0.59639116016E+03  0.61607297613E+03  0.12509000000E+03 0.  0.
         25    1    4    4    0    0  0.31056353936E+02  0.14734531154E+02 -0.87864591389E+03  0.88817101598E+03  0.12509000000E+03 0.  0.
         25    1    4    4    0    0 -0.17417677572E+02  0.74875593311E+02 -0.12315725891E+04  0.12402936267E+04  0.12509000000E+03 0.  0.
<mgrwt>
<rscale>  2 0.45469866E+03</rscale>
<asrwt>0</asrwt>
<pdfrwt beam="1">  1       21 0.27888221E-02 0.45469866E+03</pdfrwt>
<pdfrwt beam="2">  1       21 0.40081939E+00 0.45469866E+03</pdfrwt>
<totfact> 0.49511822E+03</totfact>
</mgrwt>
</event>
<event>
 7    0  0.4685107E-002  0.4370405E+03  0.7546771E-02  0.1031659E+00
         21   -1    0    0  502  501  0.00000000000E+00  0.00000000000E+00  0.45002636511E+03  0.45002636511E+03  0.00000000000E+00 0.  1.
         21   -1    0    0  501  502 -0.00000000000E+00 -0.00000000000E+00 -0.10610735468E+03  0.10610735468E+03  0.00000000000E+00 0.  1.
      99926    2    1    2    0    0 -0.35527136788E-14  0.00000000000E+00  0.34391901043E+03  0.55613371979E+03  0.43704053422E+03 0.  0.
      99925    2    3    3    0    0  0.97007517153E+01 -0.84919514406E+02  0.27395738994E+03  0.38925782293E+03  0.26298968173E+03 0.  0.
         25    1    4    4    0    0 -0.33367438307E+02 -0.30576074427E+02  0.12055929129E+03  0.17952808438E+03  0.12509000000E+03 0.  0.
         25    1    3    3    0    0 -0.97007517153E+01  0.84919514406E+02  0.69961620483E+02  0.16687589686E+03  0.12509000000E+03 0.  0.
         25    1    4    4    0    0  0.43068190022E+02 -0.54343439979E+02  0.15339809866E+03  0.20972973855E+03  0.12509000000E+03 0.  0.
<mgrwt>
<rscale>  2 0.43704053E+03</rscale>
<asrwt>0</asrwt>
<pdfrwt beam="1">  1       21 0.66180347E-01 0.43704053E+03</pdfrwt>
<pdfrwt beam="2">  1       21 0.15604023E-01 0.43704053E+03</pdfrwt>
<totfact> 0.71028743E+04</totfact>
</mgrwt>
</event>
<event>
 7    0  0.4685107E-002  0.4000351E+03  0.7546771E-02  0.1043768E+00
         21   -1    0    0  502  501  0.00000000000E+00  0.00000000000E+00  0.16519254326E+04  0.16519254326E+04  0.00000000000E+00 0.  1.
         21   -1    0    0  501  502 -0.00000000000E+00 -0.00000000000E+00 -0.24218420815E+02  0.24218420815E+02  0.00000000000E+00 0.  1.
      99926    2    1    2    0    0  0.35527136788E-14  0.17763568394E-14  0.16277070118E+04  0.16761438534E+04  0.40003512487E+03 0.  0.
      99925    2    3    3    0    0  0.27155772680E+02 -0.11711385044E+02  0.12309688974E+04  0.12591028098E+04  0.26302255954E+03 0.  0.
         25    1    4    4    0    0  0.29074940593E+02 -0.31028830979E+02  0.49510147445E+03  0.51242669585E+03  0.12509000000E+03 0.  0.
         25    1    3    3    0    0 -0.27155772680E+02  0.11711385044E+02  0.39673811445E+03  0.41704104365E+03  0.12509000000E+03 0.  0.
         25    1    4    4    0    0 -0.19191679128E+01  0.19317445936E+02  0.73586742291E+03  0.74667611394E+03  0.12509000000E+03 0.  0.
<mgrwt>
<rscale>  2 0.40003512E+03</rscale>
<asrwt>0</asrwt>
<pdfrwt beam="1">  1       21 0.24293013E+00 0.40003512E+03</pdfrwt>
<pdfrwt beam="2">  1       21 0.35615336E-02 0.40003512E+03</pdfrwt>
<totfact> 0.31049241E+04</totfact>
</mgrwt>
</event>
<event>
 7    0  0.4685107E-002  0.4546997E+03  0.7546771E-02  0.1026330E+00
         21   -1    0    0  502  501  0.00000000000E+00  0.00000000000E+00  0.19909369236E+03  0.19909369236E+03  0.00000000000E+00 0. -1.
         21   -1    0    0  501  502 -0.00000000000E+00 -0.00000000000E+00 -0.25961621339E+03  0.25961621339E+03  0.00000000000E+00 0. -1.
      99926    2    1    2    0    0  0.00000000000E+00  0.00000000000E+00 -0.60522521037E+02  0.45870990575E+03  0.45469968340E+03 0.  0.
      99925    2    3    3    0    0 -0.10682389337E+03 -0.25497016919E+02 -0.64292748455E+02  0.29220715868E+03  0.26303996657E+03 0.  0.
         25    1    4    4    0    0 -0.60601234546E+02  0.19880124791E+02 -0.84127082461E+01  0.14066275538E+03  0.12509000000E+03 0.  0.
         25    1    4    4    0    0 -0.46222658828E+02 -0.45377141710E+02 -0.55880040209E+02  0.15154440330E+03  0.12509000000E+03 0.  0.
         25    1    3    3    0    0  0.10682389337E+03  0.25497016919E+02  0.37702274178E+01  0.16650274707E+03  0.12509000000E+03 0.  0.
<mgrwt>
<rscale>  2 0.45469968E+03</rscale>
<asrwt>0</asrwt>
<pdfrwt beam="1">  1       21 0.29278484E-01 0.45469968E+03</pdfrwt>
<pdfrwt beam="2">  1       21 0.38178855E-01 0.45469968E+03</pdfrwt>
<totfact> 0.68438445E+04</totfact>
</mgrwt>
</event>
<event>
 6    0  0.7085241E-002  0.4872733E+03  0.7546771E-02  0.1017155E+00
         21   -1    0    0  502  501  0.00000000000E+00  0.00000000000E+00  0.67999338277E+02  0.67999338277E+02  0.00000000000E+00 0. -1.
         21   -1    0    0  501  502 -0.00000000000E+00 -0.00000000000E+00 -0.87293241300E+03  0.87293241300E+03  0.00000000000E+00 0. -1.
      99926    2    1    2    0    0  0.00000000000E+00  0.71054273576E-14 -0.80493307473E+03  0.94093175128E+03  0.48727333785E+03 0.  0.
         25    1    3    3    0    0  0.71122876632E+02  0.74728459769E+02 -0.38981664031E+03  0.42219347158E+03  0.12509000000E+03 0.  0.
         25    1    3    3    0    0 -0.39765574704E+02 -0.53028088203E+02 -0.88594779092E+02  0.16700246122E+03  0.12509000000E+03 0.  0.
         25    1    3    3    0    0 -0.31357301927E+02 -0.21700371567E+02 -0.32652165533E+03  0.35173581849E+03  0.12509000000E+03 0.  0.
<mgrwt>
<rscale>  2 0.48727334E+03</rscale>
<asrwt>0</asrwt>
<pdfrwt beam="1">  1       21 0.99999037E-02 0.48727334E+03</pdfrwt>
<pdfrwt beam="2">  1       21 0.12837240E+00 0.48727334E+03</pdfrwt>
<totfact> 0.32493636E+04</totfact>
</mgrwt>
</event>
<event>
 7    0  0.4685107E-002  0.4551489E+03  0.7546771E-02  0.1026198E+00
         21   -1    0    0  502  501  0.00000000000E+00  0.00000000000E+00  0.54518551032E+03  0.54518551032E+03  0.00000000000E+00 0.  1.
         21   -1    0    0  501  502 -0.00000000000E+00 -0.00000000000E+00 -0.94995414335E+02  0.94995414335E+02  0.00000000000E+00 0.  1.
      99926    2    1    2    0    0  0.00000000000E+00  0.00000000000E+00  0.45019009599E+03  0.64018092466E+03  0.45514886990E+03 0.  0.
      99925    2    3    3    0    0 -0.83198599276E+02  0.94908561166E+01  0.39062915839E+03  0.47829486393E+03  0.26298812560E+03 0.  0.
         25    1    4    4    0    0 -0.72067751435E+01  0.28213180709E+02  0.18351853318E+03  0.22399661001E+03  0.12509000000E+03 0.  0.
         25    1    4    4    0    0 -0.75991824132E+02 -0.18722324592E+02  0.20711062520E+03  0.25429825392E+03  0.12509000000E+03 0.  0.
         25    1    3    3    0    0  0.83198599276E+02 -0.94908561166E+01  0.59560937602E+02  0.16188606073E+03  0.12509000000E+03 0.  0.
<mgrwt>
<rscale>  2 0.45514887E+03</rscale>
<asrwt>0</asrwt>
<pdfrwt beam="1">  1       21 0.80174339E-01 0.45514887E+03</pdfrwt>
<pdfrwt beam="2">  1       21 0.13969914E-01 0.45514887E+03</pdfrwt>
<totfact> 0.56204680E+04</totfact>
</mgrwt>
</event>
<event>
 7    0  0.4685107E-002  0.4603636E+03  0.7546771E-02  0.1024676E+00
         21   -1    0    0  502  501  0.00000000000E+00  0.00000000000E+00  0.31537765482E+03  0.31537765482E+03  0.00000000000E+00 0. -1.
         21   -1    0    0  501  502 -0.00000000000E+00 -0.00000000000E+00 -0.16800066410E+03  0.16800066410E+03  0.00000000000E+00 0. -1.
      99926    2    1    2    0    0  0.00000000000E+00  0.00000000000E+00  0.14737699072E+03  0.48337831893E+03  0.46036357568E+03 0.  0.
      99925    2    3    3    0    0  0.22341821562E+02 -0.98943604776E+02  0.15601822801E+03  0.32209852168E+03  0.26290069662E+03 0.  0.
         25    1    4    4    0    0  0.17021394577E+02 -0.75091914761E+02  0.11994090953E+03  0.18963610789E+03  0.12509000000E+03 0.  0.
         25    1    4    4    0    0  0.53204269850E+01 -0.23851690015E+02  0.36077318482E+02  0.13246241380E+03  0.12509000000E+03 0.  0.
         25    1    3    3    0    0 -0.22341821562E+02  0.98943604776E+02 -0.86412372934E+01  0.16127979724E+03  0.12509000000E+03 0.  0.
<mgrwt>
<rscale>  2 0.46036358E+03</rscale>
<asrwt>0</asrwt>
<pdfrwt beam="1">  1       21 0.46379067E-01 0.46036358E+03</pdfrwt>
<pdfrwt beam="2">  1       21 0.24705980E-01 0.46036358E+03</pdfrwt>
<totfact> 0.63699587E+04</totfact>
</mgrwt>
</event>
<event>
 7    0  0.4685107E-002  0.4456994E+03  0.7546771E-02  0.1029012E+00
         21   -1    0    0  502  501  0.00000000000E+00  0.00000000000E+00  0.29685350392E+03  0.29685350392E+03  0.00000000000E+00 0.  1.
         21   -1    0    0  501  502 -0.00000000000E+00 -0.00000000000E+00 -0.16729462314E+03  0.16729462314E+03  0.00000000000E+00 0.  1.
      99926    2    1    2    0    0  0.00000000000E+00 -0.15543122345E-14  0.12955888078E+03  0.46414812706E+03  0.44569942816E+03 0.  0.
      99925    2    3    3    0    0  0.70968386392E+02 -0.19921491328E+01  0.28592399225E+01  0.27246926120E+03  0.26304152242E+03 0.  0.
         25    1    4    4    0    0  0.24778425109E+02 -0.19628880341E+02  0.35978863642E+02  0.13394495147E+03  0.12509000000E+03 0.  0.
         25    1    4    4    0    0  0.46189961284E+02  0.17636731208E+02 -0.33119623719E+02  0.13852430973E+03  0.12509000000E+03 0.  0.
         25    1    3    3    0    0 -0.70968386392E+02  0.19921491328E+01  0.12669964085E+03  0.19167886586E+03  0.12509000000E+03 0.  0.
<mgrwt>
<rscale>  2 0.44569943E+03</rscale>
<asrwt>0</asrwt>
<pdfrwt beam="1">  1       21 0.43654927E-01 0.44569943E+03</pdfrwt>
<pdfrwt beam="2">  1       21 0.24602150E-01 0.44569943E+03</pdfrwt>
<totfact> 0.73121613E+04</totfact>
</mgrwt>
</event>
<event>
 7    0  0.4685107E-002  0.4541056E+03  0.7546771E-02  0.1026505E+00
         21   -1    0    0  502  501  0.00000000000E+00  0.00000000000E+00  0.13797916337E+03  0.13797916337E+03  0.00000000000E+00 0.  1.
         21   -1    0    0  501  502 -0.00000000000E+00 -0.00000000000E+00 -0.37362875599E+03  0.37362875599E+03  0.00000000000E+00 0.  1.
      99926    2    1    2    0    0  0.14210854715E-13 -0.35527136788E-14 -0.23564959262E+03  0.51160791936E+03  0.45410564041E+03 0.  0.
      99925    2    3    3    0    0 -0.81581885676E+02  0.12558718516E+02 -0.23383208405E+03  0.36172751064E+03  0.26335531690E+03 0.  0.
         25    1    4    4    0    0 -0.69743872969E+02  0.36653316483E+02 -0.11822387362E+03  0.18929359688E+03  0.12509000000E+03 0.  0.
         25    1    3    3    0    0  0.81581885676E+02 -0.12558718516E+02 -0.18175085724E+01  0.14988040872E+03  0.12509000000E+03 0.  0.
         25    1    4    4    0    0 -0.11838012707E+02 -0.24094597967E+02 -0.11560821043E+03  0.17243391376E+03  0.12509000000E+03 0.  0.
<mgrwt>
<rscale>  2 0.45410564E+03</rscale>
<asrwt>0</asrwt>
<pdfrwt beam="1">  1       21 0.20291054E-01 0.45410564E+03</pdfrwt>
<pdfrwt beam="2">  1       21 0.54945405E-01 0.45410564E+03</pdfrwt>
<totfact> 0.64922183E+04</totfact>
</mgrwt>
</event>
<event>
 7    0  0.4685107E-002  0.4585596E+03  0.7546771E-02  0.1025200E+00
         21   -1    0    0  502  501  0.00000000000E+00  0.00000000000E+00  0.72616641061E+03  0.72616641061E+03  0.00000000000E+00 0.  1.
         21   -1    0    0  501  502 -0.00000000000E+00 -0.00000000000E+00 -0.72392797521E+02  0.72392797521E+02  0.00000000000E+00 0.  1.
      99926    2    1    2    0    0  0.00000000000E+00  0.00000000000E+00  0.65377361309E+03  0.79855920813E+03  0.45855956180E+03 0.  0.
      99925    2    3    3    0    0  0.24190493594E+02 -0.84320787972E+02  0.54350008824E+03  0.61013698639E+03  0.26302019119E+03 0.  0.
         25    1    4    4    0    0  0.45051574095E+02 -0.20588794593E+02  0.24149700174E+03  0.27644502662E+03  0.12509000000E+03 0.  0.
         25    1    4    4    0    0 -0.20861080501E+02 -0.63731993379E+02  0.30200308650E+03  0.33369195977E+03  0.12509000000E+03 0.  0.
         25    1    3    3    0    0 -0.24190493594E+02  0.84320787972E+02  0.11027352485E+03  0.18842222175E+03  0.12509000000E+03 0.  0.
<mgrwt>
<rscale>  2 0.45855956E+03</rscale>
<asrwt>0</asrwt>
<pdfrwt beam="1">  1       21 0.10678917E+00 0.45855956E+03</pdfrwt>
<pdfrwt beam="2">  1       21 0.10646000E-01 0.45855956E+03</pdfrwt>
<totfact> 0.46521329E+04</totfact>
</mgrwt>
</event>
<event>
 7    0  0.4685107E-002  0.4401421E+03  0.7546771E-02  0.1030703E+00
         21   -1    0    0  502  501  0.00000000000E+00  0.00000000000E+00  0.10509282504E+03  0.10509282504E+03  0.00000000000E+00 0. -1.
         21   -1    0    0  501  502 -0.00000000000E+00 -0.00000000000E+00 -0.46084284119E+03  0.46084284119E+03  0.00000000000E+00 0. -1.
      99926    2    1    2    0    0  0.71054273576E-14 -0.35527136788E-14 -0.35575001615E+03  0.56593566622E+03  0.44014214103E+03 0.  0.
      99925    2    3    3    0    0  0.46275973724E+02 -0.23672088180E+02 -0.33475461968E+03  0.42885850447E+03  0.26297742860E+03 0.  0.
         25    1    3    3    0    0 -0.46275973724E+02  0.23672088180E+02 -0.20995396467E+02  0.13707716176E+03  0.12509000000E+03 0.  0.
         25    1    4    4    0    0  0.66368018292E+01  0.40550880445E+01 -0.21596632246E+03  0.24969872129E+03  0.12509000000E+03 0.  0.
         25    1    4    4    0    0  0.39639171895E+02 -0.27727176224E+02 -0.11878829722E+03  0.17915978317E+03  0.12509000000E+03 0.  0.
<mgrwt>
<rscale>  2 0.44014214E+03</rscale>
<asrwt>0</asrwt>
<pdfrwt beam="1">  1       21 0.15454827E-01 0.44014214E+03</pdfrwt>
<pdfrwt beam="2">  1       21 0.67771006E-01 0.44014214E+03</pdfrwt>
<totfact> 0.68529974E+04</totfact>
</mgrwt>
</event>
<event>
 7    0  0.4685107E-002  0.4619787E+03  0.7546771E-02  0.1024209E+00
         21   -1    0    0  502  501  0.00000000000E+00  0.00000000000E+00  0.19465435198E+02  0.19465435198E+02  0.00000000000E+00 0.  1.
         21   -1    0    0  501  502 -0.00000000000E+00 -0.00000000000E+00 -0.27410680110E+04  0.27410680110E+04  0.00000000000E+00 0.  1.
      99926    2    1    2    0    0  0.71054273576E-14  0.00000000000E+00 -0.27216025758E+04  0.27605334462E+04  0.46197870835E+03 0.  0.
      99925    2    3    3    0    0 -0.37435777272E+02 -0.67341525476E+02 -0.22488047208E+04  0.22654358414E+04  0.26294592748E+03 0.  0.
         25    1    4    4    0    0 -0.27626575071E+01 -0.28724906628E+02 -0.14025759987E+04  0.14084387430E+04  0.12509000000E+03 0.  0.
         25    1    3    3    0    0  0.37435777272E+02  0.67341525476E+02 -0.47279785502E+03  0.49509760481E+03  0.12509000000E+03 0.  0.
         25    1    4    4    0    0 -0.34673119765E+02 -0.38616618848E+02 -0.84622872203E+03  0.85699709834E+03  0.12509000000E+03 0.  0.
<mgrwt>
<rscale>  2 0.46197871E+03</rscale>
<asrwt>0</asrwt>
<pdfrwt beam="1">  1       21 0.28625620E-02 0.46197871E+03</pdfrwt>
<pdfrwt beam="2">  1       21 0.40309852E+00 0.46197871E+03</pdfrwt>
<totfact> 0.45639774E+03</totfact>
</mgrwt>
</event>
<event>
 7    0  0.4685107E-002  0.4511685E+03  0.7546771E-02  0.1027374E+00
         21   -1    0    0  502  501  0.00000000000E+00  0.00000000000E+00  0.17014830367E+03  0.17014830367E+03  0.00000000000E+00 0. -1.
         21   -1    0    0  501  502 -0.00000000000E+00 -0.00000000000E+00 -0.29908170758E+03  0.29908170758E+03  0.00000000000E+00 0. -1.
      99926    2    1    2    0    0  0.00000000000E+00  0.00000000000E+00 -0.12893340391E+03  0.46923001126E+03  0.45116846168E+03 0.  0.
      99925    2    3    3    0    0 -0.48857283531E+02 -0.84000475898E+02 -0.29006075023E+02  0.28194388453E+03  0.26307392028E+03 0.  0.
         25    1    4    4    0    0 -0.27657793101E+01 -0.61126807535E+01 -0.23457715721E+02  0.12744719270E+03  0.12509000000E+03 0.  0.
         25    1    3    3    0    0  0.48857283531E+02  0.84000475898E+02 -0.99927328890E+02  0.18728612673E+03  0.12509000000E+03 0.  0.
         25    1    4    4    0    0 -0.46091504221E+02 -0.77887795145E+02 -0.55483593027E+01  0.15449669182E+03  0.12509000000E+03 0.  0.
<mgrwt>
<rscale>  2 0.45116846E+03</rscale>
<asrwt>0</asrwt>
<pdfrwt beam="1">  1       21 0.25021810E-01 0.45116846E+03</pdfrwt>
<pdfrwt beam="2">  1       21 0.43982603E-01 0.45116846E+03</pdfrwt>
<totfact> 0.69584362E+04</totfact>
</mgrwt>
</event>
<event>
 7    0  0.4685107E-002  0.4575831E+03  0.7546771E-02  0.1025485E+00
         21   -1    0    0  502  501  0.00000000000E+00  0.00000000000E+00  0.28998864443E+03  0.28998864443E+03  0.00000000000E+00 0. -1.
         21   -1    0    0  501  502 -0.00000000000E+00 -0.00000000000E+00 -0.18050902374E+03  0.18050902374E+03  0.00000000000E+00 0. -1.
      99926    2    1    2    0    0 -0.71054273576E-14 -0.71054273576E-14  0.10947962068E+03  0.47049766817E+03  0.45758307269E+03 0.  0.
      99925    2    3    3    0    0 -0.58298428909E+02 -0.40387223062E+02  0.16253130508E+03  0.31722724076E+03  0.26303395703E+03 0.  0.
         25    1    4    4    0    0 -0.15750205185E+02 -0.23016337958E+02  0.12441532197E+03  0.17861831154E+03  0.12509000000E+03 0.  0.
         25    1    4    4    0    0 -0.42548223724E+02 -0.17370885104E+02  0.38115983107E+02  0.13860892922E+03  0.12509000000E+03 0.  0.
         25    1    3    3    0    0  0.58298428909E+02  0.40387223062E+02 -0.53051684398E+02  0.15327042741E+03  0.12509000000E+03 0.  0.
<mgrwt>
<rscale>  2 0.45758307E+03</rscale>
<asrwt>0</asrwt>
<pdfrwt beam="1">  1       21 0.42645389E-01 0.45758307E+03</pdfrwt>
<pdfrwt beam="2">  1       21 0.26545445E-01 0.45758307E+03</pdfrwt>
<totfact> 0.66035309E+04</totfact>
</mgrwt>
</event>
<event>
 7    0  0.4685107E-002  0.4956047E+03  0.7546771E-02  0.1014933E+00
         21   -1    0    0  502  501  0.00000000000E+00  0.00000000000E+00  0.19775897407E+04  0.19775897407E+04  0.00000000000E+00 0. -1.
         21   -1    0    0  501  502 -0.00000000000E+00 -0.00000000000E+00 -0.31050927344E+02  0.31050927344E+02  0.00000000000E+00 0. -1.
      99926    2    1    2    0    0  0.28421709430E-13  0.00000000000E+00  0.19465388133E+04  0.20086406680E+04  0.49560466242E+03 0.  0.
      99925    2    3    3    0    0 -0.13283133127E+03  0.25743074319E+02  0.14225273128E+04  0.14531747111E+04  0.26424594045E+03 0.  0.
         25    1    4    4    0    0 -0.39087658691E+02 -0.21253656581E+02  0.58305712038E+03  0.59798217089E+03  0.12509000000E+03 0.  0.
         25    1    4    4    0    0 -0.93743672578E+02  0.46996730900E+02  0.83947019240E+03  0.85519254025E+03  0.12509000000E+03 0.  0.
         25    1    3    3    0    0  0.13283133127E+03 -0.25743074319E+02  0.52401150054E+03  0.55546595687E+03  0.12509000000E+03 0.  0.
<mgrwt>
<rscale>  2 0.49560466E+03</rscale>
<asrwt>0</asrwt>
<pdfrwt beam="1">  1       21 0.29082194E+00 0.49560466E+03</pdfrwt>
<pdfrwt beam="2">  1       21 0.45663142E-02 0.49560466E+03</pdfrwt>
<totfact> 0.10019245E+04</totfact>
</mgrwt>
</event>
<event>
 7    0  0.4685107E-002  0.4573466E+03  0.7546771E-02  0.1025554E+00
         21   -1    0    0  502  501  0.00000000000E+00  0.00000000000E+00  0.13923146123E+03  0.13923146123E+03  0.00000000000E+00 0. -1.
         21   -1    0    0  501  502 -0.00000000000E+00 -0.00000000000E+00 -0.37557234771E+03  0.37557234771E+03  0.00000000000E+00 0. -1.
      99926    2    1    2    0    0  0.00000000000E+00  0.71054273576E-14 -0.23634088648E+03  0.51480380894E+03  0.45734663776E+03 0.  0.
      99925    2    3    3    0    0  0.78671371383E+02  0.56307445536E+02 -0.77674096049E+02  0.29078958710E+03  0.26299354683E+03 0.  0.
         25    1    3    3    0    0 -0.78671371383E+02 -0.56307445536E+02 -0.15866679044E+03  0.22401422184E+03  0.12509000000E+03 0.  0.
         25    1    4    4    0    0  0.55599958330E+02  0.60130442499E+01 -0.69812837889E+02  0.15378183411E+03  0.12509000000E+03 0.  0.
         25    1    4    4    0    0  0.23071413054E+02  0.50294401286E+02 -0.78612581602E+01  0.13700775300E+03  0.12509000000E+03 0.  0.
<mgrwt>
<rscale>  2 0.45734664E+03</rscale>
<asrwt>0</asrwt>
<pdfrwt beam="1">  1       21 0.20475215E-01 0.45734664E+03</pdfrwt>
<pdfrwt beam="2">  1       21 0.55231227E-01 0.45734664E+03</pdfrwt>
<totfact> 0.63060176E+04</totfact>
</mgrwt>
</event>
<event>
 7    0  0.4685107E-002  0.4558299E+03  0.7546771E-02  0.1025998E+00
         21   -1    0    0  502  501  0.00000000000E+00  0.00000000000E+00  0.42429328425E+03  0.42429328425E+03  0.00000000000E+00 0. -1.
         21   -1    0    0  501  502 -0.00000000000E+00 -0.00000000000E+00 -0.12242764382E+03  0.12242764382E+03  0.00000000000E+00 0. -1.
      99926    2    1    2    0    0  0.14210854715E-13  0.00000000000E+00  0.30186564043E+03  0.54672092807E+03  0.45582991161E+03 0.  0.
      99925    2    3    3    0    0 -0.10038795068E+03 -0.40983530692E+02  0.14822300488E+03  0.32086487216E+03  0.26310989449E+03 0.  0.
         25    1    4    4    0    0 -0.26181456440E+02 -0.75114085550E+01  0.32697886227E+02  0.13213080558E+03  0.12509000000E+03 0.  0.
         25    1    3    3    0    0  0.10038795068E+03  0.40983530692E+02  0.15364263555E+03  0.22585605591E+03  0.12509000000E+03 0.  0.
         25    1    4    4    0    0 -0.74206494244E+02 -0.33472122137E+02  0.11552511865E+03  0.18873406658E+03  0.12509000000E+03 0.  0.
<mgrwt>
<rscale>  2 0.45582991E+03</rscale>
<asrwt>0</asrwt>
<pdfrwt beam="1">  1       21 0.62396071E-01 0.45582991E+03</pdfrwt>
<pdfrwt beam="2">  1       21 0.18004065E-01 0.45582991E+03</pdfrwt>
<totfact> 0.61677697E+04</totfact>
</mgrwt>
</event>
<event>
 7    0  0.4685107E-002  0.4539784E+03  0.7546771E-02  0.1026542E+00
         21   -1    0    0  502  501  0.00000000000E+00  0.00000000000E+00  0.37084832612E+03  0.37084832612E+03  0.00000000000E+00 0. -1.
         21   -1    0    0  501  502 -0.00000000000E+00 -0.00000000000E+00 -0.13893575825E+03  0.13893575825E+03  0.00000000000E+00 0. -1.
      99926    2    1    2    0    0  0.71054273576E-14 -0.35527136788E-14  0.23191256787E+03  0.50978408436E+03  0.45397838443E+03 0.  0.
      99925    2    3    3    0    0  0.54047422540E+02  0.18417984512E+02  0.37459329317E+02  0.27162465012E+03  0.26289998699E+03 0.  0.
         25    1    4    4    0    0  0.66176521688E+02  0.19166874724E+01  0.29838574393E+02  0.14464043119E+03  0.12509000000E+03 0.  0.
         25    1    4    4    0    0 -0.12129099147E+02  0.16501297040E+02  0.76207549240E+01  0.12698421892E+03  0.12509000000E+03 0.  0.
         25    1    3    3    0    0 -0.54047422540E+02 -0.18417984512E+02  0.19445323855E+03  0.23815943425E+03  0.12509000000E+03 0.  0.
<mgrwt>
<rscale>  2 0.45397838E+03</rscale>
<asrwt>0</asrwt>
<pdfrwt beam="1">  1       21 0.54536518E-01 0.45397838E+03</pdfrwt>
<pdfrwt beam="2">  1       21 0.20431729E-01 0.45397838E+03</pdfrwt>
<totfact> 0.65114957E+04</totfact>
</mgrwt>
</event>
<event>
 7    0  0.4685107E-002  0.4363526E+03  0.7546771E-02  0.1031872E+00
         21   -1    0    0  502  501  0.00000000000E+00  0.00000000000E+00  0.27488354149E+03  0.27488354149E+03  0.00000000000E+00 0.  1.
         21   -1    0    0  501  502 -0.00000000000E+00 -0.00000000000E+00 -0.17316753474E+03  0.17316753474E+03  0.00000000000E+00 0.  1.
      99926    2    1    2    0    0  0.00000000000E+00  0.00000000000E+00  0.10171600675E+03  0.44805107624E+03  0.43635263364E+03 0.  0.
      99925    2    3    3    0    0  0.43627633471E+02 -0.58342988735E+02  0.12654996713E+03  0.30117865396E+03  0.26341300781E+03 0.  0.
         25    1    3    3    0    0 -0.43627633471E+02  0.58342988735E+02 -0.24833960375E+02  0.14687242227E+03  0.12509000000E+03 0.  0.
         25    1    4    4    0    0  0.82101789607E+01 -0.68441177573E+02  0.62578408454E+02  0.15593321369E+03  0.12509000000E+03 0.  0.
         25    1    4    4    0    0  0.35417454510E+02  0.10098188838E+02  0.63971558673E+02  0.14524544028E+03  0.12509000000E+03 0.  0.
<mgrwt>
<rscale>  2 0.43635263E+03</rscale>
<asrwt>0</asrwt>
<pdfrwt beam="1">  1       21 0.40424050E-01 0.43635263E+03</pdfrwt>
<pdfrwt beam="2">  1       21 0.25465814E-01 0.43635263E+03</pdfrwt>
<totfact> 0.80345620E+04</totfact>
</mgrwt>
</event>
<event>
 7    0  0.4685107E-002  0.4556150E+03  0.7546771E-02  0.1026061E+00
         21   -1    0    0  502  501  0.00000000000E+00  0.00000000000E+00  0.25911179686E+03  0.25911179686E+03  0.00000000000E+00 0. -1.
         21   -1    0    0  501  502 -0.00000000000E+00 -0.00000000000E+00 -0.20028517045E+03  0.20028517045E+03  0.00000000000E+00 0. -1.
      99926    2    1    2    0    0  0.00000000000E+00  0.17763568394E-14  0.58826626414E+02  0.45939696732E+03  0.45561497079E+03 0.  0.
      99925    2    3    3    0    0 -0.87946212855E+02  0.14647034914E+02 -0.34344407834E+02  0.27973778522E+03  0.26291561031E+03 0.  0.
         25    1    4    4    0    0 -0.14759692052E+02  0.30785853185E+02  0.10968282380E+01  0.12967007518E+03  0.12509000000E+03 0.  0.
         25    1    4    4    0    0 -0.73186520803E+02 -0.16138818271E+02 -0.35441236072E+02  0.15006771004E+03  0.12509000000E+03 0.  0.
         25    1    3    3    0    0  0.87946212855E+02 -0.14647034914E+02  0.93171034247E+02  0.17965918209E+03  0.12509000000E+03 0.  0.
<mgrwt>
<rscale>  2 0.45561497E+03</rscale>
<asrwt>0</asrwt>
<pdfrwt beam="1">  1       21 0.38104676E-01 0.45561497E+03</pdfrwt>
<pdfrwt beam="2">  1       21 0.29453701E-01 0.45561497E+03</pdfrwt>
<totfact> 0.67890952E+04</totfact>
</mgrwt>
</event>
<event>
 7    0  0.4685107E-002  0.4548969E+03  0.7546771E-02  0.1026272E+00
         21   -1    0    0  502  501  0.00000000000E+00  0.00000000000E+00  0.65703821838E+03  0.65703821838E+03  0.00000000000E+00 0. -1.
         21   -1    0    0  501  502 -0.00000000000E+00 -0.00000000000E+00 -0.78736376732E+02  0.78736376732E+02  0.00000000000E+00 0. -1.
      99926    2    1    2    0    0  0.00000000000E+00  0.00000000000E+00  0.57830184164E+03  0.73577459511E+03  0.45489694960E+03 0.  0.
      99925    2    3    3    0    0 -0.59827534164E+02  0.95171568230E+02  0.38433054871E+03  0.47904646687E+03  0.26294217142E+03 0.  0.
         25    1    4    4    0    0 -0.50391552362E+02  0.28826157940E+02  0.23893528328E+03  0.27587648256E+03  0.12509000000E+03 0.  0.
         25    1    3    3    0    0  0.59827534164E+02 -0.95171568230E+02  0.19397129294E+03  0.25672812824E+03  0.12509000000E+03 0.  0.
         25    1    4    4    0    0 -0.94359818028E+01  0.66345410289E+02  0.14539526542E+03  0.20316998432E+03  0.12509000000E+03 0.  0.
<mgrwt>
<rscale>  2 0.45489695E+03</rscale>
<asrwt>0</asrwt>
<pdfrwt beam="1">  1       21 0.96623265E-01 0.45489695E+03</pdfrwt>
<pdfrwt beam="2">  1       21 0.11578879E-01 0.45489695E+03</pdfrwt>
<totfact> 0.51044658E+04</totfact>
</mgrwt>
</event>
<event>
 7    0  0.4685107E-002  0.4542525E+03  0.7546771E-02  0.1026461E+00
         21   -1    0    0  502  501  0.00000000000E+00  0.00000000000E+00  0.37358532405E+03  0.37358532405E+03  0.00000000000E+00 0.  1.
         21   -1    0    0  501  502 -0.00000000000E+00 -0.00000000000E+00 -0.13808449051E+03  0.13808449051E+03  0.00000000000E+00 0.  1.
      99926    2    1    2    0    0 -0.14210854715E-13 -0.71054273576E-14  0.23550083354E+03  0.51166981455E+03  0.45425252506E+03 0.  0.
      99925    2    3    3    0    0 -0.93522248379E+02 -0.61854004065E+02  0.13942037484E+03  0.31814645316E+03  0.26307184566E+03 0.  0.
         25    1    4    4    0    0 -0.66011422150E+02 -0.45685836468E+02  0.11215822866E+03  0.18620332936E+03  0.12509000000E+03 0.  0.
         25    1    3    3    0    0  0.93522248379E+02  0.61854004065E+02  0.96080458708E+02  0.19352336140E+03  0.12509000000E+03 0.  0.
         25    1    4    4    0    0 -0.27510826230E+02 -0.16168167597E+02  0.27262146171E+02  0.13194312380E+03  0.12509000000E+03 0.  0.
<mgrwt>
<rscale>  2 0.45425253E+03</rscale>
<asrwt>0</asrwt>
<pdfrwt beam="1">  1       21 0.54939018E-01 0.45425253E+03</pdfrwt>
<pdfrwt beam="2">  1       21 0.20306543E-01 0.45425253E+03</pdfrwt>
<totfact> 0.64842132E+04</totfact>
</mgrwt>
</event>
<event>
 7    0  0.4685107E-002  0.4621147E+03  0.7546771E-02  0.1024170E+00
         21   -1    0    0  502  501  0.00000000000E+00  0.00000000000E+00  0.67482952854E+03  0.67482952854E+03  0.00000000000E+00 0.  1.
         21   -1    0    0  501  502 -0.00000000000E+00 -0.00000000000E+00 -0.79112571773E+02  0.79112571773E+02  0.00000000000E+00 0.  1.
      99926    2    1    2    0    0  0.00000000000E+00 -0.35527136788E-14  0.59571695676E+03  0.75394210031E+03  0.46211470226E+03 0.  0.
      99925    2    3    3    0    0  0.86003903547E+02  0.28577397160E+02  0.24503889615E+03  0.37075030845E+03  0.26305587151E+03 0.  0.
         25    1    4    4    0    0  0.39585362339E+02  0.44894211597E+02  0.88899536829E+02  0.16472136138E+03  0.12509000000E+03 0.  0.
         25    1    3    3    0    0 -0.86003903547E+02 -0.28577397160E+02  0.35067806061E+03  0.38319179186E+03  0.12509000000E+03 0.  0.
         25    1    4    4    0    0  0.46418541208E+02 -0.16316814437E+02  0.15613935932E+03  0.20602894707E+03  0.12509000000E+03 0.  0.
<mgrwt>
<rscale>  2 0.46211470E+03</rscale>
<asrwt>0</asrwt>
<pdfrwt beam="1">  1       21 0.99239634E-01 0.46211470E+03</pdfrwt>
<pdfrwt beam="2">  1       21 0.11634202E-01 0.46211470E+03</pdfrwt>
<totfact> 0.47365767E+04</totfact>
</mgrwt>
</event>
<event>
 7    0  0.4685107E-002  0.4511721E+03  0.7546771E-02  0.1027373E+00
         21   -1    0    0  502  501  0.00000000000E+00  0.00000000000E+00  0.15054001220E+04  0.15054001220E+04  0.00000000000E+00 0.  1.
         21   -1    0    0  501  502 -0.00000000000E+00 -0.00000000000E+00 -0.33804341638E+02  0.33804341638E+02  0.00000000000E+00 0.  1.
      99926    2    1    2    0    0  0.00000000000E+00  0.00000000000E+00  0.14715957804E+04  0.15392044637E+04  0.45117207372E+03 0.  0.
      99925    2    3    3    0    0 -0.10570938661E+03  0.22270259402E+02  0.98406035000E+03  0.10244144649E+04  0.26340042621E+03 0.  0.
         25    1    4    4    0    0 -0.77969942019E+02  0.12918774369E+02  0.64693409639E+03  0.66363954054E+03  0.12509000000E+03 0.  0.
         25    1    3    3    0    0  0.10570938661E+03 -0.22270259402E+02  0.48753543040E+03  0.51478999880E+03  0.12509000000E+03 0.  0.
         25    1    4    4    0    0 -0.27739444590E+02  0.93514850327E+01  0.33712625360E+03  0.36077492433E+03  0.12509000000E+03 0.  0.
<mgrwt>
<rscale>  2 0.45117207E+03</rscale>
<asrwt>0</asrwt>
<pdfrwt beam="1">  1       21 0.22138233E+00 0.45117207E+03</pdfrwt>
<pdfrwt beam="2">  1       21 0.49712277E-02 0.45117207E+03</pdfrwt>
<totfact> 0.23526152E+04</totfact>
</mgrwt>
</event>
<event>
 7    0  0.4685107E-002  0.4517892E+03  0.7546771E-02  0.1027190E+00
         21   -1    0    0  502  501  0.00000000000E+00  0.00000000000E+00  0.95031679220E+02  0.95031679220E+02  0.00000000000E+00 0. -1.
         21   -1    0    0  501  502 -0.00000000000E+00 -0.00000000000E+00 -0.53696165480E+03  0.53696165480E+03  0.00000000000E+00 0. -1.
      99926    2    1    2    0    0  0.00000000000E+00  0.00000000000E+00 -0.44192997558E+03  0.63199333402E+03  0.45178918859E+03 0.  0.
      99925    2    3    3    0    0  0.65029629982E+02  0.88122353973E+02 -0.29487453801E+03  0.41003114836E+03  0.26302119194E+03 0.  0.
         25    1    4    4    0    0  0.55519321377E+02  0.27618595579E+02 -0.10569953811E+03  0.17511448348E+03  0.12509000000E+03 0.  0.
         25    1    4    4    0    0  0.95103086044E+01  0.60503758394E+02 -0.18917499990E+03  0.23491666488E+03  0.12509000000E+03 0.  0.
         25    1    3    3    0    0 -0.65029629982E+02 -0.88122353973E+02 -0.14705543757E+03  0.22196218566E+03  0.12509000000E+03 0.  0.
<mgrwt>
<rscale>  2 0.45178919E+03</rscale>
<asrwt>0</asrwt>
<pdfrwt beam="1">  1       21 0.13975247E-01 0.45178919E+03</pdfrwt>
<pdfrwt beam="2">  1       21 0.78964949E-01 0.45178919E+03</pdfrwt>
<totfact> 0.58212340E+04</totfact>
</mgrwt>
</event>
<event>
 7    0  0.4685107E-002  0.4526674E+03  0.7546771E-02  0.1026930E+00
         21   -1    0    0  502  501  0.00000000000E+00  0.00000000000E+00  0.18571849283E+03  0.18571849283E+03  0.00000000000E+00 0.  1.
         21   -1    0    0  501  502 -0.00000000000E+00 -0.00000000000E+00 -0.27583110369E+03  0.27583110369E+03  0.00000000000E+00 0.  1.
      99926    2    1    2    0    0  0.00000000000E+00  0.00000000000E+00 -0.90112610864E+02  0.46154959652E+03  0.45266736950E+03 0.  0.
      99925    2    3    3    0    0  0.70919561176E+02  0.42547805976E+02 -0.13232054072E+03  0.30576475325E+03  0.26295143826E+03 0.  0.
         25    1    4    4    0    0  0.12464525543E+00  0.39734446655E+02 -0.52761397286E+02  0.14145711340E+03  0.12509000000E+03 0.  0.
         25    1    3    3    0    0 -0.70919561176E+02 -0.42547805976E+02  0.42207929852E+02  0.15578484327E+03  0.12509000000E+03 0.  0.
         25    1    4    4    0    0  0.70794915920E+02  0.28133593218E+01 -0.79559143430E+02  0.16430763985E+03  0.12509000000E+03 0.  0.
<mgrwt>
<rscale>  2 0.45266737E+03</rscale>
<asrwt>0</asrwt>
<pdfrwt beam="1">  1       21 0.27311543E-01 0.45266737E+03</pdfrwt>
<pdfrwt beam="2">  1       21 0.40563397E-01 0.45266737E+03</pdfrwt>
<totfact> 0.69344055E+04</totfact>
</mgrwt>
</event>
<event>
 7    0  0.4685107E-002  0.4618416E+03  0.7546771E-02  0.1024248E+00
         21   -1    0    0  502  501  0.00000000000E+00  0.00000000000E+00  0.31954379059E+02  0.31954379059E+02  0.00000000000E+00 0. -1.
         21   -1    0    0  501  502 -0.00000000000E+00 -0.00000000000E+00 -0.16687667712E+04  0.16687667712E+04  0.00000000000E+00 0. -1.
      99926    2    1    2    0    0  0.00000000000E+00  0.44408920985E-15 -0.16368123922E+04  0.17007211503E+04  0.46184155711E+03 0.  0.
      99925    2    3    3    0    0 -0.89524552454E+02  0.29373221865E+01 -0.13149271286E+04  0.13439566561E+04  0.26298833894E+03 0.  0.
         25    1    3    3    0    0  0.89524552454E+02 -0.29373221865E+01 -0.32188526352E+03  0.35676449421E+03  0.12509000000E+03 0.  0.
         25    1    4    4    0    0 -0.74339629555E+01 -0.78021416832E+01 -0.51477262768E+03  0.52986272140E+03  0.12509000000E+03 0.  0.
         25    1    4    4    0    0 -0.82090589499E+02  0.10739463870E+02 -0.80015450096E+03  0.81409393467E+03  0.12509000000E+03 0.  0.
<mgrwt>
<rscale>  2 0.46184156E+03</rscale>
<asrwt>0</asrwt>
<pdfrwt beam="1">  1       21 0.46991717E-02 0.46184156E+03</pdfrwt>
<pdfrwt beam="2">  1       21 0.24540697E+00 0.46184156E+03</pdfrwt>
<totfact> 0.18257420E+04</totfact>
</mgrwt>
</event>
<event>
 7    0  0.4685107E-002  0.4430123E+03  0.7546771E-02  0.1029827E+00
         21   -1    0    0  502  501  0.00000000000E+00  0.00000000000E+00  0.58901888035E+02  0.58901888035E+02  0.00000000000E+00 0.  1.
         21   -1    0    0  501  502 -0.00000000000E+00 -0.00000000000E+00 -0.83299500790E+03  0.83299500790E+03  0.00000000000E+00 0.  1.
      99926    2    1    2    0    0  0.00000000000E+00 -0.71054273576E-14 -0.77409311986E+03  0.89189689593E+03  0.44301231897E+03 0.  0.
      99925    2    3    3    0    0  0.44885074956E+02 -0.48374955818E+02 -0.33683629365E+03  0.43233640321E+03  0.26287120518E+03 0.  0.
         25    1    4    4    0    0 -0.73919785787E+01 -0.35052476993E+02 -0.20468400854E+03  0.24254147880E+03  0.12509000000E+03 0.  0.
         25    1    3    3    0    0 -0.44885074956E+02  0.48374955818E+02 -0.43725682622E+03  0.45956049273E+03  0.12509000000E+03 0.  0.
         25    1    4    4    0    0  0.52277053534E+02 -0.13322478825E+02 -0.13215228511E+03  0.18979492440E+03  0.12509000000E+03 0.  0.
<mgrwt>
<rscale>  2 0.44301232E+03</rscale>
<asrwt>0</asrwt>
<pdfrwt beam="1">  1       21 0.86620425E-02 0.44301232E+03</pdfrwt>
<pdfrwt beam="2">  1       21 0.12249926E+00 0.44301232E+03</pdfrwt>
<totfact> 0.47927605E+04</totfact>
</mgrwt>
</event>
<event>
 7    0  0.4685107E-002  0.4530687E+03  0.7546771E-02  0.1026811E+00
         21   -1    0    0  502  501  0.00000000000E+00  0.00000000000E+00  0.45147875393E+03  0.45147875393E+03  0.00000000000E+00 0.  1.
         21   -1    0    0  501  502 -0.00000000000E+00 -0.00000000000E+00 -0.11366607416E+03  0.11366607416E+03  0.00000000000E+00 0.  1.
      99926    2    1    2    0    0  0.00000000000E+00 -0.35527136788E-14  0.33781267977E+03  0.56514482809E+03  0.45306872558E+03 0.  0.
      99925    2    3    3    0    0  0.93815630209E+02 -0.27157081692E+02  0.14617052602E+03  0.31632139118E+03  0.26297247058E+03 0.  0.
         25    1    3    3    0    0 -0.93815630209E+02  0.27157081692E+02  0.19164215376E+03  0.24882343691E+03  0.12509000000E+03 0.  0.
         25    1    4    4    0    0  0.63442908315E+02 -0.48361757832E+02  0.95080596390E+02  0.17621489763E+03  0.12509000000E+03 0.  0.
         25    1    4    4    0    0  0.30372721894E+02  0.21204676141E+02  0.51089929627E+02  0.14010649355E+03  0.12509000000E+03 0.  0.
<mgrwt>
<rscale>  2 0.45306873E+03</rscale>
<asrwt>0</asrwt>
<pdfrwt beam="1">  1       21 0.66393934E-01 0.45306873E+03</pdfrwt>
<pdfrwt beam="2">  1       21 0.16715599E-01 0.45306873E+03</pdfrwt>
<totfact> 0.61815461E+04</totfact>
</mgrwt>
</event>
<event>
 7    0  0.4685107E-002  0.4631481E+03  0.7546771E-02  0.1023872E+00
         21   -1    0    0  502  501  0.00000000000E+00  0.00000000000E+00  0.17614845890E+03  0.17614845890E+03  0.00000000000E+00 0. -1.
         21   -1    0    0  501  502 -0.00000000000E+00 -0.00000000000E+00 -0.30443943136E+03  0.30443943136E+03  0.00000000000E+00 0. -1.
      99926    2    1    2    0    0  0.00000000000E+00  0.00000000000E+00 -0.12829097246E+03  0.48058789026E+03  0.46314808285E+03 0.  0.
      99925    2    3    3    0    0  0.67013972943E+02  0.10041101097E+03 -0.75985631617E+02  0.29904836158E+03  0.26283618978E+03 0.  0.
         25    1    3    3    0    0 -0.67013972943E+02 -0.10041101097E+03 -0.52305340839E+02  0.18153952868E+03  0.12509000000E+03 0.  0.
         25    1    4    4    0    0  0.23260642793E+02  0.90228169378E+02 -0.33772645174E+02  0.15959410927E+03  0.12509000000E+03 0.  0.
         25    1    4    4    0    0  0.43753330150E+02  0.10182841592E+02 -0.42212986444E+02  0.13945425231E+03  0.12509000000E+03 0.  0.
<mgrwt>
<rscale>  2 0.46314808E+03</rscale>
<asrwt>0</asrwt>
<pdfrwt beam="1">  1       21 0.25904185E-01 0.46314808E+03</pdfrwt>
<pdfrwt beam="2">  1       21 0.44770504E-01 0.46314808E+03</pdfrwt>
<totfact> 0.62515956E+04</totfact>
</mgrwt>
</event>
<event>
 7    0  0.4685107E-002  0.4559588E+03  0.7546771E-02  0.1025960E+00
         21   -1    0    0  502  501  0.00000000000E+00  0.00000000000E+00  0.17540022773E+03  0.17540022773E+03  0.00000000000E+00 0. -1.
         21   -1    0    0  501  502 -0.00000000000E+00 -0.00000000000E+00 -0.29632012759E+03  0.29632012759E+03  0.00000000000E+00 0. -1.
      99926    2    1    2    0    0  0.00000000000E+00  0.00000000000E+00 -0.12091989986E+03  0.47172035532E+03  0.45595884840E+03 0.  0.
      99925    2    3    3    0    0 -0.88030204441E+02  0.18733206783E+02 -0.14853194275E+03  0.31516307205E+03  0.26299386692E+03 0.  0.
         25    1    4    4    0    0 -0.76516840361E+02  0.17533979544E+02 -0.51411567214E+02  0.15637430940E+03  0.12509000000E+03 0.  0.
         25    1    3    3    0    0  0.88030204441E+02 -0.18733206783E+02  0.27612042896E+02  0.15655728326E+03  0.12509000000E+03 0.  0.
         25    1    4    4    0    0 -0.11513364080E+02  0.11992272387E+01 -0.97120375540E+02  0.15878876265E+03  0.12509000000E+03 0.  0.
<mgrwt>
<rscale>  2 0.45595885E+03</rscale>
<asrwt>0</asrwt>
<pdfrwt beam="1">  1       21 0.25794151E-01 0.45595885E+03</pdfrwt>
<pdfrwt beam="2">  1       21 0.43576489E-01 0.45595885E+03</pdfrwt>
<totfact> 0.66798401E+04</totfact>
</mgrwt>
</event>
<event>
 7    0  0.4685107E-002  0.4809011E+03  0.7546771E-02  0.1018888E+00
         21   -1    0    0  502  501  0.00000000000E+00  0.00000000000E+00  0.27580797156E+03  0.27580797156E+03  0.00000000000E+00 0. -1.
         21   -1    0    0  501  502 -0.00000000000E+00 -0.00000000000E+00 -0.20962581089E+03  0.20962581089E+03  0.00000000000E+00 0. -1.
      99926    2    1    2    0    0 -0.17763568394E-14  0.35527136788E-14  0.66182160667E+02  0.48543378245E+03  0.48090111120E+03 0.  0.
      99925    2    3    3    0    0 -0.81281491131E+01  0.21468133099E+02  0.17610101616E+03  0.31733675559E+03  0.26299068616E+03 0.  0.
         25    1    4    4    0    0  0.33758429582E+02 -0.17309159981E+01  0.77106096129E+02  0.15078290950E+03  0.12509000000E+03 0.  0.
         25    1    3    3    0    0  0.81281491131E+01 -0.21468133099E+02 -0.10991885549E+03  0.16809702686E+03  0.12509000000E+03 0.  0.
         25    1    4    4    0    0 -0.41886578695E+02  0.23199049097E+02  0.98994920033E+02  0.16655384609E+03  0.12509000000E+03 0.  0.
<mgrwt>
<rscale>  2 0.48090111E+03</rscale>
<asrwt>0</asrwt>
<pdfrwt beam="1">  1       21 0.40559996E-01 0.48090111E+03</pdfrwt>
<pdfrwt beam="2">  1       21 0.30827325E-01 0.48090111E+03</pdfrwt>
<totfact> 0.54257719E+04</totfact>
</mgrwt>
</event>
<event>
 7    0  0.4685107E-002  0.4555460E+03  0.7546771E-02  0.1026081E+00
         21   -1    0    0  502  501  0.00000000000E+00  0.00000000000E+00  0.95295669553E+03  0.95295669553E+03  0.00000000000E+00 0. -1.
         21   -1    0    0  501  502 -0.00000000000E+00 -0.00000000000E+00 -0.54441647142E+02  0.54441647142E+02  0.00000000000E+00 0. -1.
      99926    2    1    2    0    0  0.00000000000E+00  0.00000000000E+00  0.89851504839E+03  0.10073983427E+04  0.45554596765E+03 0.  0.
      99925    2    3    3    0    0  0.49260206353E+02  0.97052891123E+02  0.63758894735E+03  0.69824503134E+03  0.26302210250E+03 0.  0.
         25    1    4    4    0    0  0.24901132516E+02  0.91190194419E+02  0.33590148021E+03  0.37069263611E+03  0.12509000000E+03 0.  0.
         25    1    3    3    0    0 -0.49260206353E+02 -0.97052891123E+02  0.26092610104E+03  0.30915331134E+03  0.12509000000E+03 0.  0.
         25    1    4    4    0    0  0.24359073837E+02  0.58626967043E+01  0.30168746714E+03  0.32755239523E+03  0.12509000000E+03 0.  0.
<mgrwt>
<rscale>  2 0.45554597E+03</rscale>
<asrwt>0</asrwt>
<pdfrwt beam="1">  1       21 0.14014068E+00 0.45554597E+03</pdfrwt>
<pdfrwt beam="2">  1       21 0.80061252E-02 0.45554597E+03</pdfrwt>
<totfact> 0.38714932E+04</totfact>
</mgrwt>
</event>
<event>
 7    0  0.4685107E-002  0.4546451E+03  0.7546771E-02  0.1026346E+00
         21   -1    0    0  502  501  0.00000000000E+00  0.00000000000E+00  0.54849090002E+02  0.54849090002E+02  0.00000000000E+00 0. -1.
         21   -1    0    0  501  502 -0.00000000000E+00 -0.00000000000E+00 -0.94214034237E+03  0.94214034237E+03  0.00000000000E+00 0. -1.
      99926    2    1    2    0    0  0.00000000000E+00  0.00000000000E+00 -0.88729125236E+03  0.99698943237E+03  0.45464509426E+03 0.  0.
      99925    2    3    3    0    0  0.10171183655E+03 -0.42031131344E+02 -0.50416344650E+03  0.57920200146E+03  0.26302521555E+03 0.  0.
         25    1    4    4    0    0  0.21903327772E+02 -0.21009363272E+02 -0.29531588995E+03  0.32214923882E+03  0.12509000000E+03 0.  0.
         25    1    3    3    0    0 -0.10171183655E+03  0.42031131344E+02 -0.38312780587E+03  0.41778743091E+03  0.12509000000E+03 0.  0.
         25    1    4    4    0    0  0.79808508782E+02 -0.21021768072E+02 -0.20884755654E+03  0.25705276264E+03  0.12509000000E+03 0.  0.
<mgrwt>
<rscale>  2 0.45464509E+03</rscale>
<asrwt>0</asrwt>
<pdfrwt beam="1">  1       21 0.80660433E-02 0.45464509E+03</pdfrwt>
<pdfrwt beam="2">  1       21 0.13855004E+00 0.45464509E+03</pdfrwt>
<totfact> 0.39393175E+04</totfact>
</mgrwt>
</event>
<event>
 7    0  0.4685107E-002  0.4413116E+03  0.7546771E-02  0.1030345E+00
         21   -1    0    0  502  501  0.00000000000E+00  0.00000000000E+00  0.20147360192E+03  0.20147360192E+03  0.00000000000E+00 0. -1.
         21   -1    0    0  501  502 -0.00000000000E+00 -0.00000000000E+00 -0.24166435324E+03  0.24166435324E+03  0.00000000000E+00 0. -1.
      99926    2    1    2    0    0  0.00000000000E+00  0.14210854715E-13 -0.40190751327E+02  0.44313795516E+03  0.44131162551E+03 0.  0.
      99925    2    3    3    0    0 -0.20337988871E+02  0.83168446271E+02  0.25832996880E+02  0.27779810009E+03  0.26300915657E+03 0.  0.
         25    1    4    4    0    0 -0.46220346112E+02  0.60643306407E+02  0.21028338116E+02  0.14799875037E+03  0.12509000000E+03 0.  0.
         25    1    4    4    0    0  0.25882357241E+02  0.22525139865E+02  0.48046587641E+01  0.12979934972E+03  0.12509000000E+03 0.  0.
         25    1    3    3    0    0  0.20337988871E+02 -0.83168446271E+02 -0.66023748207E+02  0.16533985507E+03  0.12509000000E+03 0.  0.
<mgrwt>
<rscale>  2 0.44131163E+03</rscale>
<asrwt>0</asrwt>
<pdfrwt beam="1">  1       21 0.29628471E-01 0.44131163E+03</pdfrwt>
<pdfrwt beam="2">  1       21 0.35538875E-01 0.44131163E+03</pdfrwt>
<totfact> 0.77553851E+04</totfact>
</mgrwt>
</event>
<event>
 7    0  0.4685107E-002  0.4617207E+03  0.7546771E-02  0.1024283E+00
         21   -1    0    0  502  501  0.00000000000E+00  0.00000000000E+00  0.17909046876E+04  0.17909046876E+04  0.00000000000E+00 0.  1.
         21   -1    0    0  501  502 -0.00000000000E+00 -0.00000000000E+00 -0.29759538413E+02  0.29759538413E+02  0.00000000000E+00 0.  1.
      99926    2    1    2    0    0  0.00000000000E+00  0.00000000000E+00  0.17611451492E+04  0.18206642260E+04  0.46172068112E+03 0.  0.
      99925    2    3    3    0    0 -0.41162036037E+02 -0.95417178328E+02  0.13338136663E+04  0.13634351199E+04  0.26286437297E+03 0.  0.
         25    1    3    3    0    0  0.41162036037E+02  0.95417178328E+02  0.42733148288E+03  0.45722910613E+03  0.12509000000E+03 0.  0.
         25    1    4    4    0    0 -0.56114086310E+02 -0.31977742982E+02  0.71841261032E+03  0.73207619378E+03  0.12509000000E+03 0.  0.
         25    1    4    4    0    0  0.14952050273E+02 -0.63439435346E+02  0.61540105596E+03  0.63135892608E+03  0.12509000000E+03 0.  0.
<mgrwt>
<rscale>  2 0.46172068E+03</rscale>
<asrwt>0</asrwt>
<pdfrwt beam="1">  1       21 0.26336826E+00 0.46172068E+03</pdfrwt>
<pdfrwt beam="2">  1       21 0.43764039E-02 0.46172068E+03</pdfrwt>
<totfact> 0.16013816E+04</totfact>
</mgrwt>
</event>
<event>
 7    0  0.4685107E-002  0.4604911E+03  0.7546771E-02  0.1024639E+00
         21   -1    0    0  502  501  0.00000000000E+00  0.00000000000E+00  0.19284546983E+03  0.19284546983E+03  0.00000000000E+00 0. -1.
         21   -1    0    0  501  502 -0.00000000000E+00 -0.00000000000E+00 -0.27489893144E+03  0.27489893144E+03  0.00000000000E+00 0. -1.
      99926    2    1    2    0    0  0.00000000000E+00  0.00000000000E+00 -0.82053461611E+02  0.46774440128E+03  0.46049110129E+03 0.  0.
      99925    2    3    3    0    0  0.23739152750E+02 -0.32423308322E+02 -0.16298614097E+03  0.31343165072E+03  0.26468868361E+03 0.  0.
         25    1    3    3    0    0 -0.23739152750E+02  0.32423308322E+02  0.80932679356E+02  0.15431275055E+03  0.12509000000E+03 0.  0.
         25    1    4    4    0    0  0.88764076264E+01 -0.54482381564E+02 -0.10794539841E+03  0.17420343754E+03  0.12509000000E+03 0.  0.
         25    1    4    4    0    0  0.14862745124E+02  0.22059073242E+02 -0.55040742556E+02  0.13922821318E+03  0.12509000000E+03 0.  0.
<mgrwt>
<rscale>  2 0.46049110E+03</rscale>
<asrwt>0</asrwt>
<pdfrwt beam="1">  1       21 0.28359628E-01 0.46049110E+03</pdfrwt>
<pdfrwt beam="2">  1       21 0.40426313E-01 0.46049110E+03</pdfrwt>
<totfact> 0.64734706E+04</totfact>
</mgrwt>
</event>
<event>
 7    0  0.4685107E-002  0.4490183E+03  0.7546771E-02  0.1028015E+00
         21   -1    0    0  502  501  0.00000000000E+00  0.00000000000E+00  0.73412753252E+02  0.73412753252E+02  0.00000000000E+00 0.  1.
         21   -1    0    0  501  502 -0.00000000000E+00 -0.00000000000E+00 -0.68658872224E+03  0.68658872224E+03  0.00000000000E+00 0.  1.
      99926    2    1    2    0    0 -0.14210854715E-13 -0.71054273576E-14 -0.61317596899E+03  0.76000147550E+03  0.44901834462E+03 0.  0.
      99925    2    3    3    0    0 -0.93156281450E+02 -0.29589320323E+02 -0.46363729144E+03  0.54191217077E+03  0.26297460365E+03 0.  0.
         25    1    4    4    0    0 -0.56364653350E+02 -0.48180757972E+02 -0.20082842883E+03  0.24794742489E+03  0.12509000000E+03 0.  0.
         25    1    3    3    0    0  0.93156281450E+02  0.29589320323E+02 -0.14953867755E+03  0.21808930472E+03  0.12509000000E+03 0.  0.
         25    1    4    4    0    0 -0.36791628100E+02  0.18591437650E+02 -0.26280886262E+03  0.29396474588E+03  0.12509000000E+03 0.  0.
<mgrwt>
<rscale>  2 0.44901834E+03</rscale>
<asrwt>0</asrwt>
<pdfrwt beam="1">  1       21 0.10795993E-01 0.44901834E+03</pdfrwt>
<pdfrwt beam="2">  1       21 0.10096893E+00 0.44901834E+03</pdfrwt>
<totfact> 0.52167067E+04</totfact>
</mgrwt>
</event>
<event>
 7    0  0.4685107E-002  0.4363738E+03  0.7546771E-02  0.1031865E+00
         21   -1    0    0  502  501  0.00000000000E+00  0.00000000000E+00  0.21851047571E+03  0.21851047571E+03  0.00000000000E+00 0. -1.
         21   -1    0    0  501  502 -0.00000000000E+00 -0.00000000000E+00 -0.21786381172E+03  0.21786381172E+03  0.00000000000E+00 0. -1.
      99926    2    1    2    0    0  0.35527136788E-14  0.00000000000E+00  0.64666399459E+00  0.43637428743E+03  0.43637380828E+03 0.  0.
      99925    2    3    3    0    0  0.18757366204E+02  0.71577304612E+02 -0.57946273891E+02  0.27967141639E+03  0.26340687380E+03 0.  0.
         25    1    4    4    0    0 -0.17854528544E+02  0.51855207309E+02 -0.23470876449E+01  0.13660440562E+03  0.12509000000E+03 0.  0.
         25    1    3    3    0    0 -0.18757366204E+02 -0.71577304612E+02  0.58592937885E+02  0.15670287104E+03  0.12509000000E+03 0.  0.
         25    1    4    4    0    0  0.36611894748E+02  0.19722097302E+02 -0.55599186246E+02  0.14306701077E+03  0.12509000000E+03 0.  0.
<mgrwt>
<rscale>  2 0.43637381E+03</rscale>
<asrwt>0</asrwt>
<pdfrwt beam="1">  1       21 0.32133894E-01 0.43637381E+03</pdfrwt>
<pdfrwt beam="2">  1       21 0.32038796E-01 0.43637381E+03</pdfrwt>
<totfact> 0.81369479E+04</totfact>
</mgrwt>
</event>
<event>
 7    0  0.4685107E-002  0.4560180E+03  0.7546771E-02  0.1025942E+00
         21   -1    0    0  502  501  0.00000000000E+00  0.00000000000E+00  0.24237053869E+03  0.24237053869E+03  0.00000000000E+00 0. -1.
         21   -1    0    0  501  502 -0.00000000000E+00 -0.00000000000E+00 -0.21449844575E+03  0.21449844575E+03  0.00000000000E+00 0. -1.
      99926    2    1    2    0    0  0.00000000000E+00  0.00000000000E+00  0.27872092942E+02  0.45686898444E+03  0.45601799897E+03 0.  0.
      99925    2    3    3    0    0 -0.39684050844E+02 -0.15438344704E+02 -0.88540710698E+02  0.28076499434E+03  0.26301398863E+03 0.  0.
         25    1    4    4    0    0 -0.21210860572E+02 -0.88135659416E+01 -0.87080182786E+02  0.15413645216E+03  0.12509000000E+03 0.  0.
         25    1    3    3    0    0  0.39684050844E+02  0.15438344704E+02  0.11641280364E+03  0.17610399010E+03  0.12509000000E+03 0.  0.
         25    1    4    4    0    0 -0.18473190273E+02 -0.66247787627E+01 -0.14605279122E+01  0.12662854218E+03  0.12509000000E+03 0.  0.
<mgrwt>
<rscale>  2 0.45601800E+03</rscale>
<asrwt>0</asrwt>
<pdfrwt beam="1">  1       21 0.35642726E-01 0.45601800E+03</pdfrwt>
<pdfrwt beam="2">  1       21 0.31543889E-01 0.45601800E+03</pdfrwt>
<totfact> 0.67856289E+04</totfact>
</mgrwt>
</event>
<event>
 7    0  0.4685107E-002  0.4578161E+03  0.7546771E-02  0.1025417E+00
         21   -1    0    0  502  501  0.00000000000E+00  0.00000000000E+00  0.66495513033E+02  0.66495513033E+02  0.00000000000E+00 0.  1.
         21   -1    0    0  501  502 -0.00000000000E+00 -0.00000000000E+00 -0.78800664328E+03  0.78800664328E+03  0.00000000000E+00 0.  1.
      99926    2    1    2    0    0 -0.14210854715E-13  0.71054273576E-14 -0.72151113025E+03  0.85450215631E+03  0.45781614658E+03 0.  0.
      99925    2    3    3    0    0 -0.82795402765E+02  0.59748666241E+02 -0.55477790255E+03  0.62239774198E+03  0.26301225489E+03 0.  0.
         25    1    4    4    0    0 -0.80111785378E+02  0.18975772670E+02 -0.27197448209E+03  0.31047641636E+03  0.12509000000E+03 0.  0.
         25    1    3    3    0    0  0.82795402765E+02 -0.59748666241E+02 -0.16673322769E+03  0.23210441433E+03  0.12509000000E+03 0.  0.
         25    1    4    4    0    0 -0.26836173870E+01  0.40772893571E+02 -0.28280342046E+03  0.31192132562E+03  0.12509000000E+03 0.  0.
<mgrwt>
<rscale>  2 0.45781615E+03</rscale>
<asrwt>0</asrwt>
<pdfrwt beam="1">  1       21 0.97787520E-02 0.45781615E+03</pdfrwt>
<pdfrwt beam="2">  1       21 0.11588333E+00 0.45781615E+03</pdfrwt>
<totfact> 0.44252948E+04</totfact>
</mgrwt>
</event>
<event>
 7    0  0.4685107E-002  0.4498544E+03  0.7546771E-02  0.1027765E+00
         21   -1    0    0  502  501  0.00000000000E+00  0.00000000000E+00  0.22132977553E+03  0.22132977553E+03  0.00000000000E+00 0.  1.
         21   -1    0    0  501  502 -0.00000000000E+00 -0.00000000000E+00 -0.22858310280E+03  0.22858310280E+03  0.00000000000E+00 0.  1.
      99926    2    1    2    0    0  0.00000000000E+00 -0.71054273576E-14 -0.72533272714E+01  0.44991287832E+03  0.44985440681E+03 0.  0.
      99925    2    3    3    0    0 -0.76384114621E+02  0.52381107997E+02  0.50956628675E+02  0.28373760786E+03  0.26330996690E+03 0.  0.
         25    1    4    4    0    0 -0.20247725129E+02  0.13195754548E+02 -0.11783941939E+02  0.12794712853E+03  0.12509000000E+03 0.  0.
         25    1    3    3    0    0  0.76384114621E+02 -0.52381107997E+02 -0.58209955946E+02  0.16617527046E+03  0.12509000000E+03 0.  0.
         25    1    4    4    0    0 -0.56136389492E+02  0.39185353448E+02  0.62740570614E+02  0.15579047933E+03  0.12509000000E+03 0.  0.
<mgrwt>
<rscale>  2 0.44985441E+03</rscale>
<asrwt>0</asrwt>
<pdfrwt beam="1">  1       21 0.32548497E-01 0.44985441E+03</pdfrwt>
<pdfrwt beam="2">  1       21 0.33615162E-01 0.44985441E+03</pdfrwt>
<totfact> 0.71823939E+04</totfact>
</mgrwt>
</event>
<event>
 7    0  0.4685107E-002  0.4293669E+03  0.7546771E-02  0.1034060E+00
         21   -1    0    0  502  501  0.00000000000E+00  0.00000000000E+00  0.12476625933E+04  0.12476625933E+04  0.00000000000E+00 0. -1.
         21   -1    0    0  501  502 -0.00000000000E+00 -0.00000000000E+00 -0.36940258860E+02  0.36940258860E+02  0.00000000000E+00 0. -1.
      99926    2    1    2    0    0  0.00000000000E+00 -0.14210854715E-13  0.12107223345E+04  0.12846028522E+04  0.42936687888E+03 0.  0.
      99925    2    3    3    0    0 -0.33406787339E+02 -0.79939033921E+02  0.79177761410E+03  0.83888046167E+03  0.26325344480E+03 0.  0.
         25    1    4    4    0    0  0.10691830457E+02 -0.35339950873E+02  0.47483095993E+03  0.49241768447E+03  0.12509000000E+03 0.  0.
         25    1    3    3    0    0  0.33406787339E+02  0.79939033921E+02  0.41894472039E+03  0.44572239054E+03  0.12509000000E+03 0.  0.
         25    1    4    4    0    0 -0.44098617796E+02 -0.44599083048E+02  0.31694665416E+03  0.34646277720E+03  0.12509000000E+03 0.  0.
<mgrwt>
<rscale>  2 0.42936688E+03</rscale>
<asrwt>0</asrwt>
<pdfrwt beam="1">  1       21 0.18347977E+00 0.42936688E+03</pdfrwt>
<pdfrwt beam="2">  1       21 0.54323918E-02 0.42936688E+03</pdfrwt>
<totfact> 0.36276477E+04</totfact>
</mgrwt>
</event>
<event>
 7    0  0.4685107E-002  0.4560721E+03  0.7546771E-02  0.1025927E+00
         21   -1    0    0  502  501  0.00000000000E+00  0.00000000000E+00  0.15649021483E+03  0.15649021483E+03  0.00000000000E+00 0.  1.
         21   -1    0    0  501  502 -0.00000000000E+00 -0.00000000000E+00 -0.33229193662E+03  0.33229193662E+03  0.00000000000E+00 0.  1.
      99926    2    1    2    0    0  0.00000000000E+00 -0.71054273576E-14 -0.17580172179E+03  0.48878215145E+03  0.45607208443E+03 0.  0.
      99925    2    3    3    0    0  0.70343319241E+02 -0.40114357630E+02 -0.24517109991E+02  0.27643364989E+03  0.26316749393E+03 0.  0.
         25    1    4    4    0    0  0.44887276889E+02 -0.58607456127E+02 -0.25350794764E+02  0.14744447238E+03  0.12509000000E+03 0.  0.
         25    1    3    3    0    0 -0.70343319241E+02  0.40114357630E+02 -0.15128461180E+03  0.21234850156E+03  0.12509000000E+03 0.  0.
         25    1    4    4    0    0  0.25456042352E+02  0.18493098498E+02  0.83368477271E+00  0.12898917751E+03  0.12509000000E+03 0.  0.
<mgrwt>
<rscale>  2 0.45607208E+03</rscale>
<asrwt>0</asrwt>
<pdfrwt beam="1">  1       21 0.23013267E-01 0.45607208E+03</pdfrwt>
<pdfrwt beam="2">  1       21 0.48866461E-01 0.45607208E+03</pdfrwt>
<totfact> 0.65506869E+04</totfact>
</mgrwt>
</event>
<event>
 7    0  0.4685107E-002  0.4576963E+03  0.7546771E-02  0.1025451E+00
         21   -1    0    0  502  501  0.00000000000E+00  0.00000000000E+00  0.12868109086E+04  0.12868109086E+04  0.00000000000E+00 0. -1.
         21   -1    0    0  501  502 -0.00000000000E+00 -0.00000000000E+00 -0.40698655217E+02  0.40698655217E+02  0.00000000000E+00 0. -1.
      99926    2    1    2    0    0  0.00000000000E+00  0.00000000000E+00  0.12461122534E+04  0.13275095638E+04  0.45769629013E+03 0.  0.
      99925    2    3    3    0    0 -0.16965589331E+02 -0.19060266691E+02  0.45703714939E+03  0.52817349381E+03  0.26350172418E+03 0.  0.
         25    1    4    4    0    0 -0.34216009434E+02 -0.41993406654E+02  0.24189951573E+03  0.27766358298E+03  0.12509000000E+03 0.  0.
         25    1    4    4    0    0  0.17250420103E+02  0.22933139963E+02  0.21513763367E+03  0.25050991083E+03  0.12509000000E+03 0.  0.
         25    1    3    3    0    0  0.16965589331E+02  0.19060266691E+02  0.78907510401E+03  0.79933607004E+03  0.12509000000E+03 0.  0.
<mgrwt>
<rscale>  2 0.45769629E+03</rscale>
<asrwt>0</asrwt>
<pdfrwt beam="1">  1       21 0.18923687E+00 0.45769629E+03</pdfrwt>
<pdfrwt beam="2">  1       21 0.59850972E-02 0.45769629E+03</pdfrwt>
<totfact> 0.27739998E+04</totfact>
</mgrwt>
</event>
<event>
 7    0  0.4685107E-002  0.4583036E+03  0.7546771E-02  0.1025274E+00
         21   -1    0    0  502  501  0.00000000000E+00  0.00000000000E+00  0.11673771172E+03  0.11673771172E+03  0.00000000000E+00 0. -1.
         21   -1    0    0  501  502 -0.00000000000E+00 -0.00000000000E+00 -0.44981652712E+03  0.44981652712E+03  0.00000000000E+00 0. -1.
      99926    2    1    2    0    0 -0.35527136788E-14  0.00000000000E+00 -0.33307881540E+03  0.56655423884E+03  0.45830362019E+03 0.  0.
      99925    2    3    3    0    0 -0.29593170121E+02 -0.10114796124E+03 -0.27032554530E+03  0.39136249592E+03  0.26264431649E+03 0.  0.
         25    1    3    3    0    0  0.29593170121E+02  0.10114796124E+03 -0.62753270096E+02  0.17519174292E+03  0.12509000000E+03 0.  0.
         25    1    4    4    0    0 -0.31148384448E+02 -0.20933287047E+02 -0.15854280714E+03  0.20540631479E+03  0.12509000000E+03 0.  0.
         25    1    4    4    0    0  0.15552143270E+01 -0.80214674190E+02 -0.11178273816E+03  0.18595618112E+03  0.12509000000E+03 0.  0.
<mgrwt>
<rscale>  2 0.45830362E+03</rscale>
<asrwt>0</asrwt>
<pdfrwt beam="1">  1       21 0.17167311E-01 0.45830362E+03</pdfrwt>
<pdfrwt beam="2">  1       21 0.66149487E-01 0.45830362E+03</pdfrwt>
<totfact> 0.59223110E+04</totfact>
</mgrwt>
</event>
<event>
 7    0  0.4685107E-002  0.4504554E+03  0.7546771E-02  0.1027586E+00
         21   -1    0    0  502  501  0.00000000000E+00  0.00000000000E+00  0.10855699333E+03  0.10855699333E+03  0.00000000000E+00 0. -1.
         21   -1    0    0  501  502 -0.00000000000E+00 -0.00000000000E+00 -0.46728927714E+03  0.46728927714E+03  0.00000000000E+00 0. -1.
      99926    2    1    2    0    0  0.00000000000E+00  0.00000000000E+00 -0.35873228381E+03  0.57584627047E+03  0.45045540930E+03 0.  0.
      99925    2    3    3    0    0  0.18588195789E+02  0.99447086881E+02 -0.27812157962E+03  0.39589950656E+03  0.26296304328E+03 0.  0.
         25    1    4    4    0    0  0.28017424034E+01  0.60751581238E+02 -0.19668463799E+03  0.24089615876E+03  0.12509000000E+03 0.  0.
         25    1    3    3    0    0 -0.18588195789E+02 -0.99447086881E+02 -0.80610704190E+02  0.17994676391E+03  0.12509000000E+03 0.  0.
         25    1    4    4    0    0  0.15786453386E+02  0.38695505643E+02 -0.81436941633E+02  0.15500334780E+03  0.12509000000E+03 0.  0.
<mgrwt>
<rscale>  2 0.45045541E+03</rscale>
<asrwt>0</asrwt>
<pdfrwt beam="1">  1       21 0.15964264E-01 0.45045541E+03</pdfrwt>
<pdfrwt beam="2">  1       21 0.68719010E-01 0.45045541E+03</pdfrwt>
<totfact> 0.62402363E+04</totfact>
</mgrwt>
</event>
<event>
 7    0  0.4685107E-002  0.4479698E+03  0.7546771E-02  0.1028329E+00
         21   -1    0    0  502  501  0.00000000000E+00  0.00000000000E+00  0.16334057326E+03  0.16334057326E+03  0.00000000000E+00 0.  1.
         21   -1    0    0  501  502 -0.00000000000E+00 -0.00000000000E+00 -0.30714496301E+03  0.30714496301E+03  0.00000000000E+00 0.  1.
      99926    2    1    2    0    0 -0.14210854715E-13  0.36082248300E-15 -0.14380438975E+03  0.47048553628E+03  0.44796979511E+03 0.  0.
      99925    2    3    3    0    0  0.99269512706E+02  0.26054090759E-01 -0.48110261564E+02  0.28431542294E+03  0.26204241187E+03 0.  0.
         25    1    3    3    0    0 -0.99269512706E+02 -0.26054090759E-01 -0.95694128184E+02  0.18617011334E+03  0.12509000000E+03 0.  0.
         25    1    4    4    0    0  0.70541269708E+02  0.27000111604E+02 -0.48186779737E+01  0.14620466653E+03  0.12509000000E+03 0.  0.
         25    1    4    4    0    0  0.28728242997E+02 -0.26974057514E+02 -0.43291583590E+02  0.13811075640E+03  0.12509000000E+03 0.  0.
<mgrwt>
<rscale>  2 0.44796980E+03</rscale>
<asrwt>0</asrwt>
<pdfrwt beam="1">  1       21 0.24020673E-01 0.44796980E+03</pdfrwt>
<pdfrwt beam="2">  1       21 0.45168377E-01 0.44796980E+03</pdfrwt>
<totfact> 0.71294715E+04</totfact>
</mgrwt>
</event>
<event>
 7    0  0.4685107E-002  0.4547464E+03  0.7546771E-02  0.1026316E+00
         21   -1    0    0  502  501  0.00000000000E+00  0.00000000000E+00  0.98983544537E+02  0.98983544537E+02  0.00000000000E+00 0.  1.
         21   -1    0    0  501  502 -0.00000000000E+00 -0.00000000000E+00 -0.52229468282E+03  0.52229468282E+03  0.00000000000E+00 0.  1.
      99926    2    1    2    0    0 -0.14210854715E-13  0.71054273576E-14 -0.42331113828E+03  0.62127822735E+03  0.45474643043E+03 0.  0.
      99925    2    3    3    0    0  0.70413254021E+02 -0.61008155200E+02 -0.17885122182E+03  0.33129860704E+03  0.26285164283E+03 0.  0.
         25    1    3    3    0    0 -0.70413254021E+02  0.61008155200E+02 -0.24445991646E+03  0.28997962031E+03  0.12509000000E+03 0.  0.
         25    1    4    4    0    0  0.22172619707E+01 -0.32167181536E+02 -0.55275022613E+02  0.14050793587E+03  0.12509000000E+03 0.  0.
         25    1    4    4    0    0  0.68195992050E+02 -0.28840973663E+02 -0.12357619921E+03  0.19079067117E+03  0.12509000000E+03 0.  0.
<mgrwt>
<rscale>  2 0.45474643E+03</rscale>
<asrwt>0</asrwt>
<pdfrwt beam="1">  1       21 0.14556404E-01 0.45474643E+03</pdfrwt>
<pdfrwt beam="2">  1       21 0.76808040E-01 0.45474643E+03</pdfrwt>
<totfact> 0.57502335E+04</totfact>
</mgrwt>
</event>
<event>
 7    0  0.4685107E-002  0.4638662E+03  0.7546771E-02  0.1023666E+00
         21   -1    0    0  502  501  0.00000000000E+00  0.00000000000E+00  0.26279440985E+03  0.26279440985E+03  0.00000000000E+00 0. -1.
         21   -1    0    0  501  502 -0.00000000000E+00 -0.00000000000E+00 -0.20469596428E+03  0.20469596428E+03  0.00000000000E+00 0. -1.
      99926    2    1    2    0    0  0.00000000000E+00  0.17763568394E-14  0.58098445577E+02  0.46749037413E+03  0.46386616661E+03 0.  0.
      99925    2    3    3    0    0 -0.10545828391E+03 -0.46289118040E+01  0.94692375769E+02  0.29977185906E+03  0.26410915355E+03 0.  0.
         25    1    4    4    0    0 -0.40624169917E+02  0.31656171906E+02  0.69604270780E+02  0.15213381942E+03  0.12509000000E+03 0.  0.
         25    1    4    4    0    0 -0.64834113991E+02 -0.36285083710E+02  0.25088104988E+02  0.14763803964E+03  0.12509000000E+03 0.  0.
         25    1    3    3    0    0  0.10545828391E+03  0.46289118040E+01 -0.36593930192E+02  0.16771851507E+03  0.12509000000E+03 0.  0.
<mgrwt>
<rscale>  2 0.46386617E+03</rscale>
<asrwt>0</asrwt>
<pdfrwt beam="1">  1       21 0.38646237E-01 0.46386617E+03</pdfrwt>
<pdfrwt beam="2">  1       21 0.30102348E-01 0.46386617E+03</pdfrwt>
<totfact> 0.63059949E+04</totfact>
</mgrwt>
</event>
<event>
 7    0  0.4685107E-002  0.4530446E+03  0.7546771E-02  0.1026818E+00
         21   -1    0    0  502  501  0.00000000000E+00  0.00000000000E+00  0.92558785574E+03  0.92558785574E+03  0.00000000000E+00 0. -1.
         21   -1    0    0  501  502 -0.00000000000E+00 -0.00000000000E+00 -0.55437579373E+02  0.55437579373E+02  0.00000000000E+00 0. -1.
      99926    2    1    2    0    0  0.35527136788E-14  0.14210854715E-13  0.87015027637E+03  0.98102543512E+03  0.45304459038E+03 0.  0.
      99925    2    3    3    0    0 -0.30934376508E+02 -0.10676769576E+03  0.53352586191E+03  0.60510020183E+03  0.26294511295E+03 0.  0.
         25    1    3    3    0    0  0.30934376508E+02  0.10676769576E+03  0.33662441446E+03  0.37592523328E+03  0.12509000000E+03 0.  0.
         25    1    4    4    0    0 -0.52861611097E+01 -0.40289585300E+02  0.33481274708E+03  0.35971972129E+03  0.12509000000E+03 0.  0.
         25    1    4    4    0    0 -0.25648215398E+02 -0.66478110458E+02  0.19871311483E+03  0.24538048054E+03  0.12509000000E+03 0.  0.
<mgrwt>
<rscale>  2 0.45304459E+03</rscale>
<asrwt>0</asrwt>
<pdfrwt beam="1">  1       21 0.13611585E+00 0.45304459E+03</pdfrwt>
<pdfrwt beam="2">  1       21 0.81525857E-02 0.45304459E+03</pdfrwt>
<totfact> 0.40525110E+04</totfact>
</mgrwt>
</event>
<event>
 7    0  0.4685107E-002  0.4453061E+03  0.7546771E-02  0.1029131E+00
         21   -1    0    0  502  501  0.00000000000E+00  0.00000000000E+00  0.63386676398E+03  0.63386676398E+03  0.00000000000E+00 0. -1.
         21   -1    0    0  501  502 -0.00000000000E+00 -0.00000000000E+00 -0.78209461056E+02  0.78209461056E+02  0.00000000000E+00 0. -1.
      99926    2    1    2    0    0  0.00000000000E+00  0.35527136788E-14  0.55565730292E+03  0.71207622504E+03  0.44530608795E+03 0.  0.
      99925    2    3    3    0    0 -0.45052229118E+02  0.29578005821E+02  0.49470196673E+03  0.56285282577E+03  0.26299944072E+03 0.  0.
         25    1    4    4    0    0 -0.10166045290E+02  0.53120539106E+02  0.24037487676E+03  0.27631997690E+03  0.12509000000E+03 0.  0.
         25    1    3    3    0    0  0.45052229118E+02 -0.29578005821E+02  0.60955336194E+02  0.14922339926E+03  0.12509000000E+03 0.  0.
         25    1    4    4    0    0 -0.34886183828E+02 -0.23542533285E+02  0.25432708997E+03  0.28653284888E+03  0.12509000000E+03 0.  0.
<mgrwt>
<rscale>  2 0.44530609E+03</rscale>
<asrwt>0</asrwt>
<pdfrwt beam="1">  1       21 0.93215698E-01 0.44530609E+03</pdfrwt>
<pdfrwt beam="2">  1       21 0.11501392E-01 0.44530609E+03</pdfrwt>
<totfact> 0.56434503E+04</totfact>
</mgrwt>
</event>
<event>
 7    0  0.4685107E-002  0.4464626E+03  0.7546771E-02  0.1028782E+00
         21   -1    0    0  502  501  0.00000000000E+00  0.00000000000E+00  0.53436721347E+02  0.53436721347E+02  0.00000000000E+00 0.  1.
         21   -1    0    0  501  502 -0.00000000000E+00 -0.00000000000E+00 -0.93254623621E+03  0.93254623621E+03  0.00000000000E+00 0.  1.
      99926    2    1    2    0    0  0.35527136788E-14  0.00000000000E+00 -0.87910951486E+03  0.98598295756E+03  0.44646260031E+03 0.  0.
      99925    2    3    3    0    0  0.21319314978E+02 -0.36679973172E+02 -0.76973044412E+03  0.81448595222E+03  0.26287349835E+03 0.  0.
         25    1    4    4    0    0 -0.12017718723E+02  0.12916469852E+02 -0.32678083144E+03  0.35034908399E+03  0.12509000000E+03 0.  0.
         25    1    4    4    0    0  0.33337033702E+02 -0.49596443024E+02 -0.44294961268E+03  0.46413686823E+03  0.12509000000E+03 0.  0.
         25    1    3    3    0    0 -0.21319314978E+02  0.36679973172E+02 -0.10937907074E+03  0.17149700534E+03  0.12509000000E+03 0.  0.
<mgrwt>
<rscale>  2 0.44646260E+03</rscale>
<asrwt>0</asrwt>
<pdfrwt beam="1">  1       21 0.78583421E-02 0.44646260E+03</pdfrwt>
<pdfrwt beam="2">  1       21 0.13713914E+00 0.44646260E+03</pdfrwt>
<totfact> 0.42479252E+04</totfact>
</mgrwt>
</event>
<event>
 7    0  0.4685107E-002  0.4416701E+03  0.7546771E-02  0.1030236E+00
         21   -1    0    0  502  501  0.00000000000E+00  0.00000000000E+00  0.13019833810E+03  0.13019833810E+03  0.00000000000E+00 0.  1.
         21   -1    0    0  501  502 -0.00000000000E+00 -0.00000000000E+00 -0.37456784051E+03  0.37456784051E+03  0.00000000000E+00 0.  1.
      99926    2    1    2    0    0  0.00000000000E+00  0.00000000000E+00 -0.24436950241E+03  0.50476617861E+03  0.44167005939E+03 0.  0.
      99925    2    3    3    0    0 -0.11316859908E+02 -0.84847719669E+02 -0.95796669327E+02  0.29251961991E+03  0.26279938989E+03 0.  0.
         25    1    3    3    0    0  0.11316859908E+02  0.84847719669E+02 -0.14857283308E+03  0.21224655870E+03  0.12509000000E+03 0.  0.
         25    1    4    4    0    0 -0.15315934487E+02 -0.62766522675E+02 -0.14225279383E+02  0.14150646943E+03  0.12509000000E+03 0.  0.
         25    1    4    4    0    0  0.39990745797E+01 -0.22081196995E+02 -0.81571389944E+02  0.15101315047E+03  0.12509000000E+03 0.  0.
<mgrwt>
<rscale>  2 0.44167006E+03</rscale>
<asrwt>0</asrwt>
<pdfrwt beam="1">  1       21 0.19146815E-01 0.44167006E+03</pdfrwt>
<pdfrwt beam="2">  1       21 0.55083505E-01 0.44167006E+03</pdfrwt>
<totfact> 0.72286340E+04</totfact>
</mgrwt>
</event>
<event>
 7    0  0.4685107E-002  0.4555814E+03  0.7546771E-02  0.1026071E+00
         21   -1    0    0  502  501  0.00000000000E+00  0.00000000000E+00  0.32372368703E+03  0.32372368703E+03  0.00000000000E+00 0. -1.
         21   -1    0    0  501  502 -0.00000000000E+00 -0.00000000000E+00 -0.16028671213E+03  0.16028671213E+03  0.00000000000E+00 0. -1.
      99926    2    1    2    0    0  0.00000000000E+00 -0.14210854715E-13  0.16343697490E+03  0.48401039916E+03  0.45558141065E+03 0.  0.
      99925    2    3    3    0    0 -0.69826991766E+02 -0.87605721039E+02  0.81569022748E+02  0.29719380240E+03  0.26290697894E+03 0.  0.
         25    1    4    4    0    0 -0.63628946360E+02 -0.77024594342E+02  0.45360307343E+02  0.16639259758E+03  0.12509000000E+03 0.  0.
         25    1    3    3    0    0  0.69826991766E+02  0.87605721039E+02  0.81867952147E+02  0.18681659676E+03  0.12509000000E+03 0.  0.
         25    1    4    4    0    0 -0.61980454062E+01 -0.10581126696E+02  0.36208715404E+02  0.13080120481E+03  0.12509000000E+03 0.  0.
<mgrwt>
<rscale>  2 0.45558141E+03</rscale>
<asrwt>0</asrwt>
<pdfrwt beam="1">  1       21 0.47606425E-01 0.45558141E+03</pdfrwt>
<pdfrwt beam="2">  1       21 0.23571575E-01 0.45558141E+03</pdfrwt>
<totfact> 0.66103696E+04</totfact>
</mgrwt>
</event>
<event>
 7    0  0.4685107E-002  0.4571509E+03  0.7546771E-02  0.1025611E+00
         21   -1    0    0  502  501  0.00000000000E+00  0.00000000000E+00  0.61886257900E+02  0.61886257900E+02  0.00000000000E+00 0.  1.
         21   -1    0    0  501  502 -0.00000000000E+00 -0.00000000000E+00 -0.84423821886E+03  0.84423821886E+03  0.00000000000E+00 0.  1.
      99926    2    1    2    0    0  0.14210854715E-13 -0.35527136788E-14 -0.78235196096E+03  0.90612447676E+03  0.45715093412E+03 0.  0.
      99925    2    3    3    0    0 -0.11421150458E+03  0.82653181059E+01 -0.46912380155E+03  0.54993355715E+03  0.26312961225E+03 0.  0.
         25    1    4    4    0    0 -0.77007376257E+02  0.40783978704E+02 -0.24593242654E+03  0.28935054077E+03  0.12509000000E+03 0.  0.
         25    1    3    3    0    0  0.11421150458E+03 -0.82653181059E+01 -0.31322815941E+03  0.35619091960E+03  0.12509000000E+03 0.  0.
         25    1    4    4    0    0 -0.37204128326E+02 -0.32518660598E+02 -0.22319137501E+03  0.26058301639E+03  0.12509000000E+03 0.  0.
<mgrwt>
<rscale>  2 0.45715093E+03</rscale>
<asrwt>0</asrwt>
<pdfrwt beam="1">  1       21 0.91009201E-02 0.45715093E+03</pdfrwt>
<pdfrwt beam="2">  1       21 0.12415268E+00 0.45715093E+03</pdfrwt>
<totfact> 0.42253937E+04</totfact>
</mgrwt>
</event>
<event>
 7    0  0.4685107E-002  0.4533723E+03  0.7546771E-02  0.1026721E+00
         21   -1    0    0  502  501  0.00000000000E+00  0.00000000000E+00  0.11359214307E+03  0.11359214307E+03  0.00000000000E+00 0.  1.
         21   -1    0    0  501  502 -0.00000000000E+00 -0.00000000000E+00 -0.45237817207E+03  0.45237817207E+03  0.00000000000E+00 0.  1.
      99926    2    1    2    0    0  0.17763568394E-14  0.00000000000E+00 -0.33878602900E+03  0.56597031513E+03  0.45337227988E+03 0.  0.
      99925    2    3    3    0    0  0.10655853006E+02  0.98273755709E+02 -0.14902803166E+03  0.31812583987E+03  0.26310343500E+03 0.  0.
         25    1    4    4    0    0  0.28438581317E-01  0.44331651651E+02 -0.11894303154E+03  0.17821405388E+03  0.12509000000E+03 0.  0.
         25    1    3    3    0    0 -0.10655853006E+02 -0.98273755709E+02 -0.18975799734E+03  0.24784447526E+03  0.12509000000E+03 0.  0.
         25    1    4    4    0    0  0.10627414425E+02  0.53942104058E+02 -0.30085000121E+02  0.13991178599E+03  0.12509000000E+03 0.  0.
<mgrwt>
<rscale>  2 0.45337228E+03</rscale>
<asrwt>0</asrwt>
<pdfrwt beam="1">  1       21 0.16704727E-01 0.45337228E+03</pdfrwt>
<pdfrwt beam="2">  1       21 0.66526203E-01 0.45337228E+03</pdfrwt>
<totfact> 0.61612673E+04</totfact>
</mgrwt>
</event>
<event>
 7    0  0.4685107E-002  0.4512177E+03  0.7546771E-02  0.1027360E+00
         21   -1    0    0  502  501  0.00000000000E+00  0.00000000000E+00  0.10355869958E+03  0.10355869958E+03  0.00000000000E+00 0. -1.
         21   -1    0    0  501  502 -0.00000000000E+00 -0.00000000000E+00 -0.49150244440E+03  0.49150244440E+03  0.00000000000E+00 0. -1.
      99926    2    1    2    0    0  0.00000000000E+00  0.00000000000E+00 -0.38794374482E+03  0.59506114398E+03  0.45121770347E+03 0.  0.
      99925    2    3    3    0    0 -0.58138404436E+02 -0.88931074406E+02 -0.28028927022E+03  0.39878123144E+03  0.26301251963E+03 0.  0.
         25    1    3    3    0    0  0.58138404436E+02  0.88931074406E+02 -0.10765447459E+03  0.19627991254E+03  0.12509000000E+03 0.  0.
         25    1    4    4    0    0 -0.46158299691E+02 -0.58413614417E+02 -0.98786143333E+02  0.17592313434E+03  0.12509000000E+03 0.  0.
         25    1    4    4    0    0 -0.11980104745E+02 -0.30517459990E+02 -0.18150312689E+03  0.22285809710E+03  0.12509000000E+03 0.  0.
<mgrwt>
<rscale>  2 0.45121770E+03</rscale>
<asrwt>0</asrwt>
<pdfrwt beam="1">  1       21 0.15229221E-01 0.45121770E+03</pdfrwt>
<pdfrwt beam="2">  1       21 0.72279770E-01 0.45121770E+03</pdfrwt>
<totfact> 0.60779653E+04</totfact>
</mgrwt>
</event>
<event>
 7    0  0.4685107E-002  0.4539024E+03  0.7546771E-02  0.1026565E+00
         21   -1    0    0  502  501  0.00000000000E+00  0.00000000000E+00  0.22479099974E+03  0.22479099974E+03  0.00000000000E+00 0.  1.
         21   -1    0    0  501  502 -0.00000000000E+00 -0.00000000000E+00 -0.22913218751E+03  0.22913218751E+03  0.00000000000E+00 0.  1.
      99926    2    1    2    0    0 -0.71054273576E-14  0.00000000000E+00 -0.43411877717E+01  0.45392318725E+03  0.45390242786E+03 0.  0.
      99925    2    3    3    0    0 -0.42747350981E+02 -0.57235034674E+02  0.83601167706E+02  0.28514951870E+03  0.26309296373E+03 0.  0.
         25    1    3    3    0    0  0.42747350981E+02  0.57235034674E+02 -0.87942355477E+02  0.16877366855E+03  0.12509000000E+03 0.  0.
         25    1    4    4    0    0  0.48994457264E+01  0.41465086698E+01  0.42365724762E+02  0.13222541676E+03  0.12509000000E+03 0.  0.
         25    1    4    4    0    0 -0.47646796708E+02 -0.61381543344E+02  0.41235442944E+02  0.15292410194E+03  0.12509000000E+03 0.  0.
<mgrwt>
<rscale>  2 0.45390243E+03</rscale>
<asrwt>0</asrwt>
<pdfrwt beam="1">  1       21 0.33057500E-01 0.45390243E+03</pdfrwt>
<pdfrwt beam="2">  1       21 0.33695910E-01 0.45390243E+03</pdfrwt>
<totfact> 0.69229038E+04</totfact>
</mgrwt>
</event>
<event>
 7    0  0.4685107E-002  0.4583910E+03  0.7546771E-02  0.1025249E+00
         21   -1    0    0  502  501  0.00000000000E+00  0.00000000000E+00  0.29563883704E+02  0.29563883704E+02  0.00000000000E+00 0. -1.
         21   -1    0    0  501  502 -0.00000000000E+00 -0.00000000000E+00 -0.17768497444E+04  0.17768497444E+04  0.00000000000E+00 0. -1.
      99926    2    1    2    0    0  0.00000000000E+00  0.00000000000E+00 -0.17472858607E+04  0.18064136281E+04  0.45839100865E+03 0.  0.
      99925    2    3    3    0    0 -0.11326613362E+03  0.25540244095E+02 -0.10656141563E+04  0.11037007836E+04  0.26294556208E+03 0.  0.
         25    1    4    4    0    0 -0.46400490490E+02  0.30736731733E+02 -0.38987953864E+03  0.41322066132E+03  0.12509000000E+03 0.  0.
         25    1    4    4    0    0 -0.66865643130E+02 -0.51964876381E+01 -0.67573461766E+03  0.69048012232E+03  0.12509000000E+03 0.  0.
         25    1    3    3    0    0  0.11326613362E+03 -0.25540244095E+02 -0.68167170441E+03  0.70271284447E+03  0.12509000000E+03 0.  0.
<mgrwt>
<rscale>  2 0.45839101E+03</rscale>
<asrwt>0</asrwt>
<pdfrwt beam="1">  1       21 0.43476288E-02 0.45839101E+03</pdfrwt>
<pdfrwt beam="2">  1       21 0.26130150E+00 0.45839101E+03</pdfrwt>
<totfact> 0.16692738E+04</totfact>
</mgrwt>
</event>
<event>
 7    0  0.4685107E-002  0.4589729E+03  0.7546771E-02  0.1025080E+00
         21   -1    0    0  502  501  0.00000000000E+00  0.00000000000E+00  0.85419689145E+03  0.85419689145E+03  0.00000000000E+00 0. -1.
         21   -1    0    0  501  502 -0.00000000000E+00 -0.00000000000E+00 -0.61653267278E+02  0.61653267278E+02  0.00000000000E+00 0. -1.
      99926    2    1    2    0    0 -0.17763568394E-14  0.00000000000E+00  0.79254362418E+03  0.91585015873E+03  0.45897289356E+03 0.  0.
      99925    2    3    3    0    0  0.90398035051E+01  0.76620300916E+02  0.32172033119E+03  0.42262154047E+03  0.26296883162E+03 0.  0.
         25    1    3    3    0    0 -0.90398035051E+01 -0.76620300916E+02  0.47082329298E+03  0.49322861827E+03  0.12509000000E+03 0.  0.
         25    1    4    4    0    0 -0.18745744296E+02  0.42505620369E+02  0.11061220007E+03  0.17332252478E+03  0.12509000000E+03 0.  0.
         25    1    4    4    0    0  0.27785547801E+02  0.34114680547E+02  0.21110813112E+03  0.24929901569E+03  0.12509000000E+03 0.  0.
<mgrwt>
<rscale>  2 0.45897289E+03</rscale>
<asrwt>0</asrwt>
<pdfrwt beam="1">  1       21 0.12561718E+00 0.45897289E+03</pdfrwt>
<pdfrwt beam="2">  1       21 0.90666575E-02 0.45897289E+03</pdfrwt>
<totfact> 0.41257472E+04</totfact>
</mgrwt>
</event>
<event>
 7    0  0.4685107E-002  0.4237625E+03  0.7546771E-02  0.1035849E+00
         21   -1    0    0  502  501  0.00000000000E+00  0.00000000000E+00  0.13906887996E+03  0.13906887996E+03  0.00000000000E+00 0.  1.
         21   -1    0    0  501  502 -0.00000000000E+00 -0.00000000000E+00 -0.32281600533E+03  0.32281600533E+03  0.00000000000E+00 0.  1.
      99926    2    1    2    0    0  0.00000000000E+00  0.00000000000E+00 -0.18374712537E+03  0.46188488529E+03  0.42376248204E+03 0.  0.
      99925    2    3    3    0    0  0.17757303757E+02  0.46084550049E+02 -0.18861158942E+03  0.32731044976E+03  0.26290433862E+03 0.  0.
         25    1    4    4    0    0 -0.16984300141E+02  0.38411855464E+02 -0.12797421814E+03  0.18381742491E+03  0.12509000000E+03 0.  0.
         25    1    3    3    0    0 -0.17757303757E+02 -0.46084550049E+02  0.48644640535E+01  0.13457443554E+03  0.12509000000E+03 0.  0.
         25    1    4    4    0    0  0.34741603898E+02  0.76726945851E+01 -0.60637371285E+02  0.14349302485E+03  0.12509000000E+03 0.  0.
<mgrwt>
<rscale>  2 0.42376248E+03</rscale>
<asrwt>0</asrwt>
<pdfrwt beam="1">  1       21 0.20451306E-01 0.42376248E+03</pdfrwt>
<pdfrwt beam="2">  1       21 0.47472942E-01 0.42376248E+03</pdfrwt>
<totfact> 0.87896725E+04</totfact>
</mgrwt>
</event>
<event>
 7    0  0.4685107E-002  0.4544948E+03  0.7546771E-02  0.1026390E+00
         21   -1    0    0  502  501  0.00000000000E+00  0.00000000000E+00  0.43574921882E+03  0.43574921882E+03  0.00000000000E+00 0. -1.
         21   -1    0    0  501  502 -0.00000000000E+00 -0.00000000000E+00 -0.11851168470E+03  0.11851168470E+03  0.00000000000E+00 0. -1.
      99926    2    1    2    0    0  0.00000000000E+00  0.00000000000E+00  0.31723753412E+03  0.55426090352E+03  0.45449477017E+03 0.  0.
      99925    2    3    3    0    0 -0.70900604621E+01 -0.70953920290E+02  0.30587264567E+03  0.40982615510E+03  0.26327680162E+03 0.  0.
         25    1    4    4    0    0  0.14134404657E+02 -0.70996122703E+02  0.18316737381E+03  0.23331957861E+03  0.12509000000E+03 0.  0.
         25    1    3    3    0    0  0.70900604621E+01  0.70953920290E+02  0.11364888442E+02  0.14443474842E+03  0.12509000000E+03 0.  0.
         25    1    4    4    0    0 -0.21224465119E+02  0.42202412604E-01  0.12270527186E+03  0.17650657649E+03  0.12509000000E+03 0.  0.
<mgrwt>
<rscale>  2 0.45449477E+03</rscale>
<asrwt>0</asrwt>
<pdfrwt beam="1">  1       21 0.64080767E-01 0.45449477E+03</pdfrwt>
<pdfrwt beam="2">  1       21 0.17428189E-01 0.45449477E+03</pdfrwt>
<totfact> 0.61832591E+04</totfact>
</mgrwt>
</event>
<event>
 6    0  0.4685107E-002  0.4522964E+03  0.7546771E-02  0.1027039E+00
         21   -1    0    0  502  501  0.00000000000E+00  0.00000000000E+00  0.15702028163E+03  0.15702028163E+03  0.00000000000E+00 0.  1.
         21   -1    0    0  501  502 -0.00000000000E+00 -0.00000000000E+00 -0.32570952192E+03  0.32570952192E+03  0.00000000000E+00 0.  1.
      99926    2    1    2    0    0  0.17763568394E-14  0.00000000000E+00 -0.16868924029E+03  0.48272980355E+03  0.45229636682E+03 0.  0.
         25    1    3    3    0    0 -0.48481344653E+02 -0.19531798333E+02 -0.98756941377E+02  0.16772708039E+03  0.12509000000E+03 0.  0.
         25    1    3    3    0    0  0.53846486996E+02  0.88523367644E+02 -0.53961609747E+02  0.17115838924E+03  0.12509000000E+03 0.  0.
         25    1    3    3    0    0 -0.53651423427E+01 -0.68991569311E+02 -0.15970689170E+02  0.14384433392E+03  0.12509000000E+03 0.  0.
<mgrwt>
<rscale>  2 0.45229637E+03</rscale>
<asrwt>0</asrwt>
<pdfrwt beam="1">  1       21 0.23091218E-01 0.45229637E+03</pdfrwt>
<pdfrwt beam="2">  1       21 0.47898458E-01 0.45229637E+03</pdfrwt>
<totfact> 0.67948580E+04</totfact>
</mgrwt>
</event>
<event>
 7    0  0.4685107E-002  0.4555532E+03  0.7546771E-02  0.1026079E+00
         21   -1    0    0  502  501  0.00000000000E+00  0.00000000000E+00  0.26096768275E+03  0.26096768275E+03  0.00000000000E+00 0. -1.
         21   -1    0    0  501  502 -0.00000000000E+00 -0.00000000000E+00 -0.19880693557E+03  0.19880693557E+03  0.00000000000E+00 0. -1.
      99926    2    1    2    0    0  0.00000000000E+00  0.14210854715E-13  0.62160747180E+02  0.45977461831E+03  0.45555322538E+03 0.  0.
      99925    2    3    3    0    0  0.47520589712E+02  0.92389447917E+02 -0.72844056507E+01  0.28295789432E+03  0.26309331207E+03 0.  0.
         25    1    3    3    0    0 -0.47520589712E+02 -0.92389447917E+02  0.69445152831E+02  0.17681672400E+03  0.12509000000E+03 0.  0.
         25    1    4    4    0    0  0.55199372586E+02  0.71704060015E+02  0.10266860092E+02  0.15472995661E+03  0.12509000000E+03 0.  0.
         25    1    4    4    0    0 -0.76787828747E+01  0.20685387902E+02 -0.17551265743E+02  0.12822793771E+03  0.12509000000E+03 0.  0.
<mgrwt>
<rscale>  2 0.45555323E+03</rscale>
<asrwt>0</asrwt>
<pdfrwt beam="1">  1       21 0.38377600E-01 0.45555323E+03</pdfrwt>
<pdfrwt beam="2">  1       21 0.29236314E-01 0.45555323E+03</pdfrwt>
<totfact> 0.67896952E+04</totfact>
</mgrwt>
</event>
<event>
 7    0  0.4685107E-002  0.4543338E+03  0.7546771E-02  0.1026438E+00
         21   -1    0    0  502  501  0.00000000000E+00  0.00000000000E+00  0.14939914563E+03  0.14939914563E+03  0.00000000000E+00 0.  1.
         21   -1    0    0  501  502 -0.00000000000E+00 -0.00000000000E+00 -0.34541556176E+03  0.34541556176E+03  0.00000000000E+00 0.  1.
      99926    2    1    2    0    0  0.00000000000E+00  0.00000000000E+00 -0.19601641614E+03  0.49481470739E+03  0.45433375315E+03 0.  0.
      99925    2    3    3    0    0  0.58376658883E+02 -0.76110767291E+02 -0.18746029777E+03  0.33694957995E+03  0.26304557208E+03 0.  0.
         25    1    3    3    0    0 -0.58376658883E+02  0.76110767291E+02 -0.85561183730E+01  0.15786512744E+03  0.12509000000E+03 0.  0.
         25    1    4    4    0    0 -0.10356312927E+02 -0.23492539869E+02 -0.79687469656E+02  0.15052160498E+03  0.12509000000E+03 0.  0.
         25    1    4    4    0    0  0.68732971810E+02 -0.52618227422E+02 -0.10777282811E+03  0.18642797497E+03  0.12509000000E+03 0.  0.
<mgrwt>
<rscale>  2 0.45433375E+03</rscale>
<asrwt>0</asrwt>
<pdfrwt beam="1">  1       21 0.21970462E-01 0.45433375E+03</pdfrwt>
<pdfrwt beam="2">  1       21 0.50796406E-01 0.45433375E+03</pdfrwt>
<totfact> 0.65984800E+04</totfact>
</mgrwt>
</event>
<event>
 7    0  0.4685107E-002  0.4582904E+03  0.7546771E-02  0.1025278E+00
         21   -1    0    0  502  501  0.00000000000E+00  0.00000000000E+00  0.14142966767E+03  0.14142966767E+03  0.00000000000E+00 0. -1.
         21   -1    0    0  501  502 -0.00000000000E+00 -0.00000000000E+00 -0.37126246377E+03  0.37126246377E+03  0.00000000000E+00 0. -1.
      99926    2    1    2    0    0  0.00000000000E+00  0.00000000000E+00 -0.22983279610E+03  0.51269213144E+03  0.45829041826E+03 0.  0.
      99925    2    3    3    0    0  0.38389461597E+02  0.10659354972E+03 -0.11649916723E+03  0.30939934962E+03  0.26328685113E+03 0.  0.
         25    1    3    3    0    0 -0.38389461597E+02 -0.10659354972E+03 -0.11333362887E+03  0.20329278181E+03  0.12509000000E+03 0.  0.
         25    1    4    4    0    0  0.43757041448E+02  0.86514080535E+02 -0.48579171752E+02  0.16555001913E+03  0.12509000000E+03 0.  0.
         25    1    4    4    0    0 -0.53675798507E+01  0.20079469184E+02 -0.67919995481E+02  0.14384933049E+03  0.12509000000E+03 0.  0.
<mgrwt>
<rscale>  2 0.45829042E+03</rscale>
<asrwt>0</asrwt>
<pdfrwt beam="1">  1       21 0.20798481E-01 0.45829042E+03</pdfrwt>
<pdfrwt beam="2">  1       21 0.54597420E-01 0.45829042E+03</pdfrwt>
<totfact> 0.62733640E+04</totfact>
</mgrwt>
</event>
<event>
 7    0  0.4685107E-002  0.4552270E+03  0.7546771E-02  0.1026175E+00
         21   -1    0    0  502  501  0.00000000000E+00  0.00000000000E+00  0.17875203702E+03  0.17875203702E+03  0.00000000000E+00 0.  1.
         21   -1    0    0  501  502 -0.00000000000E+00 -0.00000000000E+00 -0.28983113944E+03  0.28983113944E+03  0.00000000000E+00 0.  1.
      99926    2    1    2    0    0 -0.35527136788E-14  0.00000000000E+00 -0.11107910241E+03  0.46858317646E+03  0.45522700520E+03 0.  0.
      99925    2    3    3    0    0 -0.28643502927E+02 -0.45929648364E+02 -0.17235519313E+03  0.31914338841E+03  0.26308973167E+03 0.  0.
         25    1    4    4    0    0  0.13445579015E+02  0.51968183779E+01 -0.66494612584E+02  0.14239674195E+03  0.12509000000E+03 0.  0.
         25    1    4    4    0    0 -0.42089081942E+02 -0.51126466742E+02 -0.10586058054E+03  0.17674664645E+03  0.12509000000E+03 0.  0.
         25    1    3    3    0    0  0.28643502927E+02  0.45929648364E+02  0.61276090712E+02  0.14943978805E+03  0.12509000000E+03 0.  0.
<mgrwt>
<rscale>  2 0.45522701E+03</rscale>
<asrwt>0</asrwt>
<pdfrwt beam="1">  1       21 0.26287064E-01 0.45522701E+03</pdfrwt>
<pdfrwt beam="2">  1       21 0.42622226E-01 0.45522701E+03</pdfrwt>
<totfact> 0.67419833E+04</totfact>
</mgrwt>
</event>
<event>
 7    0  0.4685107E-002  0.4549860E+03  0.7546771E-02  0.1026246E+00
         21   -1    0    0  502  501  0.00000000000E+00  0.00000000000E+00  0.36680907942E+03  0.36680907942E+03  0.00000000000E+00 0.  1.
         21   -1    0    0  501  502 -0.00000000000E+00 -0.00000000000E+00 -0.14108991170E+03  0.14108991170E+03  0.00000000000E+00 0.  1.
      99926    2    1    2    0    0  0.88817841970E-15  0.00000000000E+00  0.22571916772E+03  0.50789899113E+03  0.45498598057E+03 0.  0.
      99925    2    3    3    0    0 -0.49946668419E+01 -0.53378553763E+02  0.28549627697E+02  0.26832112840E+03  0.26135594503E+03 0.  0.
         25    1    4    4    0    0 -0.12220115815E+02 -0.29781673244E+02  0.50979498789E+02  0.13886214995E+03  0.12509000000E+03 0.  0.
         25    1    4    4    0    0  0.72254489731E+01 -0.23596880519E+02 -0.22429871092E+02  0.12945897845E+03  0.12509000000E+03 0.  0.
         25    1    3    3    0    0  0.49946668419E+01  0.53378553763E+02  0.19716954002E+03  0.23957786273E+03  0.12509000000E+03 0.  0.
<mgrwt>
<rscale>  2 0.45498598E+03</rscale>
<asrwt>0</asrwt>
<pdfrwt beam="1">  1       21 0.53942511E-01 0.45498598E+03</pdfrwt>
<pdfrwt beam="2">  1       21 0.20748517E-01 0.45498598E+03</pdfrwt>
<totfact> 0.64726422E+04</totfact>
</mgrwt>
</event>
<event>
 7    0  0.4685107E-002  0.4522642E+03  0.7546771E-02  0.1027049E+00
         21   -1    0    0  502  501  0.00000000000E+00  0.00000000000E+00  0.20144117100E+03  0.20144117100E+03  0.00000000000E+00 0.  1.
         21   -1    0    0  501  502 -0.00000000000E+00 -0.00000000000E+00 -0.25384941401E+03  0.25384941401E+03  0.00000000000E+00 0.  1.
      99926    2    1    2    0    0  0.00000000000E+00 -0.22204460493E-15 -0.52408243017E+02  0.45529058501E+03  0.45226418481E+03 0.  0.
      99925    2    3    3    0    0  0.85764591217E+02  0.18996778027E+01  0.37109456070E+02  0.27916534425E+03  0.26305323381E+03 0.  0.
         25    1    4    4    0    0  0.60833946747E+01 -0.23532386213E+00  0.37859933843E+02  0.13083556764E+03  0.12509000000E+03 0.  0.
         25    1    3    3    0    0 -0.85764591217E+02 -0.18996778027E+01 -0.89517699087E+02  0.17612524076E+03  0.12509000000E+03 0.  0.
         25    1    4    4    0    0  0.79681196543E+02  0.21350016648E+01 -0.75047777305E+00  0.14832977662E+03  0.12509000000E+03 0.  0.
<mgrwt>
<rscale>  2 0.45226418E+03</rscale>
<asrwt>0</asrwt>
<pdfrwt beam="1">  1       21 0.29623702E-01 0.45226418E+03</pdfrwt>
<pdfrwt beam="2">  1       21 0.37330796E-01 0.45226418E+03</pdfrwt>
<totfact> 0.70040796E+04</totfact>
</mgrwt>
</event>
<event>
 7    0  0.4685107E-002  0.4566860E+03  0.7546771E-02  0.1025747E+00
         21   -1    0    0  502  501  0.00000000000E+00  0.00000000000E+00  0.87176250096E+02  0.87176250096E+02  0.00000000000E+00 0.  1.
         21   -1    0    0  501  502 -0.00000000000E+00 -0.00000000000E+00 -0.59810478109E+03  0.59810478109E+03  0.00000000000E+00 0.  1.
      99926    2    1    2    0    0  0.14210854715E-13  0.00000000000E+00 -0.51092853099E+03  0.68528103118E+03  0.45668602773E+03 0.  0.
      99925    2    3    3    0    0  0.98828627085E+02 -0.51507306565E+02 -0.36263069353E+03  0.46154042947E+03  0.26286583647E+03 0.  0.
         25    1    4    4    0    0  0.27444534115E+02 -0.59315404575E+02 -0.18665576442E+03  0.23400726947E+03  0.12509000000E+03 0.  0.
         25    1    4    4    0    0  0.71384092969E+02  0.78080980101E+01 -0.17597492911E+03  0.22753316000E+03  0.12509000000E+03 0.  0.
         25    1    3    3    0    0 -0.98828627085E+02  0.51507306565E+02 -0.14829783746E+03  0.22374060172E+03  0.12509000000E+03 0.  0.
<mgrwt>
<rscale>  2 0.45668603E+03</rscale>
<asrwt>0</asrwt>
<pdfrwt beam="1">  1       21 0.12820037E-01 0.45668603E+03</pdfrwt>
<pdfrwt beam="2">  1       21 0.87956587E-01 0.45668603E+03</pdfrwt>
<totfact> 0.53002554E+04</totfact>
</mgrwt>
</event>
<event>
 7    0  0.4685107E-002  0.4114831E+03  0.7546771E-02  0.1039874E+00
         21   -1    0    0  502  501  0.00000000000E+00  0.00000000000E+00  0.55197200255E+02  0.55197200255E+02  0.00000000000E+00 0.  1.
         21   -1    0    0  501  502 -0.00000000000E+00 -0.00000000000E+00 -0.76687907803E+03  0.76687907803E+03  0.00000000000E+00 0.  1.
      99926    2    1    2    0    0 -0.35527136788E-14  0.00000000000E+00 -0.71168187777E+03  0.82207627828E+03  0.41148306425E+03 0.  0.
      99925    2    3    3    0    0  0.27715277450E+02 -0.17734521477E+02 -0.57903226413E+03  0.63680329602E+03  0.26297799350E+03 0.  0.
         25    1    4    4    0    0  0.43995347798E+02 -0.36263937476E+02 -0.29368019021E+03  0.32426258805E+03  0.12509000000E+03 0.  0.
         25    1    3    3    0    0 -0.27715277450E+02  0.17734521477E+02 -0.13264961364E+03  0.18527298226E+03  0.12509000000E+03 0.  0.
         25    1    4    4    0    0 -0.16280070348E+02  0.18529415999E+02 -0.28535207392E+03  0.31254070797E+03  0.12509000000E+03 0.  0.
<mgrwt>
<rscale>  2 0.41148306E+03</rscale>
<asrwt>0</asrwt>
<pdfrwt beam="1">  1       21 0.81172359E-02 0.41148306E+03</pdfrwt>
<pdfrwt beam="2">  1       21 0.11277633E+00 0.41148306E+03</pdfrwt>
<totfact> 0.66747908E+04</totfact>
</mgrwt>
</event>
<event>
 7    0  0.4685107E-002  0.4592164E+03  0.7546771E-02  0.1025009E+00
         21   -1    0    0  502  501  0.00000000000E+00  0.00000000000E+00  0.13441632241E+04  0.13441632241E+04  0.00000000000E+00 0. -1.
         21   -1    0    0  501  502 -0.00000000000E+00 -0.00000000000E+00 -0.39221365761E+02  0.39221365761E+02  0.00000000000E+00 0. -1.
      99926    2    1    2    0    0  0.17763568394E-14 -0.17763568394E-14  0.13049418583E+04  0.13833845898E+04  0.45921636492E+03 0.  0.
      99925    2    3    3    0    0 -0.99269140938E+01  0.98479673307E+01  0.11682664535E+04  0.11975803906E+04  0.26297672786E+03 0.  0.
         25    1    3    3    0    0  0.99269140938E+01 -0.98479673307E+01  0.13667540478E+03  0.18580419924E+03  0.12509000000E+03 0.  0.
         25    1    4    4    0    0  0.13022160768E+02 -0.25751939877E+02  0.48732888712E+03  0.50395405683E+03  0.12509000000E+03 0.  0.
         25    1    4    4    0    0 -0.22949074862E+02  0.35599907208E+02  0.68093756640E+03  0.69362633374E+03  0.12509000000E+03 0.  0.
<mgrwt>
<rscale>  2 0.45921636E+03</rscale>
<asrwt>0</asrwt>
<pdfrwt beam="1">  1       21 0.19767103E+00 0.45921636E+03</pdfrwt>
<pdfrwt beam="2">  1       21 0.57678488E-02 0.45921636E+03</pdfrwt>
<totfact> 0.25918391E+04</totfact>
</mgrwt>
</event>
<event>
 7    0  0.4685107E-002  0.4516743E+03  0.7546771E-02  0.1027224E+00
         21   -1    0    0  502  501  0.00000000000E+00  0.00000000000E+00  0.23310646642E+03  0.23310646642E+03  0.00000000000E+00 0. -1.
         21   -1    0    0  501  502 -0.00000000000E+00 -0.00000000000E+00 -0.21879448921E+03  0.21879448921E+03  0.00000000000E+00 0. -1.
      99926    2    1    2    0    0  0.35527136788E-14 -0.14210854715E-13  0.14311977205E+02  0.45190095563E+03  0.45167426427E+03 0.  0.
      99925    2    3    3    0    0  0.16853115563E+02 -0.85037574451E+02 -0.58855260168E+02  0.28303305075E+03  0.26292270650E+03 0.  0.
         25    1    4    4    0    0 -0.10081097315E+02 -0.71388078202E+02 -0.54353513640E+02  0.15427150993E+03  0.12509000000E+03 0.  0.
         25    1    3    3    0    0 -0.16853115563E+02  0.85037574451E+02  0.73167237373E+02  0.16886790488E+03  0.12509000000E+03 0.  0.
         25    1    4    4    0    0  0.26934212879E+02 -0.13649496248E+02 -0.45017465274E+01  0.12876154081E+03  0.12509000000E+03 0.  0.
<mgrwt>
<rscale>  2 0.45167426E+03</rscale>
<asrwt>0</asrwt>
<pdfrwt beam="1">  1       21 0.34280363E-01 0.45167426E+03</pdfrwt>
<pdfrwt beam="2">  1       21 0.32175660E-01 0.45167426E+03</pdfrwt>
<totfact> 0.70629110E+04</totfact>
</mgrwt>
</event>
<event>
 7    0  0.4685107E-002  0.4446443E+03  0.7546771E-02  0.1029331E+00
         21   -1    0    0  502  501  0.00000000000E+00  0.00000000000E+00  0.30195202913E+03  0.30195202913E+03  0.00000000000E+00 0. -1.
         21   -1    0    0  501  502 -0.00000000000E+00 -0.00000000000E+00 -0.16369200317E+03  0.16369200317E+03  0.00000000000E+00 0. -1.
      99926    2    1    2    0    0  0.00000000000E+00  0.00000000000E+00  0.13826002596E+03  0.46564403231E+03  0.44464427360E+03 0.  0.
      99925    2    3    3    0    0  0.65844475461E+02  0.69067576269E+02  0.46781800704E+02  0.28365062903E+03  0.26298919641E+03 0.  0.
         25    1    4    4    0    0  0.73543929684E+02  0.28143566802E+02  0.28792942328E+02  0.15058987872E+03  0.12509000000E+03 0.  0.
         25    1    3    3    0    0 -0.65844475461E+02 -0.69067576269E+02  0.91478225257E+02  0.18199340328E+03  0.12509000000E+03 0.  0.
         25    1    4    4    0    0 -0.76994542238E+01  0.40924009467E+02  0.17988858375E+02  0.13306075031E+03  0.12509000000E+03 0.  0.
<mgrwt>
<rscale>  2 0.44464427E+03</rscale>
<asrwt>0</asrwt>
<pdfrwt beam="1">  1       21 0.44404710E-01 0.44464427E+03</pdfrwt>
<pdfrwt beam="2">  1       21 0.24072353E-01 0.44464427E+03</pdfrwt>
<totfact> 0.73627171E+04</totfact>
</mgrwt>
</event>
<event>
 7    0  0.4685107E-002  0.4531938E+03  0.7546771E-02  0.1026774E+00
         21   -1    0    0  502  501  0.00000000000E+00  0.00000000000E+00  0.31015683182E+03  0.31015683182E+03  0.00000000000E+00 0.  1.
         21   -1    0    0  501  502 -0.00000000000E+00 -0.00000000000E+00 -0.16554901071E+03  0.16554901071E+03  0.00000000000E+00 0.  1.
      99926    2    1    2    0    0  0.00000000000E+00  0.00000000000E+00  0.14460782111E+03  0.47570584253E+03  0.45319380698E+03 0.  0.
      99925    2    3    3    0    0  0.54340250619E+02  0.71768142419E+02  0.16007509462E+03  0.32081790318E+03  0.26305239399E+03 0.  0.
         25    1    4    4    0    0  0.44368385581E+02  0.75046243820E+02  0.89990828274E+02  0.17704900345E+03  0.12509000000E+03 0.  0.
         25    1    4    4    0    0  0.99718650380E+01 -0.32781014006E+01  0.70084266342E+02  0.14376889973E+03  0.12509000000E+03 0.  0.
         25    1    3    3    0    0 -0.54340250619E+02 -0.71768142419E+02 -0.15467273506E+02  0.15488793934E+03  0.12509000000E+03 0.  0.
<mgrwt>
<rscale>  2 0.45319381E+03</rscale>
<asrwt>0</asrwt>
<pdfrwt beam="1">  1       21 0.45611299E-01 0.45319381E+03</pdfrwt>
<pdfrwt beam="2">  1       21 0.24345443E-01 0.45319381E+03</pdfrwt>
<totfact> 0.67983346E+04</totfact>
</mgrwt>
</event>
<event>
 7    0  0.4685107E-002  0.4547653E+03  0.7546771E-02  0.1026310E+00
         21   -1    0    0  502  501  0.00000000000E+00  0.00000000000E+00  0.16035844615E+03  0.16035844615E+03  0.00000000000E+00 0.  1.
         21   -1    0    0  501  502 -0.00000000000E+00 -0.00000000000E+00 -0.32242063718E+03  0.32242063718E+03  0.00000000000E+00 0.  1.
      99926    2    1    2    0    0 -0.17763568394E-14  0.00000000000E+00 -0.16206219102E+03  0.48277908333E+03  0.45476531260E+03 0.  0.
      99925    2    3    3    0    0 -0.13235036549E+02 -0.93497807580E+02 -0.36262296930E+02  0.28180613075E+03  0.26302611075E+03 0.  0.
         25    1    3    3    0    0  0.13235036549E+02  0.93497807580E+02 -0.12579989409E+03  0.20097295258E+03  0.12509000000E+03 0.  0.
         25    1    4    4    0    0 -0.19881099043E+02 -0.81887247735E+02  0.19927095776E+00  0.15082548608E+03  0.12509000000E+03 0.  0.
         25    1    4    4    0    0  0.66460624941E+01 -0.11610559844E+02 -0.36461567888E+02  0.13098064467E+03  0.12509000000E+03 0.  0.
<mgrwt>
<rscale>  2 0.45476531E+03</rscale>
<asrwt>0</asrwt>
<pdfrwt beam="1">  1       21 0.23582125E-01 0.45476531E+03</pdfrwt>
<pdfrwt beam="2">  1       21 0.47414799E-01 0.45476531E+03</pdfrwt>
<totfact> 0.66622384E+04</totfact>
</mgrwt>
</event>
<event>
 7    0  0.4685107E-002  0.4527741E+03  0.7546771E-02  0.1026898E+00
         21   -1    0    0  502  501  0.00000000000E+00  0.00000000000E+00  0.73660832334E+03  0.73660832334E+03  0.00000000000E+00 0.  1.
         21   -1    0    0  501  502 -0.00000000000E+00 -0.00000000000E+00 -0.69577124069E+02  0.69577124069E+02  0.00000000000E+00 0.  1.
      99926    2    1    2    0    0  0.00000000000E+00  0.00000000000E+00  0.66703119927E+03  0.80618544741E+03  0.45277406597E+03 0.  0.
      99925    2    3    3    0    0 -0.80875237527E+02 -0.15829286018E+02  0.28741181956E+03  0.39808037284E+03  0.26281373418E+03 0.  0.
         25    1    3    3    0    0  0.80875237527E+02  0.15829286018E+02  0.37961937971E+03  0.40810507457E+03  0.12509000000E+03 0.  0.
         25    1    4    4    0    0 -0.58695416533E+02  0.14305930697E+02  0.18909728189E+03  0.23463823578E+03  0.12509000000E+03 0.  0.
         25    1    4    4    0    0 -0.22179820994E+02 -0.30135216714E+02  0.98314537675E+02  0.16344213705E+03  0.12509000000E+03 0.  0.
<mgrwt>
<rscale>  2 0.45277407E+03</rscale>
<asrwt>0</asrwt>
<pdfrwt beam="1">  1       21 0.10832475E+00 0.45277407E+03</pdfrwt>
<pdfrwt beam="2">  1       21 0.10231930E-01 0.45277407E+03</pdfrwt>
<totfact> 0.48305362E+04</totfact>
</mgrwt>
</event>
<event>
 7    0  0.4685107E-002  0.4544235E+03  0.7546771E-02  0.1026411E+00
         21   -1    0    0  502  501  0.00000000000E+00  0.00000000000E+00  0.92764499198E+02  0.92764499198E+02  0.00000000000E+00 0. -1.
         21   -1    0    0  501  502 -0.00000000000E+00 -0.00000000000E+00 -0.55651876086E+03  0.55651876086E+03  0.00000000000E+00 0. -1.
      99926    2    1    2    0    0  0.00000000000E+00  0.71054273576E-14 -0.46375426166E+03  0.64928326006E+03  0.45442352116E+03 0.  0.
      99925    2    3    3    0    0 -0.93844095207E+02  0.57869296004E+02 -0.25966792216E+03  0.38574140058E+03  0.26308445165E+03 0.  0.
         25    1    4    4    0    0 -0.50515761416E+02  0.68236381438E+02 -0.11991845893E+03  0.19296629446E+03  0.12509000000E+03 0.  0.
         25    1    4    4    0    0 -0.43328333791E+02 -0.10367085434E+02 -0.13974946322E+03  0.19277510612E+03  0.12509000000E+03 0.  0.
         25    1    3    3    0    0  0.93844095207E+02 -0.57869296004E+02 -0.20408633950E+03  0.26354185948E+03  0.12509000000E+03 0.  0.
<mgrwt>
<rscale>  2 0.45442352E+03</rscale>
<asrwt>0</asrwt>
<pdfrwt beam="1">  1       21 0.13641838E-01 0.45442352E+03</pdfrwt>
<pdfrwt beam="2">  1       21 0.81840996E-01 0.45442352E+03</pdfrwt>
<totfact> 0.55997034E+04</totfact>
</mgrwt>
</event>
<event>
 7    0  0.4685107E-002  0.4697652E+03  0.7546771E-02  0.1021987E+00
         21   -1    0    0  502  501  0.00000000000E+00  0.00000000000E+00  0.59870176818E+02  0.59870176818E+02  0.00000000000E+00 0.  1.
         21   -1    0    0  501  502 -0.00000000000E+00 -0.00000000000E+00 -0.92149094331E+03  0.92149094331E+03  0.00000000000E+00 0.  1.
      99926    2    1    2    0    0  0.14210854715E-13  0.00000000000E+00 -0.86162076649E+03  0.98136112013E+03  0.46976515712E+03 0.  0.
      99925    2    3    3    0    0  0.97574168106E+02 -0.52076966832E+02 -0.66354760840E+03  0.72229894070E+03  0.26303536332E+03 0.  0.
         25    1    3    3    0    0 -0.97574168106E+02  0.52076966832E+02 -0.19807315809E+03  0.25906217943E+03  0.12509000000E+03 0.  0.
         25    1    4    4    0    0  0.75726597895E+01 -0.14746476454E+02 -0.27097781232E+03  0.29891685569E+03  0.12509000000E+03 0.  0.
         25    1    4    4    0    0  0.90001508316E+02 -0.37330490378E+02 -0.39256979608E+03  0.42338208501E+03  0.12509000000E+03 0.  0.
<mgrwt>
<rscale>  2 0.46976516E+03</rscale>
<asrwt>0</asrwt>
<pdfrwt beam="1">  1       21 0.88044384E-02 0.46976516E+03</pdfrwt>
<pdfrwt beam="2">  1       21 0.13551336E+00 0.46976516E+03</pdfrwt>
<totfact> 0.35605423E+04</totfact>
</mgrwt>
</event>
<event>
 6    0  0.4848318E-002  0.4410180E+03  0.7546771E-02  0.1030435E+00
         21   -1    0    0  502  501  0.00000000000E+00  0.00000000000E+00  0.35684413901E+03  0.35684413901E+03  0.00000000000E+00 0. -1.
         21   -1    0    0  501  502 -0.00000000000E+00 -0.00000000000E+00 -0.13626179192E+03  0.13626179192E+03  0.00000000000E+00 0. -1.
      99926    2    1    2    0    0  0.71054273576E-14  0.00000000000E+00  0.22058234709E+03  0.49310593094E+03  0.44101801242E+03 0.  0.
         25    1    3    3    0    0  0.54539715679E+02  0.75946797975E+02  0.64196133637E+02  0.16885244559E+03  0.12509000000E+03 0.  0.
         25    1    3    3    0    0  0.19090938526E+02 -0.26137231838E+02  0.55651481149E+02  0.14068480471E+03  0.12509000000E+03 0.  0.
         25    1    3    3    0    0 -0.73630654204E+02 -0.49809566137E+02  0.10073473230E+03  0.18356868063E+03  0.12509000000E+03 0.  0.
<mgrwt>
<rscale>  2 0.44101801E+03</rscale>
<asrwt>0</asrwt>
<pdfrwt beam="1">  1       21 0.52477079E-01 0.44101801E+03</pdfrwt>
<pdfrwt beam="2">  1       21 0.20038499E-01 0.44101801E+03</pdfrwt>
<totfact> 0.73592613E+04</totfact>
</mgrwt>
</event>
<event>
 7    0  0.4685107E-002  0.4565298E+03  0.7546771E-02  0.1025792E+00
         21   -1    0    0  502  501  0.00000000000E+00  0.00000000000E+00  0.41529537656E+02  0.41529537656E+02  0.00000000000E+00 0.  1.
         21   -1    0    0  501  502 -0.00000000000E+00 -0.00000000000E+00 -0.12546459033E+04  0.12546459033E+04  0.00000000000E+00 0.  1.
      99926    2    1    2    0    0 -0.14210854715E-13  0.17763568394E-14 -0.12131163656E+04  0.12961754409E+04  0.45652979874E+03 0.  0.
      99925    2    3    3    0    0 -0.96846617394E+02  0.10029804406E+02 -0.93331807374E+03  0.97459425909E+03  0.26319475450E+03 0.  0.
         25    1    3    3    0    0  0.96846617394E+02 -0.10029804406E+02 -0.27979829186E+03  0.32158118183E+03  0.12509000000E+03 0.  0.
         25    1    4    4    0    0 -0.39958878230E+02  0.27898820342E+02 -0.57376749670E+03  0.58926369691E+03  0.12509000000E+03 0.  0.
         25    1    4    4    0    0 -0.56887739164E+02 -0.17869015936E+02 -0.35955057704E+03  0.38533056218E+03  0.12509000000E+03 0.  0.
<mgrwt>
<rscale>  2 0.45652980E+03</rscale>
<asrwt>0</asrwt>
<pdfrwt beam="1">  1       21 0.61072865E-02 0.45652980E+03</pdfrwt>
<pdfrwt beam="2">  1       21 0.18450670E+00 0.45652980E+03</pdfrwt>
<totfact> 0.28880837E+04</totfact>
</mgrwt>
</event>
<event>
 7    0  0.4685107E-002  0.4728711E+03  0.7546771E-02  0.1021113E+00
         21   -1    0    0  502  501  0.00000000000E+00  0.00000000000E+00  0.10847852591E+04  0.10847852591E+04  0.00000000000E+00 0. -1.
         21   -1    0    0  501  502 -0.00000000000E+00 -0.00000000000E+00 -0.51532567001E+02  0.51532567001E+02  0.00000000000E+00 0. -1.
      99926    2    1    2    0    0  0.00000000000E+00 -0.26645352591E-14  0.10332526921E+04  0.11363178261E+04  0.47287109890E+03 0.  0.
      99925    2    3    3    0    0 -0.10878676455E+03 -0.70981072549E+01  0.80701794992E+03  0.85575658512E+03  0.26297607917E+03 0.  0.
         25    1    4    4    0    0 -0.39903165602E+02  0.31560044741E+02  0.33875025909E+03  0.36467457435E+03  0.12509000000E+03 0.  0.
         25    1    4    4    0    0 -0.68883598949E+02 -0.38658151995E+02  0.46826769084E+03  0.49108201077E+03  0.12509000000E+03 0.  0.
         25    1    3    3    0    0  0.10878676455E+03  0.70981072549E+01  0.22623474215E+03  0.28056124095E+03  0.12509000000E+03 0.  0.
<mgrwt>
<rscale>  2 0.47287110E+03</rscale>
<asrwt>0</asrwt>
<pdfrwt beam="1">  1       21 0.15952723E+00 0.47287110E+03</pdfrwt>
<pdfrwt beam="2">  1       21 0.75783194E-02 0.47287110E+03</pdfrwt>
<totfact> 0.29860819E+04</totfact>
</mgrwt>
</event>
<event>
 7    0  0.4685107E-002  0.4590837E+03  0.7546771E-02  0.1025047E+00
         21   -1    0    0  502  501  0.00000000000E+00  0.00000000000E+00  0.33944653939E+02  0.33944653939E+02  0.00000000000E+00 0. -1.
         21   -1    0    0  501  502 -0.00000000000E+00 -0.00000000000E+00 -0.15522170679E+04  0.15522170679E+04  0.00000000000E+00 0. -1.
      99926    2    1    2    0    0  0.00000000000E+00  0.00000000000E+00 -0.15182724139E+04  0.15861617218E+04  0.45908374490E+03 0.  0.
      99925    2    3    3    0    0  0.29905860976E+02  0.10983424649E+03 -0.85808103639E+03  0.90465010393E+03  0.26292741072E+03 0.  0.
         25    1    4    4    0    0  0.40319838961E+02  0.41247715654E+02 -0.51122748016E+03  0.52946020438E+03  0.12509000000E+03 0.  0.
         25    1    4    4    0    0 -0.10413977985E+02  0.68586530835E+02 -0.34685355623E+03  0.37518989955E+03  0.12509000000E+03 0.  0.
         25    1    3    3    0    0 -0.29905860976E+02 -0.10983424649E+03 -0.66019137755E+03  0.68151161788E+03  0.12509000000E+03 0.  0.
<mgrwt>
<rscale>  2 0.45908374E+03</rscale>
<asrwt>0</asrwt>
<pdfrwt beam="1">  1       21 0.49918610E-02 0.45908374E+03</pdfrwt>
<pdfrwt beam="2">  1       21 0.22826721E+00 0.45908374E+03</pdfrwt>
<totfact> 0.21068046E+04</totfact>
</mgrwt>
</event>
<event>
 7    0  0.4685107E-002  0.4515502E+03  0.7546771E-02  0.1027261E+00
         21   -1    0    0  502  501  0.00000000000E+00  0.00000000000E+00  0.22800954619E+03  0.22800954619E+03  0.00000000000E+00 0.  1.
         21   -1    0    0  501  502 -0.00000000000E+00 -0.00000000000E+00 -0.22356256442E+03  0.22356256442E+03  0.00000000000E+00 0.  1.
      99926    2    1    2    0    0  0.35527136788E-14 -0.17763568394E-14  0.44469817765E+01  0.45157211061E+03  0.45155021363E+03 0.  0.
      99925    2    3    3    0    0 -0.26874745122E+02  0.13696069619E+02 -0.10368502284E+03  0.28349512595E+03  0.26212414660E+03 0.  0.
         25    1    3    3    0    0  0.26874745122E+02 -0.13696069619E+02  0.10813200462E+03  0.16807698466E+03  0.12509000000E+03 0.  0.
         25    1    4    4    0    0  0.48716240104E-01 -0.14601960356E+02 -0.82990174026E+02  0.15082472179E+03  0.12509000000E+03 0.  0.
         25    1    4    4    0    0 -0.26923461362E+02  0.28298029975E+02 -0.20694848814E+02  0.13267040416E+03  0.12509000000E+03 0.  0.
<mgrwt>
<rscale>  2 0.45155021E+03</rscale>
<asrwt>0</asrwt>
<pdfrwt beam="1">  1       21 0.33530816E-01 0.45155021E+03</pdfrwt>
<pdfrwt beam="2">  1       21 0.32876848E-01 0.45155021E+03</pdfrwt>
<totfact> 0.70724431E+04</totfact>
</mgrwt>
</event>
<event>
 7    0  0.4685107E-002  0.4477689E+03  0.7546771E-02  0.1028389E+00
         21   -1    0    0  502  501  0.00000000000E+00  0.00000000000E+00  0.60426969945E+03  0.60426969945E+03  0.00000000000E+00 0. -1.
         21   -1    0    0  501  502 -0.00000000000E+00 -0.00000000000E+00 -0.82950117144E+02  0.82950117144E+02  0.00000000000E+00 0. -1.
      99926    2    1    2    0    0  0.00000000000E+00  0.14210854715E-13  0.52131958230E+03  0.68721981659E+03  0.44776887947E+03 0.  0.
      99925    2    3    3    0    0  0.13410900583E+02 -0.69679172125E+02  0.20875212440E+03  0.34315446942E+03  0.26294961715E+03 0.  0.
         25    1    4    4    0    0  0.18029977427E+02 -0.26275447437E+02  0.15092250287E+03  0.19859654880E+03  0.12509000000E+03 0.  0.
         25    1    3    3    0    0 -0.13410900583E+02  0.69679172125E+02  0.31256745790E+03  0.34406534717E+03  0.12509000000E+03 0.  0.
         25    1    4    4    0    0 -0.46190768439E+01 -0.43403724688E+02  0.57829621532E+02  0.14455792062E+03  0.12509000000E+03 0.  0.
<mgrwt>
<rscale>  2 0.44776888E+03</rscale>
<asrwt>0</asrwt>
<pdfrwt beam="1">  1       21 0.88863189E-01 0.44776888E+03</pdfrwt>
<pdfrwt beam="2">  1       21 0.12198547E-01 0.44776888E+03</pdfrwt>
<totfact> 0.56765610E+04</totfact>
</mgrwt>
</event>
<event>
 7    0  0.4685107E-002  0.4587330E+03  0.7546771E-02  0.1025149E+00
         21   -1    0    0  502  501  0.00000000000E+00  0.00000000000E+00  0.53276408939E+03  0.53276408939E+03  0.00000000000E+00 0.  1.
         21   -1    0    0  501  502 -0.00000000000E+00 -0.00000000000E+00 -0.98747249038E+02  0.98747249038E+02  0.00000000000E+00 0.  1.
      99926    2    1    2    0    0  0.00000000000E+00 -0.14210854715E-13  0.43401684036E+03  0.63151133843E+03  0.45873298645E+03 0.  0.
      99925    2    3    3    0    0 -0.53666261340E+02  0.10113528921E+03  0.30249190059E+03  0.41690767535E+03  0.26306319680E+03 0.  0.
         25    1    3    3    0    0  0.53666261340E+02 -0.10113528921E+03  0.13152493976E+03  0.21460366308E+03  0.12509000000E+03 0.  0.
         25    1    4    4    0    0 -0.44218332533E+02  0.75023867476E+02  0.20720555846E+03  0.25722654058E+03  0.12509000000E+03 0.  0.
         25    1    4    4    0    0 -0.94479288068E+01  0.26111421731E+02  0.95286342136E+02  0.15968113477E+03  0.12509000000E+03 0.  0.
<mgrwt>
<rscale>  2 0.45873299E+03</rscale>
<asrwt>0</asrwt>
<pdfrwt beam="1">  1       21 0.78347659E-01 0.45873299E+03</pdfrwt>
<pdfrwt beam="2">  1       21 0.14521654E-01 0.45873299E+03</pdfrwt>
<totfact> 0.55136591E+04</totfact>
</mgrwt>
</event>
<event>
 7    0  0.4685107E-002  0.4469567E+03  0.7546771E-02  0.1028633E+00
         21   -1    0    0  502  501  0.00000000000E+00  0.00000000000E+00  0.30739112430E+04  0.30739112430E+04  0.00000000000E+00 0.  1.
         21   -1    0    0  501  502 -0.00000000000E+00 -0.00000000000E+00 -0.16247241319E+02  0.16247241319E+02  0.00000000000E+00 0.  1.
      99926    2    1    2    0    0 -0.35527136788E-14  0.00000000000E+00  0.30576640017E+04  0.30901584843E+04  0.44695672166E+03 0.  0.
      99925    2    3    3    0    0 -0.11618710630E+02 -0.52284604735E+02  0.25664156174E+04  0.25804123146E+04  0.26300174535E+03 0.  0.
         25    1    4    4    0    0  0.27904915107E+02 -0.46978768811E+02  0.13945470732E+04  0.14012118814E+04  0.12509000000E+03 0.  0.
         25    1    4    4    0    0 -0.39523625736E+02 -0.53058359247E+01  0.11718685442E+04  0.11792004332E+04  0.12509000000E+03 0.  0.
         25    1    3    3    0    0  0.11618710630E+02  0.52284604735E+02  0.49124838427E+03  0.50974616965E+03  0.12509000000E+03 0.  0.
<mgrwt>
<rscale>  2 0.44695672E+03</rscale>
<asrwt>0</asrwt>
<pdfrwt beam="1">  1       21 0.45204537E+00 0.44695672E+03</pdfrwt>
<pdfrwt beam="2">  1       21 0.23893023E-02 0.44695672E+03</pdfrwt>
<totfact> 0.29568153E+03</totfact>
</mgrwt>
</event>
<event>
 7    0  0.4685107E-002  0.4610345E+03  0.7546771E-02  0.1024482E+00
         21   -1    0    0  502  501  0.00000000000E+00  0.00000000000E+00  0.34561364031E+02  0.34561364031E+02  0.00000000000E+00 0.  1.
         21   -1    0    0  501  502 -0.00000000000E+00 -0.00000000000E+00 -0.15375030905E+04  0.15375030905E+04  0.00000000000E+00 0.  1.
      99926    2    1    2    0    0 -0.71054273576E-14  0.00000000000E+00 -0.15029417265E+04  0.15720644546E+04  0.46103450635E+03 0.  0.
      99925    2    3    3    0    0 -0.49992149145E+02  0.87025684918E+02 -0.11571781659E+04  0.11909179830E+04  0.26296701294E+03 0.  0.
         25    1    3    3    0    0  0.49992149145E+02 -0.87025684918E+02 -0.34576356062E+03  0.38114647154E+03  0.12509000000E+03 0.  0.
         25    1    4    4    0    0 -0.31382020116E+01  0.38447110841E+02 -0.41167017358E+03  0.43198132895E+03  0.12509000000E+03 0.  0.
         25    1    4    4    0    0 -0.46853947133E+02  0.48578574077E+02 -0.74550799231E+03  0.75893665408E+03  0.12509000000E+03 0.  0.
<mgrwt>
<rscale>  2 0.46103451E+03</rscale>
<asrwt>0</asrwt>
<pdfrwt beam="1">  1       21 0.50825559E-02 0.46103451E+03</pdfrwt>
<pdfrwt beam="2">  1       21 0.22610329E+00 0.46103451E+03</pdfrwt>
<totfact> 0.21062452E+04</totfact>
</mgrwt>
</event>
<event>
 7    0  0.4685107E-002  0.4580078E+03  0.7546771E-02  0.1025361E+00
         21   -1    0    0  502  501  0.00000000000E+00  0.00000000000E+00  0.50781628408E+03  0.50781628408E+03  0.00000000000E+00 0.  1.
         21   -1    0    0  501  502 -0.00000000000E+00 -0.00000000000E+00 -0.10327116241E+03  0.10327116241E+03  0.00000000000E+00 0.  1.
      99926    2    1    2    0    0  0.00000000000E+00  0.00000000000E+00  0.40454512167E+03  0.61108744649E+03  0.45800776390E+03 0.  0.
      99925    2    3    3    0    0 -0.48207541050E+02 -0.78403666423E+02  0.15984151025E+03  0.32126255545E+03  0.26303843676E+03 0.  0.
         25    1    3    3    0    0  0.48207541050E+02  0.78403666423E+02  0.24470361142E+03  0.28982489104E+03  0.12509000000E+03 0.  0.
         25    1    4    4    0    0 -0.42465183760E+02 -0.68939753547E+02  0.11385979773E+03  0.18753011249E+03  0.12509000000E+03 0.  0.
         25    1    4    4    0    0 -0.57423572907E+01 -0.94639128766E+01  0.45981712519E+02  0.13373244296E+03  0.12509000000E+03 0.  0.
<mgrwt>
<rscale>  2 0.45800776E+03</rscale>
<asrwt>0</asrwt>
<pdfrwt beam="1">  1       21 0.74678864E-01 0.45800776E+03</pdfrwt>
<pdfrwt beam="2">  1       21 0.15186936E-01 0.45800776E+03</pdfrwt>
<totfact> 0.56643190E+04</totfact>
</mgrwt>
</event>
<event>
 7    0  0.4685107E-002  0.4909911E+03  0.7546771E-02  0.1016157E+00
         21   -1    0    0  502  501  0.00000000000E+00  0.00000000000E+00  0.16817522098E+03  0.16817522098E+03  0.00000000000E+00 0.  1.
         21   -1    0    0  501  502 -0.00000000000E+00 -0.00000000000E+00 -0.35836469328E+03  0.35836469328E+03  0.00000000000E+00 0.  1.
      99926    2    1    2    0    0  0.00000000000E+00  0.00000000000E+00 -0.19018947229E+03  0.52653991426E+03  0.49099108539E+03 0.  0.
      99925    2    3    3    0    0  0.55257985308E+02  0.79067460264E+02 -0.96407750741E+00  0.28004677775E+03  0.26290713203E+03 0.  0.
         25    1    3    3    0    0 -0.55257985308E+02 -0.79067460264E+02 -0.18922539479E+03  0.24649313651E+03  0.12509000000E+03 0.  0.
         25    1    4    4    0    0 -0.60712549076E+01  0.13982653301E+02  0.55799054484E+01  0.12613888447E+03  0.12509000000E+03 0.  0.
         25    1    4    4    0    0  0.61329240216E+02  0.65084806963E+02 -0.65439829558E+01  0.15390789329E+03  0.12509000000E+03 0.  0.
<mgrwt>
<rscale>  2 0.49099109E+03</rscale>
<asrwt>0</asrwt>
<pdfrwt beam="1">  1       21 0.24731650E-01 0.49099109E+03</pdfrwt>
<pdfrwt beam="2">  1       21 0.52700690E-01 0.49099109E+03</pdfrwt>
<totfact> 0.48148756E+04</totfact>
</mgrwt>
</event>
<event>
 7    0  0.4685107E-002  0.4542083E+03  0.7546771E-02  0.1026474E+00
         21   -1    0    0  502  501  0.00000000000E+00  0.00000000000E+00  0.40942961325E+03  0.40942961325E+03  0.00000000000E+00 0.  1.
         21   -1    0    0  501  502 -0.00000000000E+00 -0.00000000000E+00 -0.12597107679E+03  0.12597107679E+03  0.00000000000E+00 0.  1.
      99926    2    1    2    0    0  0.00000000000E+00  0.00000000000E+00  0.28345853646E+03  0.53540069004E+03  0.45420827492E+03 0.  0.
      99925    2    3    3    0    0  0.10632240054E+03  0.62828315373E+01  0.13656372208E+03  0.31501575086E+03  0.26313750450E+03 0.  0.
         25    1    4    4    0    0  0.92531137518E+02  0.13723135907E+02  0.58833197975E+02  0.16691072210E+03  0.12509000000E+03 0.  0.
         25    1    3    3    0    0 -0.10632240054E+03 -0.62828315373E+01  0.14689481438E+03  0.22038493919E+03  0.12509000000E+03 0.  0.
         25    1    4    4    0    0  0.13791263017E+02 -0.74403043695E+01  0.77730524103E+02  0.14810502875E+03  0.12509000000E+03 0.  0.
<mgrwt>
<rscale>  2 0.45420827E+03</rscale>
<asrwt>0</asrwt>
<pdfrwt beam="1">  1       21 0.60210237E-01 0.45420827E+03</pdfrwt>
<pdfrwt beam="2">  1       21 0.18525158E-01 0.45420827E+03</pdfrwt>
<totfact> 0.63237014E+04</totfact>
</mgrwt>
</event>
<event>
 7    0  0.4685107E-002  0.4590207E+03  0.7546771E-02  0.1025066E+00
         21   -1    0    0  502  501  0.00000000000E+00  0.00000000000E+00  0.54246673595E+03  0.54246673595E+03  0.00000000000E+00 0. -1.
         21   -1    0    0  501  502 -0.00000000000E+00 -0.00000000000E+00 -0.97102724373E+02  0.97102724373E+02  0.00000000000E+00 0. -1.
      99926    2    1    2    0    0  0.00000000000E+00  0.00000000000E+00  0.44536401158E+03  0.63956946032E+03  0.45902068774E+03 0.  0.
      99925    2    3    3    0    0  0.68989634697E+02 -0.93130377485E+02  0.25868992641E+03  0.38673046199E+03  0.26307249058E+03 0.  0.
         25    1    4    4    0    0  0.25100699362E+02 -0.15686801974E+02  0.81158955446E+02  0.15202106766E+03  0.12509000000E+03 0.  0.
         25    1    3    3    0    0 -0.68989634697E+02  0.93130377485E+02  0.18667408517E+03  0.25283899834E+03  0.12509000000E+03 0.  0.
         25    1    4    4    0    0  0.43888935335E+02 -0.77443575511E+02  0.17753097096E+03  0.23470939432E+03  0.12509000000E+03 0.  0.
<mgrwt>
<rscale>  2 0.45902069E+03</rscale>
<asrwt>0</asrwt>
<pdfrwt beam="1">  1       21 0.79774519E-01 0.45902069E+03</pdfrwt>
<pdfrwt beam="2">  1       21 0.14279813E-01 0.45902069E+03</pdfrwt>
<totfact> 0.54554643E+04</totfact>
</mgrwt>
</event>
<event>
 7    0  0.4685107E-002  0.4526303E+03  0.7546771E-02  0.1026941E+00
         21   -1    0    0  502  501  0.00000000000E+00  0.00000000000E+00  0.33867170383E+03  0.33867170383E+03  0.00000000000E+00 0. -1.
         21   -1    0    0  501  502 -0.00000000000E+00 -0.00000000000E+00 -0.15123359919E+03  0.15123359919E+03  0.00000000000E+00 0. -1.
      99926    2    1    2    0    0  0.00000000000E+00  0.35527136788E-14  0.18743810464E+03  0.48990530302E+03  0.45263027170E+03 0.  0.
      99925    2    3    3    0    0  0.87029288687E+02  0.17281476799E+02  0.46867353807E+02  0.28186590623E+03  0.26339911486E+03 0.  0.
         25    1    4    4    0    0  0.25243715537E+02 -0.19029475306E+02  0.48096921531E+02  0.13769599873E+03  0.12509000000E+03 0.  0.
         25    1    4    4    0    0  0.61785573150E+02  0.36310952106E+02 -0.12295677239E+01  0.14416990750E+03  0.12509000000E+03 0.  0.
         25    1    3    3    0    0 -0.87029288687E+02 -0.17281476799E+02  0.14057075083E+03  0.20803939680E+03  0.12509000000E+03 0.  0.
<mgrwt>
<rscale>  2 0.45263027E+03</rscale>
<asrwt>0</asrwt>
<pdfrwt beam="1">  1       21 0.49804662E-01 0.45263027E+03</pdfrwt>
<pdfrwt beam="2">  1       21 0.22240235E-01 0.45263027E+03</pdfrwt>
<totfact> 0.67241941E+04</totfact>
</mgrwt>
</event>
<event>
 7    0  0.4685107E-002  0.4338416E+03  0.7546771E-02  0.1032653E+00
         21   -1    0    0  502  501  0.00000000000E+00  0.00000000000E+00  0.17908516119E+03  0.17908516119E+03  0.00000000000E+00 0.  1.
         21   -1    0    0  501  502 -0.00000000000E+00 -0.00000000000E+00 -0.26275008304E+03  0.26275008304E+03  0.00000000000E+00 0.  1.
      99926    2    1    2    0    0  0.00000000000E+00 -0.71054273576E-14 -0.83664921848E+02  0.44183524423E+03  0.43384163458E+03 0.  0.
      99925    2    3    3    0    0 -0.35953866697E+02  0.50926822257E+02  0.14683096923E+02  0.27093743075E+03  0.26325895292E+03 0.  0.
         25    1    4    4    0    0 -0.19274348047E+02  0.61091581883E+02 -0.13649182728E+02  0.14120017762E+03  0.12509000000E+03 0.  0.
         25    1    3    3    0    0  0.35953866697E+02 -0.50926822257E+02 -0.98348018771E+02  0.17089781348E+03  0.12509000000E+03 0.  0.
         25    1    4    4    0    0 -0.16679518650E+02 -0.10164759626E+02  0.28332279652E+02  0.12973725313E+03  0.12509000000E+03 0.  0.
<mgrwt>
<rscale>  2 0.43384163E+03</rscale>
<asrwt>0</asrwt>
<pdfrwt beam="1">  1       21 0.26336053E-01 0.43384163E+03</pdfrwt>
<pdfrwt beam="2">  1       21 0.38639718E-01 0.43384163E+03</pdfrwt>
<totfact> 0.82602227E+04</totfact>
</mgrwt>
</event>
<event>
 7    0  0.4685107E-002  0.4515345E+03  0.7546771E-02  0.1027265E+00
         21   -1    0    0  502  501  0.00000000000E+00  0.00000000000E+00  0.73749465810E+02  0.73749465810E+02  0.00000000000E+00 0. -1.
         21   -1    0    0  501  502 -0.00000000000E+00 -0.00000000000E+00 -0.69113532503E+03  0.69113532503E+03  0.00000000000E+00 0. -1.
      99926    2    1    2    0    0  0.35527136788E-14  0.00000000000E+00 -0.61738585922E+03  0.76488479084E+03  0.45153454363E+03 0.  0.
      99925    2    3    3    0    0  0.30000738318E+02  0.10389185144E+03 -0.42306104789E+03  0.50973150065E+03  0.26296766231E+03 0.  0.
         25    1    3    3    0    0 -0.30000738318E+02 -0.10389185144E+03 -0.19432481133E+03  0.25515329019E+03  0.12509000000E+03 0.  0.
         25    1    4    4    0    0 -0.91798429312E+01  0.15839877488E+02 -0.18843586673E+03  0.22691574473E+03  0.12509000000E+03 0.  0.
         25    1    4    4    0    0  0.39180581249E+02  0.88051973954E+02 -0.23462518116E+03  0.28281575592E+03  0.12509000000E+03 0.  0.
<mgrwt>
<rscale>  2 0.45153454E+03</rscale>
<asrwt>0</asrwt>
<pdfrwt beam="1">  1       21 0.10845510E-01 0.45153454E+03</pdfrwt>
<pdfrwt beam="2">  1       21 0.10163755E+00 0.45153454E+03</pdfrwt>
<totfact> 0.50880194E+04</totfact>
</mgrwt>
</event>
<event>
 7    0  0.4685107E-002  0.4501307E+03  0.7546771E-02  0.1027683E+00
         21   -1    0    0  502  501  0.00000000000E+00  0.00000000000E+00  0.38463912006E+02  0.38463912006E+02  0.00000000000E+00 0. -1.
         21   -1    0    0  501  502 -0.00000000000E+00 -0.00000000000E+00 -0.13169336207E+04  0.13169336207E+04  0.00000000000E+00 0. -1.
      99926    2    1    2    0    0  0.00000000000E+00  0.35527136788E-14 -0.12784697087E+04  0.13553975327E+04  0.45013073170E+03 0.  0.
      99925    2    3    3    0    0 -0.21920167897E+02 -0.31055953764E+02 -0.50185638069E+03  0.56785659069E+03  0.26297588240E+03 0.  0.
         25    1    4    4    0    0  0.25755633711E+02 -0.31351965983E+02 -0.26296008493E+03  0.29400988556E+03  0.12509000000E+03 0.  0.
         25    1    3    3    0    0  0.21920167897E+02  0.31055953764E+02 -0.77661332805E+03  0.78754094206E+03  0.12509000000E+03 0.  0.
         25    1    4    4    0    0 -0.47675801608E+02  0.29601221907E+00 -0.23889629576E+03  0.27384670513E+03  0.12509000000E+03 0.  0.
<mgrwt>
<rscale>  2 0.45013073E+03</rscale>
<asrwt>0</asrwt>
<pdfrwt beam="1">  1       21 0.56564568E-02 0.45013073E+03</pdfrwt>
<pdfrwt beam="2">  1       21 0.19366674E+00 0.45013073E+03</pdfrwt>
<totfact> 0.28612945E+04</totfact>
</mgrwt>
</event>
<event>
 7    0  0.4685107E-002  0.4528931E+03  0.7546771E-02  0.1026863E+00
         21   -1    0    0  502  501  0.00000000000E+00  0.00000000000E+00  0.18248747140E+03  0.18248747140E+03  0.00000000000E+00 0.  1.
         21   -1    0    0  501  502 -0.00000000000E+00 -0.00000000000E+00 -0.28099479291E+03  0.28099479291E+03  0.00000000000E+00 0.  1.
      99926    2    1    2    0    0  0.00000000000E+00  0.00000000000E+00 -0.98507321514E+02  0.46348226431E+03  0.45289305243E+03 0.  0.
      99925    2    3    3    0    0 -0.92711003045E+01 -0.10195440317E+03 -0.10657384292E+03  0.30163903617E+03  0.26295906625E+03 0.  0.
         25    1    4    4    0    0 -0.15962053322E+02 -0.79168707758E+02 -0.26519685762E+02  0.15123912611E+03  0.12509000000E+03 0.  0.
         25    1    4    4    0    0  0.66909530172E+01 -0.22785695411E+02 -0.80054157155E+02  0.15039991006E+03  0.12509000000E+03 0.  0.
         25    1    3    3    0    0  0.92711003045E+01  0.10195440317E+03  0.80665214028E+01  0.16184322814E+03  0.12509000000E+03 0.  0.
<mgrwt>
<rscale>  2 0.45289305E+03</rscale>
<asrwt>0</asrwt>
<pdfrwt beam="1">  1       21 0.26836393E-01 0.45289305E+03</pdfrwt>
<pdfrwt beam="2">  1       21 0.41322763E-01 0.45289305E+03</pdfrwt>
<totfact> 0.69071242E+04</totfact>
</mgrwt>
</event>
<event>
 7    0  0.4685107E-002  0.4577607E+03  0.7546771E-02  0.1025433E+00
         21   -1    0    0  502  501  0.00000000000E+00  0.00000000000E+00  0.68382262616E+02  0.68382262616E+02  0.00000000000E+00 0. -1.
         21   -1    0    0  501  502 -0.00000000000E+00 -0.00000000000E+00 -0.76607902582E+03  0.76607902582E+03  0.00000000000E+00 0. -1.
      99926    2    1    2    0    0  0.00000000000E+00 -0.88817841970E-15 -0.69769676321E+03  0.83446128844E+03  0.45776071098E+03 0.  0.
      99925    2    3    3    0    0 -0.11467936091E+03  0.59774476989E+01 -0.41241179742E+03  0.50246414161E+03  0.26305823927E+03 0.  0.
         25    1    3    3    0    0  0.11467936091E+03 -0.59774476989E+01 -0.28528496579E+03  0.33199714683E+03  0.12509000000E+03 0.  0.
         25    1    4    4    0    0 -0.74154555672E+02 -0.29196070917E+02 -0.18120583672E+03  0.23416740176E+03  0.12509000000E+03 0.  0.
         25    1    4    4    0    0 -0.40524805241E+02  0.35173518616E+02 -0.23120596070E+03  0.26829673985E+03  0.12509000000E+03 0.  0.
<mgrwt>
<rscale>  2 0.45776071E+03</rscale>
<asrwt>0</asrwt>
<pdfrwt beam="1">  1       21 0.10056215E-01 0.45776071E+03</pdfrwt>
<pdfrwt beam="2">  1       21 0.11265869E+00 0.45776071E+03</pdfrwt>
<totfact> 0.45156612E+04</totfact>
</mgrwt>
</event>
<event>
 7    0  0.4685107E-002  0.4450833E+03  0.7546771E-02  0.1029198E+00
         21   -1    0    0  502  501  0.00000000000E+00  0.00000000000E+00  0.36297178098E+03  0.36297178098E+03  0.00000000000E+00 0.  1.
         21   -1    0    0  501  502 -0.00000000000E+00 -0.00000000000E+00 -0.13644251336E+03  0.13644251336E+03  0.00000000000E+00 0.  1.
      99926    2    1    2    0    0 -0.35527136788E-14  0.00000000000E+00  0.22652926762E+03  0.49941429434E+03  0.44508328243E+03 0.  0.
      99925    2    3    3    0    0  0.30966593448E+02 -0.96846095377E+02  0.12330147915E+03  0.30799438808E+03  0.26328538172E+03 0.  0.
         25    1    4    4    0    0 -0.20628964627E+02 -0.27663281539E+02  0.65945613777E+02  0.14555804136E+03  0.12509000000E+03 0.  0.
         25    1    3    3    0    0 -0.30966593448E+02  0.96846095377E+02  0.10322778847E+03  0.19141990626E+03  0.12509000000E+03 0.  0.
         25    1    4    4    0    0  0.51595558074E+02 -0.69182813839E+02  0.57355865369E+02  0.16243634672E+03  0.12509000000E+03 0.  0.
<mgrwt>
<rscale>  2 0.44508328E+03</rscale>
<asrwt>0</asrwt>
<pdfrwt beam="1">  1       21 0.53378203E-01 0.44508328E+03</pdfrwt>
<pdfrwt beam="2">  1       21 0.20065076E-01 0.44508328E+03</pdfrwt>
<totfact> 0.70716211E+04</totfact>
</mgrwt>
</event>
<event>
 7    0  0.4685107E-002  0.4552318E+03  0.7546771E-02  0.1026173E+00
         21   -1    0    0  502  501  0.00000000000E+00  0.00000000000E+00  0.46275458315E+03  0.46275458315E+03  0.00000000000E+00 0.  1.
         21   -1    0    0  501  502 -0.00000000000E+00 -0.00000000000E+00 -0.11195780657E+03  0.11195780657E+03  0.00000000000E+00 0.  1.
      99926    2    1    2    0    0  0.00000000000E+00  0.00000000000E+00  0.35079677658E+03  0.57471238972E+03  0.45523175685E+03 0.  0.
      99925    2    3    3    0    0 -0.74961543715E+02 -0.80590743832E+02  0.25576437008E+03  0.38289798095E+03  0.26283331179E+03 0.  0.
         25    1    4    4    0    0 -0.70912936786E+02 -0.37885689438E+02  0.10322022561E+03  0.18101351646E+03  0.12509000000E+03 0.  0.
         25    1    3    3    0    0  0.74961543715E+02  0.80590743832E+02  0.95032406498E+02  0.19181440877E+03  0.12509000000E+03 0.  0.
         25    1    4    4    0    0 -0.40486069287E+01 -0.42705054394E+02  0.15254414447E+03  0.20188446449E+03  0.12509000000E+03 0.  0.
<mgrwt>
<rscale>  2 0.45523176E+03</rscale>
<asrwt>0</asrwt>
<pdfrwt beam="1">  1       21 0.68052144E-01 0.45523176E+03</pdfrwt>
<pdfrwt beam="2">  1       21 0.16464383E-01 0.45523176E+03</pdfrwt>
<totfact> 0.60152123E+04</totfact>
</mgrwt>
</event>
<event>
 7    0  0.4685107E-002  0.4481493E+03  0.7546771E-02  0.1028275E+00
         21   -1    0    0  502  501  0.00000000000E+00  0.00000000000E+00  0.90984582338E+02  0.90984582338E+02  0.00000000000E+00 0. -1.
         21   -1    0    0  501  502 -0.00000000000E+00 -0.00000000000E+00 -0.55184559995E+03  0.55184559995E+03  0.00000000000E+00 0. -1.
      99926    2    1    2    0    0  0.00000000000E+00  0.71054273576E-14 -0.46086101761E+03  0.64283018228E+03  0.44814926721E+03 0.  0.
      99925    2    3    3    0    0  0.55750679864E+02  0.46720710830E+02 -0.40378140704E+03  0.48727776935E+03  0.26288635703E+03 0.  0.
         25    1    4    4    0    0  0.28509027852E+02  0.64235396522E+02 -0.21794700265E+03  0.26093553782E+03  0.12509000000E+03 0.  0.
         25    1    4    4    0    0  0.27241652012E+02 -0.17514685692E+02 -0.18583440439E+03  0.22634223153E+03  0.12509000000E+03 0.  0.
         25    1    3    3    0    0 -0.55750679864E+02 -0.46720710830E+02 -0.57079610570E+02  0.15555241293E+03  0.12509000000E+03 0.  0.
<mgrwt>
<rscale>  2 0.44814927E+03</rscale>
<asrwt>0</asrwt>
<pdfrwt beam="1">  1       21 0.13380086E-01 0.44814927E+03</pdfrwt>
<pdfrwt beam="2">  1       21 0.81153761E-01 0.44814927E+03</pdfrwt>
<totfact> 0.59255093E+04</totfact>
</mgrwt>
</event>
<event>
 7    0  0.4685107E-002  0.4490063E+03  0.7546771E-02  0.1028019E+00
         21   -1    0    0  502  501  0.00000000000E+00  0.00000000000E+00  0.11659568514E+04  0.11659568514E+04  0.00000000000E+00 0. -1.
         21   -1    0    0  501  502 -0.00000000000E+00 -0.00000000000E+00 -0.43227725510E+02  0.43227725510E+02  0.00000000000E+00 0. -1.
      99926    2    1    2    0    0  0.00000000000E+00  0.00000000000E+00  0.11227291259E+04  0.12091845769E+04  0.44900629274E+03 0.  0.
      99925    2    3    3    0    0 -0.56746223568E+02  0.88155771964E+02  0.77390588041E+03  0.82406545417E+03  0.26298666694E+03 0.  0.
         25    1    4    4    0    0 -0.20976929890E+02  0.40728798321E+02  0.49587481479E+03  0.51345711276E+03  0.12509000000E+03 0.  0.
         25    1    4    4    0    0 -0.35769293678E+02  0.47426973643E+02  0.27803106562E+03  0.31060834141E+03  0.12509000000E+03 0.  0.
         25    1    3    3    0    0  0.56746223568E+02 -0.88155771964E+02  0.34882324550E+03  0.38511912276E+03  0.12509000000E+03 0.  0.
<mgrwt>
<rscale>  2 0.44900629E+03</rscale>
<asrwt>0</asrwt>
<pdfrwt beam="1">  1       21 0.17146422E+00 0.44900629E+03</pdfrwt>
<pdfrwt beam="2">  1       21 0.63570192E-02 0.44900629E+03</pdfrwt>
<totfact> 0.33398417E+04</totfact>
</mgrwt>
</event>
<event>
 7    0  0.4685107E-002  0.4501277E+03  0.7546771E-02  0.1027684E+00
         21   -1    0    0  502  501  0.00000000000E+00  0.00000000000E+00  0.93719790478E+02  0.93719790478E+02  0.00000000000E+00 0.  1.
         21   -1    0    0  501  502 -0.00000000000E+00 -0.00000000000E+00 -0.54048062552E+03  0.54048062552E+03  0.00000000000E+00 0.  1.
      99926    2    1    2    0    0  0.00000000000E+00  0.00000000000E+00 -0.44676083505E+03  0.63420041600E+03  0.45012767514E+03 0.  0.
      99925    2    3    3    0    0 -0.55562559259E+02 -0.85190515819E+02 -0.33569389213E+03  0.43842504501E+03  0.26302378011E+03 0.  0.
         25    1    4    4    0    0 -0.57690374438E+02 -0.27072867689E+02 -0.20452069067E+03  0.24806720960E+03  0.12509000000E+03 0.  0.
         25    1    4    4    0    0  0.21278151790E+01 -0.58117648130E+02 -0.13117320146E+03  0.19035783541E+03  0.12509000000E+03 0.  0.
         25    1    3    3    0    0  0.55562559259E+02  0.85190515819E+02 -0.11106694292E+03  0.19577537099E+03  0.12509000000E+03 0.  0.
<mgrwt>
<rscale>  2 0.45012768E+03</rscale>
<asrwt>0</asrwt>
<pdfrwt beam="1">  1       21 0.13782322E-01 0.45012768E+03</pdfrwt>
<pdfrwt beam="2">  1       21 0.79482445E-01 0.45012768E+03</pdfrwt>
<totfact> 0.58851762E+04</totfact>
</mgrwt>
</event>
<event>
 7    0  0.4685107E-002  0.4611782E+03  0.7546771E-02  0.1024440E+00
         21   -1    0    0  502  501  0.00000000000E+00  0.00000000000E+00  0.26801082645E+03  0.26801082645E+03  0.00000000000E+00 0.  1.
         21   -1    0    0  501  502 -0.00000000000E+00 -0.00000000000E+00 -0.19839246751E+03  0.19839246751E+03  0.00000000000E+00 0.  1.
      99926    2    1    2    0    0  0.00000000000E+00  0.00000000000E+00  0.69618358940E+02  0.46640329396E+03  0.46117818326E+03 0.  0.
      99925    2    3    3    0    0 -0.96657893611E+02  0.67012747668E+02  0.26154192126E+02  0.28928723415E+03  0.26300115081E+03 0.  0.
         25    1    4    4    0    0 -0.29146865643E+02  0.66647326710E+02  0.26673177740E+02  0.14714065531E+03  0.12509000000E+03 0.  0.
         25    1    4    4    0    0 -0.67511027968E+02  0.36542095748E+00 -0.51898561390E+00  0.14214657884E+03  0.12509000000E+03 0.  0.
         25    1    3    3    0    0  0.96657893611E+02 -0.67012747668E+02  0.43464166814E+02  0.17711605981E+03  0.12509000000E+03 0.  0.
<mgrwt>
<rscale>  2 0.46117818E+03</rscale>
<asrwt>0</asrwt>
<pdfrwt beam="1">  1       21 0.39413357E-01 0.46117818E+03</pdfrwt>
<pdfrwt beam="2">  1       21 0.29175363E-01 0.46117818E+03</pdfrwt>
<totfact> 0.64480479E+04</totfact>
</mgrwt>
</event>
<event>
 7    0  0.4685107E-002  0.4514967E+03  0.7546771E-02  0.1027277E+00
         21   -1    0    0  502  501  0.00000000000E+00  0.00000000000E+00  0.10368423915E+03  0.10368423915E+03  0.00000000000E+00 0. -1.
         21   -1    0    0  501  502 -0.00000000000E+00 -0.00000000000E+00 -0.49151462061E+03  0.49151462061E+03  0.00000000000E+00 0. -1.
      99926    2    1    2    0    0 -0.35527136788E-14  0.00000000000E+00 -0.38783038146E+03  0.59519885976E+03  0.45149670860E+03 0.  0.
      99925    2    3    3    0    0 -0.24447944561E+02 -0.60099690985E+01 -0.38577643450E+03  0.46758401532E+03  0.26301622050E+03 0.  0.
         25    1    3    3    0    0  0.24447944561E+02  0.60099690985E+01 -0.20539469545E+01  0.12761484443E+03  0.12509000000E+03 0.  0.
         25    1    4    4    0    0 -0.44757735254E+02 -0.14179978687E+02 -0.23619181815E+03  0.27136398015E+03  0.12509000000E+03 0.  0.
         25    1    4    4    0    0  0.20309790693E+02  0.81700095889E+01 -0.14958461635E+03  0.19622003518E+03  0.12509000000E+03 0.  0.
<mgrwt>
<rscale>  2 0.45149671E+03</rscale>
<asrwt>0</asrwt>
<pdfrwt beam="1">  1       21 0.15247682E-01 0.45149671E+03</pdfrwt>
<pdfrwt beam="2">  1       21 0.72281562E-01 0.45149671E+03</pdfrwt>
<totfact> 0.60636049E+04</totfact>
</mgrwt>
</event>
<event>
 7    0  0.4685107E-002  0.4526720E+03  0.7546771E-02  0.1026928E+00
         21   -1    0    0  502  501  0.00000000000E+00  0.00000000000E+00  0.16828213202E+03  0.16828213202E+03  0.00000000000E+00 0. -1.
         21   -1    0    0  501  502 -0.00000000000E+00 -0.00000000000E+00 -0.30441729738E+03  0.30441729738E+03  0.00000000000E+00 0. -1.
      99926    2    1    2    0    0  0.14210854715E-13  0.00000000000E+00 -0.13613516537E+03  0.47269942940E+03  0.45267203062E+03 0.  0.
      99925    2    3    3    0    0 -0.90663577860E+02 -0.50182080231E+02 -0.44394804021E+02  0.28614668210E+03  0.26300361124E+03 0.  0.
         25    1    3    3    0    0  0.90663577860E+02  0.50182080231E+02 -0.91740361346E+02  0.18655274730E+03  0.12509000000E+03 0.  0.
         25    1    4    4    0    0 -0.35505652722E+02 -0.54011892402E+02 -0.49598293486E+02  0.14928306908E+03  0.12509000000E+03 0.  0.
         25    1    4    4    0    0 -0.55157925138E+02  0.38298121715E+01  0.52034894657E+01  0.13686361302E+03  0.12509000000E+03 0.  0.
<mgrwt>
<rscale>  2 0.45267203E+03</rscale>
<asrwt>0</asrwt>
<pdfrwt beam="1">  1       21 0.24747373E-01 0.45267203E+03</pdfrwt>
<pdfrwt beam="2">  1       21 0.44767249E-01 0.45267203E+03</pdfrwt>
<totfact> 0.68492076E+04</totfact>
</mgrwt>
</event>
<event>
 7    0  0.4685107E-002  0.4633512E+03  0.7546771E-02  0.1023814E+00
         21   -1    0    0  502  501  0.00000000000E+00  0.00000000000E+00  0.60244465784E+03  0.60244465784E+03  0.00000000000E+00 0.  1.
         21   -1    0    0  501  502 -0.00000000000E+00 -0.00000000000E+00 -0.89092978814E+02  0.89092978814E+02  0.00000000000E+00 0.  1.
      99926    2    1    2    0    0  0.14210854715E-13  0.00000000000E+00  0.51335167902E+03  0.69153763665E+03  0.46335122375E+03 0.  0.
      99925    2    3    3    0    0  0.11604436097E+03 -0.30419514863E+02  0.31239184139E+03  0.42616242108E+03  0.26388275044E+03 0.  0.
         25    1    3    3    0    0 -0.11604436097E+03  0.30419514863E+02  0.20095983763E+03  0.26537521557E+03  0.12509000000E+03 0.  0.
         25    1    4    4    0    0  0.70109000276E+02 -0.56364461956E+02  0.16937784730E+03  0.22897289741E+03  0.12509000000E+03 0.  0.
         25    1    4    4    0    0  0.45935360692E+02  0.25944947093E+02  0.14301399409E+03  0.19718952367E+03  0.12509000000E+03 0.  0.
<mgrwt>
<rscale>  2 0.46335122E+03</rscale>
<asrwt>0</asrwt>
<pdfrwt beam="1">  1       21 0.88594801E-01 0.46335122E+03</pdfrwt>
<pdfrwt beam="2">  1       21 0.13101909E-01 0.46335122E+03</pdfrwt>
<totfact> 0.49995282E+04</totfact>
</mgrwt>
</event>
<event>
 7    0  0.4685107E-002  0.4426611E+03  0.7546771E-02  0.1029933E+00
         21   -1    0    0  502  501  0.00000000000E+00  0.00000000000E+00  0.55573594983E+03  0.55573594983E+03  0.00000000000E+00 0.  1.
         21   -1    0    0  501  502 -0.00000000000E+00 -0.00000000000E+00 -0.88148358979E+02  0.88148358979E+02  0.00000000000E+00 0.  1.
      99926    2    1    2    0    0  0.00000000000E+00  0.00000000000E+00  0.46758759086E+03  0.64388430881E+03  0.44266109837E+03 0.  0.
      99925    2    3    3    0    0 -0.36010607417E+02  0.47855343875E+02  0.17916573937E+03  0.32385060700E+03  0.26304363840E+03 0.  0.
         25    1    3    3    0    0  0.36010607417E+02 -0.47855343875E+02  0.28842185148E+03  0.32003370182E+03  0.12509000000E+03 0.  0.
         25    1    4    4    0    0 -0.89762081059E+01  0.47745456289E+02  0.12975401298E+03  0.18666497500E+03  0.12509000000E+03 0.  0.
         25    1    4    4    0    0 -0.27034399311E+02  0.10988758524E+00  0.49411726393E+02  0.13718563200E+03  0.12509000000E+03 0.  0.
<mgrwt>
<rscale>  2 0.44266110E+03</rscale>
<asrwt>0</asrwt>
<pdfrwt beam="1">  1       21 0.81725874E-01 0.44266110E+03</pdfrwt>
<pdfrwt beam="2">  1       21 0.12962994E-01 0.44266110E+03</pdfrwt>
<totfact> 0.61861010E+04</totfact>
</mgrwt>
</event>
<event>
 7    0  0.4685107E-002  0.4548567E+03  0.7546771E-02  0.1026284E+00
         21   -1    0    0  502  501  0.00000000000E+00  0.00000000000E+00  0.25282834092E+03  0.25282834092E+03  0.00000000000E+00 0. -1.
         21   -1    0    0  501  502 -0.00000000000E+00 -0.00000000000E+00 -0.20458014680E+03  0.20458014680E+03  0.00000000000E+00 0. -1.
      99926    2    1    2    0    0  0.00000000000E+00  0.00000000000E+00  0.48248194117E+02  0.45740848771E+03  0.45485672073E+03 0.  0.
      99925    2    3    3    0    0 -0.44417861130E+02  0.45625363484E+02 -0.63541035950E+02  0.27796780047E+03  0.26300953341E+03 0.  0.
         25    1    4    4    0    0 -0.49329365296E+02  0.50418464866E+02 -0.18285903890E+02  0.14476632986E+03  0.12509000000E+03 0.  0.
         25    1    3    3    0    0  0.44417861130E+02 -0.45625363484E+02  0.11178923007E+03  0.17944068725E+03  0.12509000000E+03 0.  0.
         25    1    4    4    0    0  0.49115041652E+01 -0.47931013821E+01 -0.45255132060E+02  0.13320147061E+03  0.12509000000E+03 0.  0.
<mgrwt>
<rscale>  2 0.45485672E+03</rscale>
<asrwt>0</asrwt>
<pdfrwt beam="1">  1       21 0.37180638E-01 0.45485672E+03</pdfrwt>
<pdfrwt beam="2">  1       21 0.30085316E-01 0.45485672E+03</pdfrwt>
<totfact> 0.68447887E+04</totfact>
</mgrwt>
</event>
<event>
 7    0  0.4685107E-002  0.4580309E+03  0.7546771E-02  0.1025354E+00
         21   -1    0    0  502  501  0.00000000000E+00  0.00000000000E+00  0.23839899524E+03  0.23839899524E+03  0.00000000000E+00 0.  1.
         21   -1    0    0  501  502 -0.00000000000E+00 -0.00000000000E+00 -0.22000125858E+03  0.22000125858E+03  0.00000000000E+00 0.  1.
      99926    2    1    2    0    0  0.00000000000E+00 -0.14210854715E-13  0.18397736656E+02  0.45840025381E+03  0.45803091160E+03 0.  0.
      99925    2    3    3    0    0 -0.12359627848E+02 -0.76126328919E+02 -0.75174516138E+02  0.28418414392E+03  0.26298562969E+03 0.  0.
         25    1    4    4    0    0  0.23792779040E+01 -0.78725004726E+02 -0.34426628379E+02  0.15177611200E+03  0.12509000000E+03 0.  0.
         25    1    3    3    0    0  0.12359627848E+02  0.76126328919E+02  0.93572252795E+02  0.17421610990E+03  0.12509000000E+03 0.  0.
         25    1    4    4    0    0 -0.14738905752E+02  0.25986758067E+01 -0.40747887759E+02  0.13240803191E+03  0.12509000000E+03 0.  0.
<mgrwt>
<rscale>  2 0.45803091E+03</rscale>
<asrwt>0</asrwt>
<pdfrwt beam="1">  1       21 0.35058676E-01 0.45803091E+03</pdfrwt>
<pdfrwt beam="2">  1       21 0.32353126E-01 0.45803091E+03</pdfrwt>
<totfact> 0.66670466E+04</totfact>
</mgrwt>
</event>
<event>
 7    0  0.4685107E-002  0.4584830E+03  0.7546771E-02  0.1025222E+00
         21   -1    0    0  502  501  0.00000000000E+00  0.00000000000E+00  0.46818709059E+03  0.46818709059E+03  0.00000000000E+00 0. -1.
         21   -1    0    0  501  502 -0.00000000000E+00 -0.00000000000E+00 -0.11224502322E+03  0.11224502322E+03  0.00000000000E+00 0. -1.
      99926    2    1    2    0    0  0.00000000000E+00  0.14210854715E-13  0.35594206738E+03  0.58043211381E+03  0.45848302413E+03 0.  0.
      99925    2    3    3    0    0  0.82464475740E+02 -0.76690359044E+02  0.18526690471E+03  0.34072537594E+03  0.26284625715E+03 0.  0.
         25    1    4    4    0    0  0.57885449873E+01 -0.58113206119E+02  0.87890376562E+02  0.16365475358E+03  0.12509000000E+03 0.  0.
         25    1    3    3    0    0 -0.82464475740E+02  0.76690359044E+02  0.17067516267E+03  0.23970673787E+03  0.12509000000E+03 0.  0.
         25    1    4    4    0    0  0.76675930752E+02 -0.18577152925E+02  0.97376528147E+02  0.17707062236E+03  0.12509000000E+03 0.  0.
<mgrwt>
<rscale>  2 0.45848302E+03</rscale>
<asrwt>0</asrwt>
<pdfrwt beam="1">  1       21 0.68851042E-01 0.45848302E+03</pdfrwt>
<pdfrwt beam="2">  1       21 0.16506621E-01 0.45848302E+03</pdfrwt>
<totfact> 0.58277803E+04</totfact>
</mgrwt>
</event>
<event>
 7    0  0.4685107E-002  0.4609683E+03  0.7546771E-02  0.1024501E+00
         21   -1    0    0  502  501  0.00000000000E+00  0.00000000000E+00  0.45443014495E+02  0.45443014495E+02  0.00000000000E+00 0.  1.
         21   -1    0    0  501  502 -0.00000000000E+00 -0.00000000000E+00 -0.11690012295E+04  0.11690012295E+04  0.00000000000E+00 0.  1.
      99926    2    1    2    0    0  0.00000000000E+00  0.00000000000E+00 -0.11235582150E+04  0.12144442440E+04  0.46096828446E+03 0.  0.
      99925    2    3    3    0    0  0.40691015718E+02 -0.10884867298E+03 -0.77235724108E+03  0.82394017929E+03  0.26236981310E+03 0.  0.
         25    1    4    4    0    0  0.32309215873E+02 -0.81133573629E+02 -0.50149941084E+03  0.52419052774E+03  0.12509000000E+03 0.  0.
         25    1    4    4    0    0  0.83817998448E+01 -0.27715099352E+02 -0.27085783024E+03  0.29974965155E+03  0.12509000000E+03 0.  0.
         25    1    3    3    0    0 -0.40691015718E+02  0.10884867298E+03 -0.35120097395E+03  0.39050406474E+03  0.12509000000E+03 0.  0.
<mgrwt>
<rscale>  2 0.46096828E+03</rscale>
<asrwt>0</asrwt>
<pdfrwt beam="1">  1       21 0.66827954E-02 0.46096828E+03</pdfrwt>
<pdfrwt beam="2">  1       21 0.17191197E+00 0.46096828E+03</pdfrwt>
<totfact> 0.30269667E+04</totfact>
</mgrwt>
</event>
<event>
 7    0  0.4685107E-002  0.4630279E+03  0.7546771E-02  0.1023907E+00
         21   -1    0    0  502  501  0.00000000000E+00  0.00000000000E+00  0.17919911739E+03  0.17919911739E+03  0.00000000000E+00 0. -1.
         21   -1    0    0  501  502 -0.00000000000E+00 -0.00000000000E+00 -0.29910140556E+03  0.29910140556E+03  0.00000000000E+00 0. -1.
      99926    2    1    2    0    0  0.00000000000E+00  0.12212453271E-14 -0.11990228816E+03  0.47830052295E+03  0.46302789500E+03 0.  0.
      99925    2    3    3    0    0  0.35220898135E+02  0.42796627546E+00  0.43587937495E+02  0.26945307431E+03  0.26356091542E+03 0.  0.
         25    1    3    3    0    0 -0.35220898135E+02 -0.42796627546E+00 -0.16349022566E+03  0.20884744865E+03  0.12509000000E+03 0.  0.
         25    1    4    4    0    0 -0.61706960709E+01  0.33165106279E+02  0.12402740980E+02  0.13015121147E+03  0.12509000000E+03 0.  0.
         25    1    4    4    0    0  0.41391594206E+02 -0.32737140004E+02  0.31185196515E+02  0.13930186283E+03  0.12509000000E+03 0.  0.
<mgrwt>
<rscale>  2 0.46302790E+03</rscale>
<asrwt>0</asrwt>
<pdfrwt beam="1">  1       21 0.26352811E-01 0.46302790E+03</pdfrwt>
<pdfrwt beam="2">  1       21 0.43985501E-01 0.46302790E+03</pdfrwt>
<totfact> 0.62731639E+04</totfact>
</mgrwt>
</event>
<event>
 7    0  0.4685107E-002  0.4548628E+03  0.7546771E-02  0.1026282E+00
         21   -1    0    0  502  501  0.00000000000E+00  0.00000000000E+00  0.28057464917E+03  0.28057464917E+03  0.00000000000E+00 0.  1.
         21   -1    0    0  501  502 -0.00000000000E+00 -0.00000000000E+00 -0.18435396944E+03  0.18435396944E+03  0.00000000000E+00 0.  1.
      99926    2    1    2    0    0  0.71054273576E-14  0.00000000000E+00  0.96220679733E+02  0.46492861862E+03  0.45486283779E+03 0.  0.
      99925    2    3    3    0    0 -0.39891987205E+02  0.39927058944E+02 -0.39436797060E+02  0.27196230086E+03  0.26310205519E+03 0.  0.
         25    1    4    4    0    0 -0.60898130257E+02  0.25251462438E+02 -0.21082045711E+02  0.14296216064E+03  0.12509000000E+03 0.  0.
         25    1    4    4    0    0  0.21006143051E+02  0.14675596506E+02 -0.18354751349E+02  0.12900014022E+03  0.12509000000E+03 0.  0.
         25    1    3    3    0    0  0.39891987205E+02 -0.39927058944E+02  0.13565747679E+03  0.19296631776E+03  0.12509000000E+03 0.  0.
<mgrwt>
<rscale>  2 0.45486284E+03</rscale>
<asrwt>0</asrwt>
<pdfrwt beam="1">  1       21 0.41260978E-01 0.45486284E+03</pdfrwt>
<pdfrwt beam="2">  1       21 0.27110878E-01 0.45486284E+03</pdfrwt>
<totfact> 0.67889278E+04</totfact>
</mgrwt>
</event>
<event>
 7    0  0.4685107E-002  0.4684811E+03  0.7546771E-02  0.1022350E+00
         21   -1    0    0  502  501  0.00000000000E+00  0.00000000000E+00  0.71778051800E+03  0.71778051800E+03  0.00000000000E+00 0. -1.
         21   -1    0    0  501  502 -0.00000000000E+00 -0.00000000000E+00 -0.76442090107E+02  0.76442090107E+02  0.00000000000E+00 0. -1.
      99926    2    1    2    0    0  0.14210854715E-13 -0.71054273576E-14  0.64133842789E+03  0.79422260811E+03  0.46848113317E+03 0.  0.
      99925    2    3    3    0    0 -0.69195421763E+02  0.33755078774E+02  0.56666304971E+03  0.62944599586E+03  0.26299779099E+03 0.  0.
         25    1    4    4    0    0 -0.50734528749E+02 -0.92658437980E+01  0.34592662380E+03  0.37144661181E+03  0.12509000000E+03 0.  0.
         25    1    3    3    0    0  0.69195421763E+02 -0.33755078774E+02  0.74675378184E+02  0.16477661225E+03  0.12509000000E+03 0.  0.
         25    1    4    4    0    0 -0.18460893014E+02  0.43020922572E+02  0.22073642591E+03  0.25799938406E+03  0.12509000000E+03 0.  0.
<mgrwt>
<rscale>  2 0.46848113E+03</rscale>
<asrwt>0</asrwt>
<pdfrwt beam="1">  1       21 0.10555596E+00 0.46848113E+03</pdfrwt>
<pdfrwt beam="2">  1       21 0.11241484E-01 0.46848113E+03</pdfrwt>
<totfact> 0.43281393E+04</totfact>
</mgrwt>
</event>
<event>
 7    0  0.4685107E-002  0.4529899E+03  0.7546771E-02  0.1026834E+00
         21   -1    0    0  502  501  0.00000000000E+00  0.00000000000E+00  0.13409921541E+03  0.13409921541E+03  0.00000000000E+00 0.  1.
         21   -1    0    0  501  502 -0.00000000000E+00 -0.00000000000E+00 -0.38255236697E+03  0.38255236697E+03  0.00000000000E+00 0.  1.
      99926    2    1    2    0    0  0.00000000000E+00 -0.88817841970E-15 -0.24845315156E+03  0.51665158239E+03  0.45298994367E+03 0.  0.
      99925    2    3    3    0    0  0.10760258502E+03 -0.48477206183E+01 -0.12452659136E+03  0.31023666742E+03  0.26294125039E+03 0.  0.
         25    1    4    4    0    0  0.25052266190E+02  0.26283815784E+02 -0.69026970863E+02  0.14741331629E+03  0.12509000000E+03 0.  0.
         25    1    4    4    0    0  0.82550318829E+02 -0.31131536402E+02 -0.55499620497E+02  0.16282335113E+03  0.12509000000E+03 0.  0.
         25    1    3    3    0    0 -0.10760258502E+03  0.48477206183E+01 -0.12392656020E+03  0.20641491497E+03  0.12509000000E+03 0.  0.
<mgrwt>
<rscale>  2 0.45298994E+03</rscale>
<asrwt>0</asrwt>
<pdfrwt beam="1">  1       21 0.19720473E-01 0.45298994E+03</pdfrwt>
<pdfrwt beam="2">  1       21 0.56257701E-01 0.45298994E+03</pdfrwt>
<totfact> 0.65148819E+04</totfact>
</mgrwt>
</event>
<event>
 7    0  0.4685107E-002  0.4293606E+03  0.7546771E-02  0.1034062E+00
         21   -1    0    0  502  501  0.00000000000E+00  0.00000000000E+00  0.42795581936E+03  0.42795581936E+03  0.00000000000E+00 0.  1.
         21   -1    0    0  501  502 -0.00000000000E+00 -0.00000000000E+00 -0.10769249744E+03  0.10769249744E+03  0.00000000000E+00 0.  1.
      99926    2    1    2    0    0  0.00000000000E+00  0.00000000000E+00  0.32026332192E+03  0.53564831681E+03  0.42936059895E+03 0.  0.
      99925    2    3    3    0    0 -0.71789095305E+02  0.16879918900E+02  0.26212309625E+03  0.37923092708E+03  0.26394880678E+03 0.  0.
         25    1    4    4    0    0 -0.27728951826E+02 -0.33058243143E+02  0.12896773527E+03  0.18477534210E+03  0.12509000000E+03 0.  0.
         25    1    3    3    0    0  0.71789095305E+02 -0.16879918900E+02  0.58140225669E+02  0.15641738972E+03  0.12509000000E+03 0.  0.
         25    1    4    4    0    0 -0.44060143479E+02  0.49938162044E+02  0.13315536099E+03  0.19445558498E+03  0.12509000000E+03 0.  0.
<mgrwt>
<rscale>  2 0.42936060E+03</rscale>
<asrwt>0</asrwt>
<pdfrwt beam="1">  1       21 0.62934679E-01 0.42936060E+03</pdfrwt>
<pdfrwt beam="2">  1       21 0.15837132E-01 0.42936060E+03</pdfrwt>
<totfact> 0.77370388E+04</totfact>
</mgrwt>
</event>
<event>
 7    0  0.4685107E-002  0.4548625E+03  0.7546771E-02  0.1026282E+00
         21   -1    0    0  502  501  0.00000000000E+00  0.00000000000E+00  0.14768475906E+03  0.14768475906E+03  0.00000000000E+00 0. -1.
         21   -1    0    0  501  502 -0.00000000000E+00 -0.00000000000E+00 -0.35023913654E+03  0.35023913654E+03  0.00000000000E+00 0. -1.
      99926    2    1    2    0    0 -0.14210854715E-13  0.35527136788E-14 -0.20255437749E+03  0.49792389560E+03  0.45486253965E+03 0.  0.
      99925    2    3    3    0    0 -0.68820630634E+02 -0.23568071794E+02 -0.22209886508E+03  0.35190599155E+03  0.26309349633E+03 0.  0.
         25    1    3    3    0    0  0.68820630634E+02  0.23568071794E+02  0.19544487591E+02  0.14601790405E+03  0.12509000000E+03 0.  0.
         25    1    4    4    0    0  0.39812384400E+01 -0.26632218681E+02 -0.96791432245E+02  0.16044068931E+03  0.12509000000E+03 0.  0.
         25    1    4    4    0    0 -0.72801869074E+02  0.30641468869E+01 -0.12530743283E+03  0.19146530224E+03  0.12509000000E+03 0.  0.
<mgrwt>
<rscale>  2 0.45486254E+03</rscale>
<asrwt>0</asrwt>
<pdfrwt beam="1">  1       21 0.21718347E-01 0.45486254E+03</pdfrwt>
<pdfrwt beam="2">  1       21 0.51505755E-01 0.45486254E+03</pdfrwt>
<totfact> 0.65488190E+04</totfact>
</mgrwt>
</event>
<event>
 7    0  0.4685107E-002  0.4549887E+03  0.7546771E-02  0.1026245E+00
         21   -1    0    0  502  501  0.00000000000E+00  0.00000000000E+00  0.92785396440E+02  0.92785396440E+02  0.00000000000E+00 0.  1.
         21   -1    0    0  501  502 -0.00000000000E+00 -0.00000000000E+00 -0.55777826134E+03  0.55777826134E+03  0.00000000000E+00 0.  1.
      99926    2    1    2    0    0  0.00000000000E+00  0.00000000000E+00 -0.46499286490E+03  0.65056365778E+03  0.45498869043E+03 0.  0.
      99925    2    3    3    0    0 -0.93797809446E+02 -0.42049786182E+02 -0.22506554318E+03  0.36111790918E+03  0.26303123774E+03 0.  0.
         25    1    4    4    0    0 -0.89223748025E+02 -0.22410445115E+02 -0.11407838665E+03  0.19267716954E+03  0.12509000000E+03 0.  0.
         25    1    4    4    0    0 -0.45740614216E+01 -0.19639341067E+02 -0.11098715653E+03  0.16844073964E+03  0.12509000000E+03 0.  0.
         25    1    3    3    0    0  0.93797809446E+02  0.42049786182E+02 -0.23992732172E+03  0.28944574860E+03  0.12509000000E+03 0.  0.
<mgrwt>
<rscale>  2 0.45498869E+03</rscale>
<asrwt>0</asrwt>
<pdfrwt beam="1">  1       21 0.13644911E-01 0.45498869E+03</pdfrwt>
<pdfrwt beam="2">  1       21 0.82026218E-01 0.45498869E+03</pdfrwt>
<totfact> 0.55673996E+04</totfact>
</mgrwt>
</event>
<event>
 7    0  0.4685107E-002  0.4505707E+03  0.7546771E-02  0.1027552E+00
         21   -1    0    0  502  501  0.00000000000E+00  0.00000000000E+00  0.30102718134E+03  0.30102718134E+03  0.00000000000E+00 0.  1.
         21   -1    0    0  501  502 -0.00000000000E+00 -0.00000000000E+00 -0.16860099608E+03  0.16860099608E+03  0.00000000000E+00 0.  1.
      99926    2    1    2    0    0  0.00000000000E+00  0.14210854715E-13  0.13242618526E+03  0.46962817742E+03  0.45057067202E+03 0.  0.
      99925    2    3    3    0    0  0.28581834271E+02 -0.10172711420E+03  0.56108298329E+02  0.28897033790E+03  0.26304065851E+03 0.  0.
         25    1    4    4    0    0  0.21270824655E+02 -0.79390904068E+02  0.60925049313E+02  0.16160053640E+03  0.12509000000E+03 0.  0.
         25    1    3    3    0    0 -0.28581834271E+02  0.10172711420E+03  0.76317886935E+02  0.18065783952E+03  0.12509000000E+03 0.  0.
         25    1    4    4    0    0  0.73110096165E+01 -0.22336210136E+02 -0.48167509838E+01  0.12736980150E+03  0.12509000000E+03 0.  0.
<mgrwt>
<rscale>  2 0.45057067E+03</rscale>
<asrwt>0</asrwt>
<pdfrwt beam="1">  1       21 0.44268703E-01 0.45057067E+03</pdfrwt>
<pdfrwt beam="2">  1       21 0.24794264E-01 0.45057067E+03</pdfrwt>
<totfact> 0.69887336E+04</totfact>
</mgrwt>
</event>
<event>
 7    0  0.4685107E-002  0.4601824E+03  0.7546771E-02  0.1024728E+00
         21   -1    0    0  502  501  0.00000000000E+00  0.00000000000E+00  0.55396682077E+02  0.55396682077E+02  0.00000000000E+00 0.  1.
         21   -1    0    0  501  502 -0.00000000000E+00 -0.00000000000E+00 -0.95568820181E+03  0.95568820181E+03  0.00000000000E+00 0.  1.
      99926    2    1    2    0    0  0.00000000000E+00 -0.14210854715E-13 -0.90029151973E+03  0.10110848839E+04  0.46018237898E+03 0.  0.
      99925    2    3    3    0    0 -0.52721068830E+02  0.10542764334E+03 -0.57311628929E+03  0.64150994075E+03  0.26301753545E+03 0.  0.
         25    1    4    4    0    0 -0.63168244170E+02  0.36766725578E+02 -0.27449361188E+03  0.31038084709E+03  0.12509000000E+03 0.  0.
         25    1    3    3    0    0  0.52721068830E+02 -0.10542764334E+03 -0.32717523044E+03  0.36957494314E+03  0.12509000000E+03 0.  0.
         25    1    4    4    0    0  0.10447175340E+02  0.68660917763E+02 -0.29862267741E+03  0.33112909365E+03  0.12509000000E+03 0.  0.
<mgrwt>
<rscale>  2 0.46018238E+03</rscale>
<asrwt>0</asrwt>
<pdfrwt beam="1">  1       21 0.81465718E-02 0.46018238E+03</pdfrwt>
<pdfrwt beam="2">  1       21 0.14054237E+00 0.46018238E+03</pdfrwt>
<totfact> 0.37209630E+04</totfact>
</mgrwt>
</event>
<event>
 7    0  0.4685107E-002  0.4560162E+03  0.7546771E-02  0.1025943E+00
         21   -1    0    0  502  501  0.00000000000E+00  0.00000000000E+00  0.38601200710E+02  0.38601200710E+02  0.00000000000E+00 0.  1.
         21   -1    0    0  501  502 -0.00000000000E+00 -0.00000000000E+00 -0.13467897476E+04  0.13467897476E+04  0.00000000000E+00 0.  1.
      99926    2    1    2    0    0 -0.71054273576E-14  0.17763568394E-14 -0.13081885469E+04  0.13853909483E+04  0.45601623375E+03 0.  0.
      99925    2    3    3    0    0 -0.50667216749E+02 -0.14447908166E+02 -0.11292145616E+04  0.11607688114E+04  0.26359589971E+03 0.  0.
         25    1    4    4    0    0  0.64148764642E+01 -0.33617408163E+02 -0.51830412347E+03  0.53428265298E+03  0.12509000000E+03 0.  0.
         25    1    4    4    0    0 -0.57082093213E+02  0.19169499997E+02 -0.61091043817E+03  0.62648615840E+03  0.12509000000E+03 0.  0.
         25    1    3    3    0    0  0.50667216749E+02  0.14447908166E+02 -0.17897398525E+03  0.22462213693E+03  0.12509000000E+03 0.  0.
<mgrwt>
<rscale>  2 0.45601623E+03</rscale>
<asrwt>0</asrwt>
<pdfrwt beam="1">  1       21 0.56766483E-02 0.45601623E+03</pdfrwt>
<pdfrwt beam="2">  1       21 0.19805727E+00 0.45601623E+03</pdfrwt>
<totfact> 0.26513905E+04</totfact>
</mgrwt>
</event>
<event>
 7    0  0.4685107E-002  0.4310471E+03  0.7546771E-02  0.1033530E+00
         21   -1    0    0  502  501  0.00000000000E+00  0.00000000000E+00  0.49667680070E+02  0.49667680070E+02  0.00000000000E+00 0. -1.
         21   -1    0    0  501  502 -0.00000000000E+00 -0.00000000000E+00 -0.93522405640E+03  0.93522405640E+03  0.00000000000E+00 0. -1.
      99926    2    1    2    0    0  0.00000000000E+00 -0.17763568394E-14 -0.88555637633E+03  0.98489173647E+03  0.43104714001E+03 0.  0.
      99925    2    3    3    0    0 -0.63233388039E+02 -0.15067727330E+02 -0.70883144266E+03  0.75882823201E+03  0.26296914993E+03 0.  0.
         25    1    3    3    0    0  0.63233388039E+02  0.15067727330E+02 -0.17672493367E+03  0.22606350447E+03  0.12509000000E+03 0.  0.
         25    1    4    4    0    0  0.64729591222E+00 -0.28461685239E+02 -0.37759652118E+03  0.39879459302E+03  0.12509000000E+03 0.  0.
         25    1    4    4    0    0 -0.63880683951E+02  0.13393957909E+02 -0.33123492148E+03  0.36003363898E+03  0.12509000000E+03 0.  0.
<mgrwt>
<rscale>  2 0.43104714E+03</rscale>
<asrwt>0</asrwt>
<pdfrwt beam="1">  1       21 0.73040704E-02 0.43104714E+03</pdfrwt>
<pdfrwt beam="2">  1       21 0.13753295E+00 0.43104714E+03</pdfrwt>
<totfact> 0.48158638E+04</totfact>
</mgrwt>
</event>
<event>
 7    0  0.4685107E-002  0.4342146E+03  0.7546771E-02  0.1032537E+00
         21   -1    0    0  502  501  0.00000000000E+00  0.00000000000E+00  0.72618915412E+03  0.72618915412E+03  0.00000000000E+00 0. -1.
         21   -1    0    0  501  502 -0.00000000000E+00 -0.00000000000E+00 -0.64908128054E+02  0.64908128054E+02  0.00000000000E+00 0. -1.
      99926    2    1    2    0    0  0.71054273576E-14  0.00000000000E+00  0.66128102607E+03  0.79109728217E+03  0.43421459490E+03 0.  0.
      99925    2    3    3    0    0 -0.47690979523E+02  0.70610942385E+02  0.48935056755E+03  0.56203850068E+03  0.26298852366E+03 0.  0.
         25    1    4    4    0    0  0.16874952584E+02  0.30892811525E+02  0.21873355597E+03  0.25442288898E+03  0.12509000000E+03 0.  0.
         25    1    4    4    0    0 -0.64565932107E+02  0.39718130860E+02  0.27061701158E+03  0.30761561170E+03  0.12509000000E+03 0.  0.
         25    1    3    3    0    0  0.47690979523E+02 -0.70610942385E+02  0.17193045852E+03  0.22905878149E+03  0.12509000000E+03 0.  0.
<mgrwt>
<rscale>  2 0.43421459E+03</rscale>
<asrwt>0</asrwt>
<pdfrwt beam="1">  1       21 0.10679252E+00 0.43421459E+03</pdfrwt>
<pdfrwt beam="2">  1       21 0.95453133E-02 0.43421459E+03</pdfrwt>
<totfact> 0.56933604E+04</totfact>
</mgrwt>
</event>
<event>
 7    0  0.4685107E-002  0.4550848E+03  0.7546771E-02  0.1026216E+00
         21   -1    0    0  502  501  0.00000000000E+00  0.00000000000E+00  0.18211235730E+03  0.18211235730E+03  0.00000000000E+00 0.  1.
         21   -1    0    0  501  502 -0.00000000000E+00 -0.00000000000E+00 -0.28430546132E+03  0.28430546132E+03  0.00000000000E+00 0.  1.
      99926    2    1    2    0    0  0.00000000000E+00  0.14210854715E-13 -0.10219310403E+03  0.46641781862E+03  0.45508477344E+03 0.  0.
      99925    2    3    3    0    0 -0.18241474454E+02  0.11076814791E+03 -0.49094106537E+02  0.29015283170E+03  0.26301349863E+03 0.  0.
         25    1    4    4    0    0  0.19360935105E+02  0.81366745669E+02 -0.10634582151E+02  0.15085090502E+03  0.12509000000E+03 0.  0.
         25    1    3    3    0    0  0.18241474454E+02 -0.11076814791E+03 -0.53098997488E+02  0.17626498693E+03  0.12509000000E+03 0.  0.
         25    1    4    4    0    0 -0.37602409559E+02  0.29401402244E+02 -0.38459524386E+02  0.13930192667E+03  0.12509000000E+03 0.  0.
<mgrwt>
<rscale>  2 0.45508477E+03</rscale>
<asrwt>0</asrwt>
<pdfrwt beam="1">  1       21 0.26781229E-01 0.45508477E+03</pdfrwt>
<pdfrwt beam="2">  1       21 0.41809626E-01 0.45508477E+03</pdfrwt>
<totfact> 0.67657935E+04</totfact>
</mgrwt>
</event>
<event>
 7    0  0.4685107E-002  0.4566532E+03  0.7546771E-02  0.1025756E+00
         21   -1    0    0  502  501  0.00000000000E+00  0.00000000000E+00  0.15016214953E+03  0.15016214953E+03  0.00000000000E+00 0. -1.
         21   -1    0    0  501  502 -0.00000000000E+00 -0.00000000000E+00 -0.34717822423E+03  0.34717822423E+03  0.00000000000E+00 0. -1.
      99926    2    1    2    0    0 -0.35527136788E-14  0.00000000000E+00 -0.19701607469E+03  0.49734037376E+03  0.45665316564E+03 0.  0.
      99925    2    3    3    0    0 -0.31387113996E+02  0.93430622088E+02 -0.18769732844E+03  0.33781363870E+03  0.26300824192E+03 0.  0.
         25    1    3    3    0    0  0.31387113996E+02 -0.93430622088E+02 -0.93187462491E+01  0.15952673506E+03  0.12509000000E+03 0.  0.
         25    1    4    4    0    0 -0.42174846376E+02  0.22398344986E+02 -0.66988267165E+02  0.14971753258E+03  0.12509000000E+03 0.  0.
         25    1    4    4    0    0  0.10787732381E+02  0.71032277102E+02 -0.12070906128E+03  0.18809610611E+03  0.12509000000E+03 0.  0.
<mgrwt>
<rscale>  2 0.45665317E+03</rscale>
<asrwt>0</asrwt>
<pdfrwt beam="1">  1       21 0.22082669E-01 0.45665317E+03</pdfrwt>
<pdfrwt beam="2">  1       21 0.51055621E-01 0.45665317E+03</pdfrwt>
<totfact> 0.64605882E+04</totfact>
</mgrwt>
</event>
<event>
 7    0  0.4685107E-002  0.4466906E+03  0.7546771E-02  0.1028714E+00
         21   -1    0    0  502  501  0.00000000000E+00  0.00000000000E+00  0.22051131870E+03  0.22051131870E+03  0.00000000000E+00 0.  1.
         21   -1    0    0  501  502 -0.00000000000E+00 -0.00000000000E+00 -0.22621571759E+03  0.22621571759E+03  0.00000000000E+00 0.  1.
      99926    2    1    2    0    0 -0.71054273576E-14  0.71054273576E-14 -0.57043988880E+01  0.44672703629E+03  0.44669061417E+03 0.  0.
      99925    2    3    3    0    0 -0.58466289349E+02  0.63295387932E+02  0.55709163034E+02  0.28288642225E+03  0.26362208542E+03 0.  0.
         25    1    4    4    0    0 -0.29160862491E+00  0.14844832863E+02 -0.12312757454E+01  0.12597411733E+03  0.12509000000E+03 0.  0.
         25    1    3    3    0    0  0.58466289349E+02 -0.63295387932E+02 -0.61413561922E+02  0.16384061405E+03  0.12509000000E+03 0.  0.
         25    1    4    4    0    0 -0.58174680724E+02  0.48450555069E+02  0.56940438779E+02  0.15691230491E+03  0.12509000000E+03 0.  0.
<mgrwt>
<rscale>  2 0.44669061E+03</rscale>
<asrwt>0</asrwt>
<pdfrwt beam="1">  1       21 0.32428135E-01 0.44669061E+03</pdfrwt>
<pdfrwt beam="2">  1       21 0.33267017E-01 0.44669061E+03</pdfrwt>
<totfact> 0.73938011E+04</totfact>
</mgrwt>
</event>
<event>
 7    0  0.4685107E-002  0.4534208E+03  0.7546771E-02  0.1026707E+00
         21   -1    0    0  502  501  0.00000000000E+00  0.00000000000E+00  0.51733945862E+03  0.51733945862E+03  0.00000000000E+00 0. -1.
         21   -1    0    0  501  502 -0.00000000000E+00 -0.00000000000E+00 -0.99349855122E+02  0.99349855122E+02  0.00000000000E+00 0. -1.
      99926    2    1    2    0    0  0.14210854715E-13  0.00000000000E+00  0.41798960350E+03  0.61668931374E+03  0.45342077704E+03 0.  0.
      99925    2    3    3    0    0 -0.10483012905E+03  0.39448342220E+02  0.26215767829E+03  0.38761154382E+03  0.26262241518E+03 0.  0.
         25    1    4    4    0    0 -0.93175918987E+02  0.13896879912E+02  0.15767473780E+03  0.22222445003E+03  0.12509000000E+03 0.  0.
         25    1    4    4    0    0 -0.11654210060E+02  0.25551462308E+02  0.10448294049E+03  0.16538709379E+03  0.12509000000E+03 0.  0.
         25    1    3    3    0    0  0.10483012905E+03 -0.39448342220E+02  0.15583192521E+03  0.22907776993E+03  0.12509000000E+03 0.  0.
<mgrwt>
<rscale>  2 0.45342078E+03</rscale>
<asrwt>0</asrwt>
<pdfrwt beam="1">  1       21 0.76079331E-01 0.45342078E+03</pdfrwt>
<pdfrwt beam="2">  1       21 0.14610273E-01 0.45342078E+03</pdfrwt>
<totfact> 0.58387361E+04</totfact>
</mgrwt>
</event>
<event>
 7    0  0.4685107E-002  0.4572081E+03  0.7546771E-02  0.1025594E+00
         21   -1    0    0  502  501  0.00000000000E+00  0.00000000000E+00  0.28797358532E+03  0.28797358532E+03  0.00000000000E+00 0. -1.
         21   -1    0    0  501  502 -0.00000000000E+00 -0.00000000000E+00 -0.18147431440E+03  0.18147431440E+03  0.00000000000E+00 0. -1.
      99926    2    1    2    0    0 -0.35527136788E-14 -0.14210854715E-13  0.10649927092E+03  0.46944789971E+03  0.45720808812E+03 0.  0.
      99925    2    3    3    0    0 -0.28014613374E+02 -0.82319818595E+02 -0.10657582811E+02  0.27726411379E+03  0.26305975296E+03 0.  0.
         25    1    3    3    0    0  0.28014613374E+02  0.82319818595E+02  0.11715685373E+03  0.19218378592E+03  0.12509000000E+03 0.  0.
         25    1    4    4    0    0  0.13850648092E+02 -0.17784860867E+02 -0.25594703519E+02  0.12965623270E+03  0.12509000000E+03 0.  0.
         25    1    4    4    0    0 -0.41865261466E+02 -0.64534957728E+02  0.14937120708E+02  0.14760788110E+03  0.12509000000E+03 0.  0.
<mgrwt>
<rscale>  2 0.45720809E+03</rscale>
<asrwt>0</asrwt>
<pdfrwt beam="1">  1       21 0.42349057E-01 0.45720809E+03</pdfrwt>
<pdfrwt beam="2">  1       21 0.26687399E-01 0.45720809E+03</pdfrwt>
<totfact> 0.66307935E+04</totfact>
</mgrwt>
</event>
<event>
 7    0  0.4685107E-002  0.4637926E+03  0.7546771E-02  0.1023687E+00
         21   -1    0    0  502  501  0.00000000000E+00  0.00000000000E+00  0.42563143490E+03  0.42563143490E+03  0.00000000000E+00 0. -1.
         21   -1    0    0  501  502 -0.00000000000E+00 -0.00000000000E+00 -0.12634377784E+03  0.12634377784E+03  0.00000000000E+00 0. -1.
      99926    2    1    2    0    0  0.00000000000E+00  0.00000000000E+00  0.29928765706E+03  0.55197521275E+03  0.46379255473E+03 0.  0.
      99925    2    3    3    0    0  0.11355097497E+03 -0.34749879458E+02  0.21599700718E+03  0.36043874495E+03  0.26298289623E+03 0.  0.
         25    1    4    4    0    0  0.14207614234E+02 -0.54787361788E+01  0.99918084349E+02  0.16081978899E+03  0.12509000000E+03 0.  0.
         25    1    4    4    0    0  0.99343360736E+02 -0.29271143279E+02  0.11607892283E+03  0.19961895595E+03  0.12509000000E+03 0.  0.
         25    1    3    3    0    0 -0.11355097497E+03  0.34749879458E+02  0.83290649884E+02  0.19153646780E+03  0.12509000000E+03 0.  0.
<mgrwt>
<rscale>  2 0.46379255E+03</rscale>
<asrwt>0</asrwt>
<pdfrwt beam="1">  1       21 0.62592858E-01 0.46379255E+03</pdfrwt>
<pdfrwt beam="2">  1       21 0.18579967E-01 0.46379255E+03</pdfrwt>
<totfact> 0.57621918E+04</totfact>
</mgrwt>
</event>
<event>
 7    0  0.4685107E-002  0.4641747E+03  0.7546771E-02  0.1023577E+00
         21   -1    0    0  502  501  0.00000000000E+00  0.00000000000E+00  0.11990519934E+03  0.11990519934E+03  0.00000000000E+00 0.  1.
         21   -1    0    0  501  502 -0.00000000000E+00 -0.00000000000E+00 -0.44922611959E+03  0.44922611959E+03  0.00000000000E+00 0.  1.
      99926    2    1    2    0    0  0.00000000000E+00  0.00000000000E+00 -0.32932092025E+03  0.56913131892E+03  0.46417474044E+03 0.  0.
      99925    2    3    3    0    0 -0.68299339073E+02 -0.64503176005E+02 -0.30094122982E+03  0.41013957586E+03  0.26234212100E+03 0.  0.
         25    1    4    4    0    0 -0.26078144196E+02 -0.39476299582E+02 -0.94266233851E+02  0.16362175521E+03  0.12509000000E+03 0.  0.
         25    1    3    3    0    0  0.68299339073E+02  0.64503176005E+02 -0.28379690430E+02  0.15899174306E+03  0.12509000000E+03 0.  0.
         25    1    4    4    0    0 -0.42221194877E+02 -0.25026876423E+02 -0.20667499597E+03  0.24651782065E+03  0.12509000000E+03 0.  0.
<mgrwt>
<rscale>  2 0.46417474E+03</rscale>
<asrwt>0</asrwt>
<pdfrwt beam="1">  1       21 0.17633117E-01 0.46417474E+03</pdfrwt>
<pdfrwt beam="2">  1       21 0.66062666E-01 0.46417474E+03</pdfrwt>
<totfact> 0.56413784E+04</totfact>
</mgrwt>
</event>
<event>
 7    0  0.4685107E-002  0.4747790E+03  0.7546771E-02  0.1020580E+00
         21   -1    0    0  502  501  0.00000000000E+00  0.00000000000E+00  0.58231385971E+03  0.58231385971E+03  0.00000000000E+00 0.  1.
         21   -1    0    0  501  502 -0.00000000000E+00 -0.00000000000E+00 -0.96775621242E+02  0.96775621242E+02  0.00000000000E+00 0.  1.
      99926    2    1    2    0    0  0.71054273576E-14  0.00000000000E+00  0.48553823847E+03  0.67908948095E+03  0.47477904558E+03 0.  0.
      99925    2    3    3    0    0 -0.46748613738E+02  0.11615399369E+03  0.35470703212E+03  0.45899519254E+03  0.26302533149E+03 0.  0.
         25    1    3    3    0    0  0.46748613738E+02 -0.11615399369E+03  0.13083120635E+03  0.22009428841E+03  0.12509000000E+03 0.  0.
         25    1    4    4    0    0 -0.39634758908E+02  0.45354049855E+02  0.11914170858E+03  0.18294851400E+03  0.12509000000E+03 0.  0.
         25    1    4    4    0    0 -0.71138548303E+01  0.70799943836E+02  0.23556532354E+03  0.27604667854E+03  0.12509000000E+03 0.  0.
<mgrwt>
<rscale>  2 0.47477905E+03</rscale>
<asrwt>0</asrwt>
<pdfrwt beam="1">  1       21 0.85634390E-01 0.47477905E+03</pdfrwt>
<pdfrwt beam="2">  1       21 0.14231709E-01 0.47477905E+03</pdfrwt>
<totfact> 0.46387645E+04</totfact>
</mgrwt>
</event>
<event>
 7    0  0.4685107E-002  0.4618262E+03  0.7546771E-02  0.1024253E+00
         21   -1    0    0  502  501  0.00000000000E+00  0.00000000000E+00  0.19374867085E+03  0.19374867085E+03  0.00000000000E+00 0.  1.
         21   -1    0    0  501  502 -0.00000000000E+00 -0.00000000000E+00 -0.27520635842E+03  0.27520635842E+03  0.00000000000E+00 0.  1.
      99926    2    1    2    0    0 -0.14210854715E-13  0.00000000000E+00 -0.81457687569E+02  0.46895502927E+03  0.46182622772E+03 0.  0.
      99925    2    3    3    0    0 -0.92629803996E+02 -0.45889033513E+02  0.97541673935E+01  0.28280134391E+03  0.26305013277E+03 0.  0.
         25    1    3    3    0    0  0.92629803996E+02  0.45889033513E+02 -0.91211854962E+02  0.18615368535E+03  0.12509000000E+03 0.  0.
         25    1    4    4    0    0 -0.80334229860E+02 -0.44732423952E+02 -0.99553728831E+01  0.15556733522E+03  0.12509000000E+03 0.  0.
         25    1    4    4    0    0 -0.12295574137E+02 -0.11566095610E+01  0.19709540277E+02  0.12723400869E+03  0.12509000000E+03 0.  0.
<mgrwt>
<rscale>  2 0.46182623E+03</rscale>
<asrwt>0</asrwt>
<pdfrwt beam="1">  1       21 0.28492452E-01 0.46182623E+03</pdfrwt>
<pdfrwt beam="2">  1       21 0.40471523E-01 0.46182623E+03</pdfrwt>
<totfact> 0.63974900E+04</totfact>
</mgrwt>
</event>
<event>
 6    0  0.4685107E-002  0.4616647E+03  0.7546771E-02  0.1024300E+00
         21   -1    0    0  502  501  0.00000000000E+00  0.00000000000E+00  0.22824524367E+03  0.22824524367E+03  0.00000000000E+00 0.  1.
         21   -1    0    0  501  502 -0.00000000000E+00 -0.00000000000E+00 -0.23344878041E+03  0.23344878041E+03  0.00000000000E+00 0.  1.
      99926    2    1    2    0    0  0.00000000000E+00  0.00000000000E+00 -0.52035367389E+01  0.46169402407E+03  0.46166469983E+03 0.  0.
         25    1    3    3    0    0 -0.42903219174E+02  0.30942213127E+02 -0.79001381837E+02  0.15712044170E+03  0.12509000000E+03 0.  0.
         25    1    3    3    0    0  0.42965438256E+02 -0.13964607732E+02  0.11071410292E+03  0.17304958780E+03  0.12509000000E+03 0.  0.
         25    1    3    3    0    0 -0.62219081368E-01 -0.16977605395E+02 -0.36916257819E+02  0.13152399457E+03  0.12509000000E+03 0.  0.
<mgrwt>
<rscale>  2 0.46166470E+03</rscale>
<asrwt>0</asrwt>
<pdfrwt beam="1">  1       21 0.33565477E-01 0.46166470E+03</pdfrwt>
<pdfrwt beam="2">  1       21 0.34330703E-01 0.46166470E+03</pdfrwt>
<totfact> 0.64556310E+04</totfact>
</mgrwt>
</event>
<event>
 7    0  0.4685107E-002  0.4559154E+03  0.7546771E-02  0.1025973E+00
         21   -1    0    0  502  501  0.00000000000E+00  0.00000000000E+00  0.38524392527E+02  0.38524392527E+02  0.00000000000E+00 0. -1.
         21   -1    0    0  501  502 -0.00000000000E+00 -0.00000000000E+00 -0.13488779937E+04  0.13488779937E+04  0.00000000000E+00 0. -1.
      99926    2    1    2    0    0 -0.26645352591E-14  0.00000000000E+00 -0.13103536012E+04  0.13874023862E+04  0.45591536627E+03 0.  0.
      99925    2    3    3    0    0 -0.40424252014E+01 -0.58331129544E+02 -0.52559465368E+03  0.59058811951E+03  0.26291771537E+03 0.  0.
         25    1    3    3    0    0  0.40424252014E+01  0.58331129544E+02 -0.78475894751E+03  0.79681426674E+03  0.12509000000E+03 0.  0.
         25    1    4    4    0    0  0.26322707489E+02 -0.58442008165E+02 -0.28070343585E+03  0.31392718940E+03  0.12509000000E+03 0.  0.
         25    1    4    4    0    0 -0.30365132690E+02  0.11087862168E+00 -0.24489121783E+03  0.27666093011E+03  0.12509000000E+03 0.  0.
<mgrwt>
<rscale>  2 0.45591537E+03</rscale>
<asrwt>0</asrwt>
<pdfrwt beam="1">  1       21 0.56653512E-02 0.45591537E+03</pdfrwt>
<pdfrwt beam="2">  1       21 0.19836443E+00 0.45591537E+03</pdfrwt>
<totfact> 0.26480760E+04</totfact>
</mgrwt>
</event>
<event>
 7    0  0.4685107E-002  0.4724106E+03  0.7546771E-02  0.1021242E+00
         21   -1    0    0  502  501  0.00000000000E+00  0.00000000000E+00  0.47868813979E+03  0.47868813979E+03  0.00000000000E+00 0.  1.
         21   -1    0    0  501  502 -0.00000000000E+00 -0.00000000000E+00 -0.11655384991E+03  0.11655384991E+03  0.00000000000E+00 0.  1.
      99926    2    1    2    0    0  0.14210854715E-13  0.00000000000E+00  0.36213428988E+03  0.59524198970E+03  0.47241060783E+03 0.  0.
      99925    2    3    3    0    0 -0.74226291448E+02 -0.65528320704E+02  0.32829367176E+03  0.43215857947E+03  0.26302243200E+03 0.  0.
         25    1    4    4    0    0 -0.54959780217E+01 -0.39882991677E+02  0.11736536118E+03  0.17619022363E+03  0.12509000000E+03 0.  0.
         25    1    4    4    0    0 -0.68730313426E+02 -0.25645329027E+02  0.21092831058E+03  0.25596835584E+03  0.12509000000E+03 0.  0.
         25    1    3    3    0    0  0.74226291448E+02  0.65528320704E+02  0.33840618123E+02  0.16308341023E+03  0.12509000000E+03 0.  0.
<mgrwt>
<rscale>  2 0.47241061E+03</rscale>
<asrwt>0</asrwt>
<pdfrwt beam="1">  1       21 0.70395314E-01 0.47241061E+03</pdfrwt>
<pdfrwt beam="2">  1       21 0.17140272E-01 0.47241061E+03</pdfrwt>
<totfact> 0.51510115E+04</totfact>
</mgrwt>
</event>
<event>
 7    0  0.4685107E-002  0.4465276E+03  0.7546771E-02  0.1028763E+00
         21   -1    0    0  502  501  0.00000000000E+00  0.00000000000E+00  0.12515918112E+04  0.12515918112E+04  0.00000000000E+00 0. -1.
         21   -1    0    0  501  502 -0.00000000000E+00 -0.00000000000E+00 -0.39826665018E+02  0.39826665018E+02  0.00000000000E+00 0. -1.
      99926    2    1    2    0    0  0.00000000000E+00  0.71054273576E-14  0.12117651462E+04  0.12914184762E+04  0.44652761529E+03 0.  0.
      99925    2    3    3    0    0  0.95213104110E+02  0.40505508339E+02  0.82104780266E+03  0.86831827292E+03  0.26296558223E+03 0.  0.
         25    1    4    4    0    0  0.78493623416E+02  0.75178877816E+01  0.51057611709E+03  0.53155737883E+03  0.12509000000E+03 0.  0.
         25    1    4    4    0    0  0.16719480694E+02  0.32987620558E+02  0.31047168557E+03  0.33676089409E+03  0.12509000000E+03 0.  0.
         25    1    3    3    0    0 -0.95213104110E+02 -0.40505508339E+02  0.39071734353E+03  0.42310020330E+03  0.12509000000E+03 0.  0.
<mgrwt>
<rscale>  2 0.44652762E+03</rscale>
<asrwt>0</asrwt>
<pdfrwt beam="1">  1       21 0.18405759E+00 0.44652762E+03</pdfrwt>
<pdfrwt beam="2">  1       21 0.58568633E-02 0.44652762E+03</pdfrwt>
<totfact> 0.31382512E+04</totfact>
</mgrwt>
</event>
<event>
 7    0  0.4685107E-002  0.4671791E+03  0.7546771E-02  0.1022719E+00
         21   -1    0    0  502  501  0.00000000000E+00  0.00000000000E+00  0.40171740629E+03  0.40171740629E+03  0.00000000000E+00 0. -1.
         21   -1    0    0  501  502 -0.00000000000E+00 -0.00000000000E+00 -0.13582701340E+03  0.13582701340E+03  0.00000000000E+00 0. -1.
      99926    2    1    2    0    0 -0.71054273576E-14  0.00000000000E+00  0.26589039290E+03  0.53754441969E+03  0.46717908997E+03 0.  0.
      99925    2    3    3    0    0  0.50597990818E+02  0.56135310886E+02  0.52064024178E+02  0.27854528096E+03  0.26299331005E+03 0.  0.
         25    1    3    3    0    0 -0.50597990818E+02 -0.56135310886E+02  0.21382636872E+03  0.25899913873E+03  0.12509000000E+03 0.  0.
         25    1    4    4    0    0  0.22235365952E+02  0.64527391370E+02  0.46471462637E+02  0.14988429096E+03  0.12509000000E+03 0.  0.
         25    1    4    4    0    0  0.28362624866E+02 -0.83920804833E+01  0.55925615405E+01  0.12866099000E+03  0.12509000000E+03 0.  0.
<mgrwt>
<rscale>  2 0.46717909E+03</rscale>
<asrwt>0</asrwt>
<pdfrwt beam="1">  1       21 0.59076089E-01 0.46717909E+03</pdfrwt>
<pdfrwt beam="2">  1       21 0.19974561E-01 0.46717909E+03</pdfrwt>
<totfact> 0.56994954E+04</totfact>
</mgrwt>
</event>
<event>
 7    0  0.4685107E-002  0.4111557E+03  0.7546771E-02  0.1039984E+00
         21   -1    0    0  502  501  0.00000000000E+00  0.00000000000E+00  0.17529133144E+03  0.17529133144E+03  0.00000000000E+00 0.  1.
         21   -1    0    0  501  502 -0.00000000000E+00 -0.00000000000E+00 -0.24109720028E+03  0.24109720028E+03  0.00000000000E+00 0.  1.
      99926    2    1    2    0    0 -0.35527136788E-14  0.00000000000E+00 -0.65805868845E+02  0.41638853172E+03  0.41115568459E+03 0.  0.
      99925    2    3    3    0    0 -0.30060194455E+02 -0.46174790728E+02 -0.76321234330E+02  0.27929802292E+03  0.26295765479E+03 0.  0.
         25    1    3    3    0    0  0.30060194455E+02  0.46174790728E+02  0.10515365485E+02  0.13709050879E+03  0.12509000000E+03 0.  0.
         25    1    4    4    0    0 -0.45517798541E+02  0.65580170907E+00 -0.50548013520E+02  0.14238999203E+03  0.12509000000E+03 0.  0.
         25    1    4    4    0    0  0.15457604086E+02 -0.46830592437E+02 -0.25773220811E+02  0.13690803089E+03  0.12509000000E+03 0.  0.
<mgrwt>
<rscale>  2 0.41115568E+03</rscale>
<asrwt>0</asrwt>
<pdfrwt beam="1">  1       21 0.25778137E-01 0.41115568E+03</pdfrwt>
<pdfrwt beam="2">  1       21 0.35455470E-01 0.41115568E+03</pdfrwt>
<totfact> 0.10306819E+05</totfact>
</mgrwt>
</event>
<event>
 6    0  0.8130671E-002  0.4892443E+03  0.7546771E-02  0.1016625E+00
         21   -1    0    0  502  501  0.00000000000E+00  0.00000000000E+00  0.15908760760E+03  0.15908760760E+03  0.00000000000E+00 0.  1.
         21   -1    0    0  501  502 -0.00000000000E+00 -0.00000000000E+00 -0.37614499138E+03  0.37614499138E+03  0.00000000000E+00 0.  1.
      99926    2    1    2    0    0  0.00000000000E+00 -0.17763568394E-14 -0.21705738378E+03  0.53523259898E+03  0.48924434300E+03 0.  0.
         25    1    3    3    0    0 -0.51630794985E+02  0.20869335167E+00 -0.15839652463E+03  0.20833326585E+03  0.12509000000E+03 0.  0.
         25    1    3    3    0    0 -0.70904870987E+02 -0.12468673353E+02 -0.96502728225E+01  0.14464993747E+03  0.12509000000E+03 0.  0.
         25    1    3    3    0    0  0.12253566597E+03  0.12259980001E+02 -0.49010586326E+02  0.18224939566E+03  0.12509000000E+03 0.  0.
<mgrwt>
<rscale>  2 0.48924434E+03</rscale>
<asrwt>0</asrwt>
<pdfrwt beam="1">  1       21 0.23395236E-01 0.48924434E+03</pdfrwt>
<pdfrwt beam="2">  1       21 0.55315440E-01 0.48924434E+03</pdfrwt>
<totfact> 0.48331288E+04</totfact>
</mgrwt>
</event>
<event>
 7    0  0.4685107E-002  0.4448118E+03  0.7546771E-02  0.1029281E+00
         21   -1    0    0  502  501  0.00000000000E+00  0.00000000000E+00  0.20964286362E+03  0.20964286362E+03  0.00000000000E+00 0. -1.
         21   -1    0    0  501  502 -0.00000000000E+00 -0.00000000000E+00 -0.23594599304E+03  0.23594599304E+03  0.00000000000E+00 0. -1.
      99926    2    1    2    0    0  0.14210854715E-13  0.00000000000E+00 -0.26303129421E+02  0.44558885667E+03  0.44481184176E+03 0.  0.
      99925    2    3    3    0    0  0.70175391005E+02  0.75129499887E+02 -0.57085104037E+01  0.28236914680E+03  0.26292721563E+03 0.  0.
         25    1    4    4    0    0  0.50661875613E+02  0.62062708501E+02  0.26949034096E+02  0.15097073877E+03  0.12509000000E+03 0.  0.
         25    1    4    4    0    0  0.19513515392E+02  0.13066791387E+02 -0.32657544499E+02  0.13139840803E+03  0.12509000000E+03 0.  0.
         25    1    3    3    0    0 -0.70175391005E+02 -0.75129499887E+02 -0.20594619018E+02  0.16321970987E+03  0.12509000000E+03 0.  0.
<mgrwt>
<rscale>  2 0.44481184E+03</rscale>
<asrwt>0</asrwt>
<pdfrwt beam="1">  1       21 0.30829833E-01 0.44481184E+03</pdfrwt>
<pdfrwt beam="2">  1       21 0.34697940E-01 0.44481184E+03</pdfrwt>
<totfact> 0.75167878E+04</totfact>
</mgrwt>
</event>
<event>
 7    0  0.4685107E-002  0.4590367E+03  0.7546771E-02  0.1025061E+00
         21   -1    0    0  502  501  0.00000000000E+00  0.00000000000E+00  0.13436967438E+03  0.13436967438E+03  0.00000000000E+00 0. -1.
         21   -1    0    0  501  502 -0.00000000000E+00 -0.00000000000E+00 -0.39204280719E+03  0.39204280719E+03  0.00000000000E+00 0. -1.
      99926    2    1    2    0    0  0.00000000000E+00  0.00000000000E+00 -0.25767313281E+03  0.52641248158E+03  0.45903666236E+03 0.  0.
      99925    2    3    3    0    0 -0.48958399647E+02 -0.95876460943E+02 -0.10959474843E+03  0.30468305936E+03  0.26311886499E+03 0.  0.
         25    1    4    4    0    0 -0.12587582854E+02 -0.46362447024E+02 -0.95629978378E+02  0.16462236969E+03  0.12509000000E+03 0.  0.
         25    1    3    3    0    0  0.48958399647E+02  0.95876460943E+02 -0.14807838437E+03  0.22172942222E+03  0.12509000000E+03 0.  0.
         25    1    4    4    0    0 -0.36370816793E+02 -0.49514013919E+02 -0.13964770055E+02  0.14006068967E+03  0.12509000000E+03 0.  0.
<mgrwt>
<rscale>  2 0.45903666E+03</rscale>
<asrwt>0</asrwt>
<pdfrwt beam="1">  1       21 0.19760246E-01 0.45903666E+03</pdfrwt>
<pdfrwt beam="2">  1       21 0.57653354E-01 0.45903666E+03</pdfrwt>
<totfact> 0.61459599E+04</totfact>
</mgrwt>
</event>
<event>
 7    0  0.4685107E-002  0.4395994E+03  0.7546771E-02  0.1030870E+00
         21   -1    0    0  502  501  0.00000000000E+00  0.00000000000E+00  0.66226852672E+03  0.66226852672E+03  0.00000000000E+00 0.  1.
         21   -1    0    0  501  502 -0.00000000000E+00 -0.00000000000E+00 -0.72949134799E+02  0.72949134799E+02  0.00000000000E+00 0.  1.
      99926    2    1    2    0    0  0.00000000000E+00  0.00000000000E+00  0.58931939192E+03  0.73521766152E+03  0.43959943598E+03 0.  0.
      99925    2    3    3    0    0  0.88141919475E+02  0.26953771256E+02  0.32001429581E+03  0.42430248556E+03  0.26292193893E+03 0.  0.
         25    1    4    4    0    0  0.48535712768E+02  0.26711959635E+02  0.10517635285E+03  0.17256540065E+03  0.12509000000E+03 0.  0.
         25    1    4    4    0    0  0.39606206707E+02  0.24181162115E+00  0.21483794296E+03  0.25173708491E+03  0.12509000000E+03 0.  0.
         25    1    3    3    0    0 -0.88141919475E+02 -0.26953771256E+02  0.26930509611E+03  0.31091517596E+03  0.12509000000E+03 0.  0.
<mgrwt>
<rscale>  2 0.43959944E+03</rscale>
<asrwt>0</asrwt>
<pdfrwt beam="1">  1       21 0.97392427E-01 0.43959944E+03</pdfrwt>
<pdfrwt beam="2">  1       21 0.10727814E-01 0.43959944E+03</pdfrwt>
<totfact> 0.57708870E+04</totfact>
</mgrwt>
</event>
<event>
 7    0  0.4685107E-002  0.4638494E+03  0.7546771E-02  0.1023671E+00
         21   -1    0    0  502  501  0.00000000000E+00  0.00000000000E+00  0.31616320952E+03  0.31616320952E+03  0.00000000000E+00 0. -1.
         21   -1    0    0  501  502 -0.00000000000E+00 -0.00000000000E+00 -0.17013071944E+03  0.17013071944E+03  0.00000000000E+00 0. -1.
      99926    2    1    2    0    0  0.00000000000E+00  0.00000000000E+00  0.14603249008E+03  0.48629392895E+03  0.46384943374E+03 0.  0.
      99925    2    3    3    0    0 -0.69960974919E+02  0.30914519674E+02  0.18979668206E+03  0.33328066764E+03  0.26306458782E+03 0.  0.
         25    1    4    4    0    0 -0.16260466444E+02 -0.21172645160E+02  0.80980147290E+02  0.15138684232E+03  0.12509000000E+03 0.  0.
         25    1    3    3    0    0  0.69960974919E+02 -0.30914519674E+02 -0.43764191980E+02  0.15301326131E+03  0.12509000000E+03 0.  0.
         25    1    4    4    0    0 -0.53700508475E+02  0.52087164834E+02  0.10881653477E+03  0.18189382532E+03  0.12509000000E+03 0.  0.
<mgrwt>
<rscale>  2 0.46384943E+03</rscale>
<asrwt>0</asrwt>
<pdfrwt beam="1">  1       21 0.46494590E-01 0.46384943E+03</pdfrwt>
<pdfrwt beam="2">  1       21 0.25019223E-01 0.46384943E+03</pdfrwt>
<totfact> 0.61789024E+04</totfact>
</mgrwt>
</event>
<event>
 7    0  0.4685107E-002  0.4534962E+03  0.7546771E-02  0.1026685E+00
         21   -1    0    0  502  501  0.00000000000E+00  0.00000000000E+00  0.58853277982E+03  0.58853277982E+03  0.00000000000E+00 0. -1.
         21   -1    0    0  501  502 -0.00000000000E+00 -0.00000000000E+00 -0.87360825687E+02  0.87360825687E+02  0.00000000000E+00 0. -1.
      99926    2    1    2    0    0  0.00000000000E+00 -0.17763568394E-14  0.50117195413E+03  0.67589360550E+03  0.45349623852E+03 0.  0.
      99925    2    3    3    0    0 -0.77404312410E+02  0.40406716467E+01  0.19713847603E+03  0.33811909712E+03  0.26353973230E+03 0.  0.
         25    1    4    4    0    0 -0.31068181999E+02  0.38755345745E+02  0.75719236538E+02  0.15442836410E+03  0.12509000000E+03 0.  0.
         25    1    4    4    0    0 -0.46336130411E+02 -0.34714674098E+02  0.12141923949E+03  0.18369073302E+03  0.12509000000E+03 0.  0.
         25    1    3    3    0    0  0.77404312410E+02 -0.40406716467E+01  0.30403347810E+03  0.33777450838E+03  0.12509000000E+03 0.  0.
<mgrwt>
<rscale>  2 0.45349624E+03</rscale>
<asrwt>0</asrwt>
<pdfrwt beam="1">  1       21 0.86548936E-01 0.45349624E+03</pdfrwt>
<pdfrwt beam="2">  1       21 0.12847181E-01 0.45349624E+03</pdfrwt>
<totfact> 0.54879069E+04</totfact>
</mgrwt>
</event>
<event>
 7    0  0.4685107E-002  0.4659692E+03  0.7546771E-02  0.1023064E+00
         21   -1    0    0  502  501  0.00000000000E+00  0.00000000000E+00  0.34269201785E+03  0.34269201785E+03  0.00000000000E+00 0.  1.
         21   -1    0    0  501  502 -0.00000000000E+00 -0.00000000000E+00 -0.15839827564E+03  0.15839827564E+03  0.00000000000E+00 0.  1.
      99926    2    1    2    0    0 -0.14210854715E-13  0.00000000000E+00  0.18429374221E+03  0.50109029349E+03  0.46596920371E+03 0.  0.
      99925    2    3    3    0    0 -0.87663667620E+02 -0.11858304268E+02  0.20713906686E+03  0.34618724330E+03  0.26289442063E+03 0.  0.
         25    1    4    4    0    0 -0.53937840025E+02 -0.16092451131E+02  0.58941336931E+02  0.14929784616E+03  0.12509000000E+03 0.  0.
         25    1    3    3    0    0  0.87663667620E+02  0.11858304268E+02 -0.22845324648E+02  0.15490305019E+03  0.12509000000E+03 0.  0.
         25    1    4    4    0    0 -0.33725827595E+02  0.42341468624E+01  0.14819772993E+03  0.19688939713E+03  0.12509000000E+03 0.  0.
<mgrwt>
<rscale>  2 0.46596920E+03</rscale>
<asrwt>0</asrwt>
<pdfrwt beam="1">  1       21 0.50395885E-01 0.46596920E+03</pdfrwt>
<pdfrwt beam="2">  1       21 0.23293864E-01 0.46596920E+03</pdfrwt>
<totfact> 0.59813488E+04</totfact>
</mgrwt>
</event>
<event>
 7    0  0.4685107E-002  0.4570091E+03  0.7546771E-02  0.1025652E+00
         21   -1    0    0  502  501  0.00000000000E+00  0.00000000000E+00  0.22794116563E+03  0.22794116563E+03  0.00000000000E+00 0. -1.
         21   -1    0    0  501  502 -0.00000000000E+00 -0.00000000000E+00 -0.22906935923E+03  0.22906935923E+03  0.00000000000E+00 0. -1.
      99926    2    1    2    0    0  0.00000000000E+00 -0.35527136788E-14 -0.11281935990E+01  0.45701052487E+03  0.45700913231E+03 0.  0.
      99925    2    3    3    0    0 -0.67449527179E+02  0.24441348214E+02  0.89239689030E+02  0.28683214630E+03  0.26298695754E+03 0.  0.
         25    1    3    3    0    0  0.67449527179E+02 -0.24441348214E+02 -0.90367882629E+02  0.17017837856E+03  0.12509000000E+03 0.  0.
         25    1    4    4    0    0 -0.64706726853E+02  0.39048931468E+02  0.56388643805E+02  0.15664918384E+03  0.12509000000E+03 0.  0.
         25    1    4    4    0    0 -0.27428003256E+01 -0.14607583254E+02  0.32851045226E+02  0.13018296246E+03  0.12509000000E+03 0.  0.
<mgrwt>
<rscale>  2 0.45700913E+03</rscale>
<asrwt>0</asrwt>
<pdfrwt beam="1">  1       21 0.33520760E-01 0.45700913E+03</pdfrwt>
<pdfrwt beam="2">  1       21 0.33686670E-01 0.45700913E+03</pdfrwt>
<totfact> 0.67313178E+04</totfact>
</mgrwt>
</event>
<event>
 7    0  0.4685107E-002  0.4043685E+03  0.7546771E-02  0.1042277E+00
         21   -1    0    0  502  501  0.00000000000E+00  0.00000000000E+00  0.83271123383E+02  0.83271123383E+02  0.00000000000E+00 0.  1.
         21   -1    0    0  501  502 -0.00000000000E+00 -0.00000000000E+00 -0.49090808544E+03  0.49090808544E+03  0.00000000000E+00 0.  1.
      99926    2    1    2    0    0  0.17763568394E-14  0.00000000000E+00 -0.40763696206E+03  0.57417920882E+03  0.40436848419E+03 0.  0.
      99925    2    3    3    0    0 -0.77709949056E+01  0.33162603368E+02 -0.21267632674E+03  0.34004825391E+03  0.26313769857E+03 0.  0.
         25    1    3    3    0    0  0.77709949056E+01 -0.33162603368E+02 -0.19496063532E+03  0.23413095492E+03  0.12509000000E+03 0.  0.
         25    1    4    4    0    0 -0.41565968247E+02  0.48879560266E+01 -0.92829765489E+02  0.16129629658E+03  0.12509000000E+03 0.  0.
         25    1    4    4    0    0  0.33794973341E+02  0.28274647341E+02 -0.11984656125E+03  0.17875195733E+03  0.12509000000E+03 0.  0.
<mgrwt>
<rscale>  2 0.40436848E+03</rscale>
<asrwt>0</asrwt>
<pdfrwt beam="1">  1       21 0.12245754E-01 0.40436848E+03</pdfrwt>
<pdfrwt beam="2">  1       21 0.72192363E-01 0.40436848E+03</pdfrwt>
<totfact> 0.91924785E+04</totfact>
</mgrwt>
</event>
<event>
 7    0  0.4685107E-002  0.4522515E+03  0.7546771E-02  0.1027053E+00
         21   -1    0    0  502  501  0.00000000000E+00  0.00000000000E+00  0.97302474453E+02  0.97302474453E+02  0.00000000000E+00 0. -1.
         21   -1    0    0  501  502 -0.00000000000E+00 -0.00000000000E+00 -0.52550421605E+03  0.52550421605E+03  0.00000000000E+00 0. -1.
      99926    2    1    2    0    0  0.00000000000E+00  0.71054273576E-14 -0.42820174160E+03  0.62280669050E+03  0.45225152540E+03 0.  0.
      99925    2    3    3    0    0  0.74585939485E+02 -0.60755528855E+02 -0.19499614161E+03  0.34122782656E+03  0.26298029911E+03 0.  0.
         25    1    4    4    0    0  0.48240674974E+02  0.89918907793E+01 -0.91149407798E+02  0.16236914566E+03  0.12509000000E+03 0.  0.
         25    1    3    3    0    0 -0.74585939485E+02  0.60755528855E+02 -0.23320559999E+03  0.28157886394E+03  0.12509000000E+03 0.  0.
         25    1    4    4    0    0  0.26345264511E+02 -0.69747419635E+02 -0.10384673381E+03  0.17885868089E+03  0.12509000000E+03 0.  0.
<mgrwt>
<rscale>  2 0.45225153E+03</rscale>
<asrwt>0</asrwt>
<pdfrwt beam="1">  1       21 0.14309188E-01 0.45225153E+03</pdfrwt>
<pdfrwt beam="2">  1       21 0.77280031E-01 0.45225153E+03</pdfrwt>
<totfact> 0.58556398E+04</totfact>
</mgrwt>
</event>
<event>
 7    0  0.4685107E-002  0.4545746E+03  0.7546771E-02  0.1026367E+00
         21   -1    0    0  502  501  0.00000000000E+00  0.00000000000E+00  0.53755258491E+02  0.53755258491E+02  0.00000000000E+00 0.  1.
         21   -1    0    0  501  502 -0.00000000000E+00 -0.00000000000E+00 -0.96101315496E+03  0.96101315496E+03  0.00000000000E+00 0.  1.
      99926    2    1    2    0    0 -0.35527136788E-14  0.35527136788E-14 -0.90725789647E+03  0.10147684135E+04  0.45457457280E+03 0.  0.
      99925    2    3    3    0    0 -0.24579151561E+02  0.27042366885E+02 -0.80892009594E+03  0.85151016584E+03  0.26340542255E+03 0.  0.
         25    1    4    4    0    0 -0.26091548607E+02  0.52088767318E+02 -0.44225961537E+03  0.46328725871E+03  0.12509000000E+03 0.  0.
         25    1    4    4    0    0  0.15123970462E+01 -0.25046400433E+02 -0.36666048056E+03  0.38822290714E+03  0.12509000000E+03 0.  0.
         25    1    3    3    0    0  0.24579151561E+02 -0.27042366885E+02 -0.98337800532E+02  0.16325824761E+03  0.12509000000E+03 0.  0.
<mgrwt>
<rscale>  2 0.45457457E+03</rscale>
<asrwt>0</asrwt>
<pdfrwt beam="1">  1       21 0.79051855E-02 0.45457457E+03</pdfrwt>
<pdfrwt beam="2">  1       21 0.14132546E+00 0.45457457E+03</pdfrwt>
<totfact> 0.38725704E+04</totfact>
</mgrwt>
</event>
<event>
 7    0  0.4685107E-002  0.4585504E+03  0.7546771E-02  0.1025202E+00
         21   -1    0    0  502  501  0.00000000000E+00  0.00000000000E+00  0.23749903817E+03  0.23749903817E+03  0.00000000000E+00 0.  1.
         21   -1    0    0  501  502 -0.00000000000E+00 -0.00000000000E+00 -0.22133616382E+03  0.22133616382E+03  0.00000000000E+00 0.  1.
      99926    2    1    2    0    0  0.00000000000E+00  0.00000000000E+00  0.16162874351E+02  0.45883520199E+03  0.45855043788E+03 0.  0.
      99925    2    3    3    0    0  0.35814038764E+02 -0.73655073871E+02  0.92882153900E+02  0.29078440243E+03  0.26309838255E+03 0.  0.
         25    1    3    3    0    0 -0.35814038764E+02  0.73655073871E+02 -0.76719279549E+02  0.16805079956E+03  0.12509000000E+03 0.  0.
         25    1    4    4    0    0 -0.12597116811E+02 -0.63833824949E+02  0.50601727479E+02  0.14980483131E+03  0.12509000000E+03 0.  0.
         25    1    4    4    0    0  0.48411155575E+02 -0.98212489218E+01  0.42280426421E+02  0.14097957112E+03  0.12509000000E+03 0.  0.
<mgrwt>
<rscale>  2 0.45855044E+03</rscale>
<asrwt>0</asrwt>
<pdfrwt beam="1">  1       21 0.34926329E-01 0.45855044E+03</pdfrwt>
<pdfrwt beam="2">  1       21 0.32549436E-01 0.45855044E+03</pdfrwt>
<totfact> 0.66365683E+04</totfact>
</mgrwt>
</event>
<event>
 7    0  0.4685107E-002  0.4570587E+03  0.7546771E-02  0.1025638E+00
         21   -1    0    0  502  501  0.00000000000E+00  0.00000000000E+00  0.11796876419E+03  0.11796876419E+03  0.00000000000E+00 0.  1.
         21   -1    0    0  501  502 -0.00000000000E+00 -0.00000000000E+00 -0.44270762754E+03  0.44270762754E+03  0.00000000000E+00 0.  1.
      99926    2    1    2    0    0  0.00000000000E+00  0.00000000000E+00 -0.32473886336E+03  0.56067639173E+03  0.45705873459E+03 0.  0.
      99925    2    3    3    0    0  0.10570446063E+03 -0.41307522415E+02 -0.18184467826E+03  0.33943896126E+03  0.26319494107E+03 0.  0.
         25    1    4    4    0    0  0.25097229487E+02  0.12196201086E+02 -0.73477154231E+02  0.14773292978E+03  0.12509000000E+03 0.  0.
         25    1    4    4    0    0  0.80607231141E+02 -0.53503723502E+02 -0.10836752403E+03  0.19170603148E+03  0.12509000000E+03 0.  0.
         25    1    3    3    0    0 -0.10570446063E+03  0.41307522415E+02 -0.14289418510E+03  0.22123743047E+03  0.12509000000E+03 0.  0.
<mgrwt>
<rscale>  2 0.45705873E+03</rscale>
<asrwt>0</asrwt>
<pdfrwt beam="1">  1       21 0.17348348E-01 0.45705873E+03</pdfrwt>
<pdfrwt beam="2">  1       21 0.65104062E-01 0.45705873E+03</pdfrwt>
<totfact> 0.60180482E+04</totfact>
</mgrwt>
</event>
<event>
 7    0  0.4685107E-002  0.4499277E+03  0.7546771E-02  0.1027744E+00
         21   -1    0    0  502  501  0.00000000000E+00  0.00000000000E+00  0.62991991327E+02  0.62991991327E+02  0.00000000000E+00 0. -1.
         21   -1    0    0  501  502 -0.00000000000E+00 -0.00000000000E+00 -0.80341535276E+03  0.80341535276E+03  0.00000000000E+00 0. -1.
      99926    2    1    2    0    0  0.00000000000E+00 -0.71054273576E-14 -0.74042336143E+03  0.86640734408E+03  0.44992769611E+03 0.  0.
      99925    2    3    3    0    0 -0.74871844803E+02  0.46688157931E+02 -0.34682131508E+03  0.44408559917E+03  0.26294755668E+03 0.  0.
         25    1    4    4    0    0 -0.38518681976E+02  0.52724390925E+02 -0.13464790294E+03  0.19504131902E+03  0.12509000000E+03 0.  0.
         25    1    4    4    0    0 -0.36353162827E+02 -0.60362329938E+01 -0.21217341214E+03  0.24904428015E+03  0.12509000000E+03 0.  0.
         25    1    3    3    0    0  0.74871844803E+02 -0.46688157931E+02 -0.39360204635E+03  0.42232174491E+03  0.12509000000E+03 0.  0.
<mgrwt>
<rscale>  2 0.44992770E+03</rscale>
<asrwt>0</asrwt>
<pdfrwt beam="1">  1       21 0.92635281E-02 0.44992770E+03</pdfrwt>
<pdfrwt beam="2">  1       21 0.11814932E+00 0.44992770E+03</pdfrwt>
<totfact> 0.46537843E+04</totfact>
</mgrwt>
</event>
<event>
 7    0  0.4685107E-002  0.4535097E+03  0.7546771E-02  0.1026681E+00
         21   -1    0    0  502  501  0.00000000000E+00  0.00000000000E+00  0.11098917951E+03  0.11098917951E+03  0.00000000000E+00 0.  1.
         21   -1    0    0  501  502 -0.00000000000E+00 -0.00000000000E+00 -0.46326817180E+03  0.46326817180E+03  0.00000000000E+00 0.  1.
      99926    2    1    2    0    0 -0.35527136788E-14  0.00000000000E+00 -0.35227899229E+03  0.57425735131E+03  0.45350966597E+03 0.  0.
      99925    2    3    3    0    0 -0.18418934457E+02 -0.10571768018E+03 -0.18255089558E+03  0.33767624479E+03  0.26303028680E+03 0.  0.
         25    1    4    4    0    0 -0.35676640530E+02 -0.59317045422E+02 -0.57800351426E+02  0.15420675498E+03  0.12509000000E+03 0.  0.
         25    1    3    3    0    0  0.18418934457E+02  0.10571768018E+03 -0.16972809671E+03  0.23658110651E+03  0.12509000000E+03 0.  0.
         25    1    4    4    0    0  0.17257706073E+02 -0.46400634754E+02 -0.12475054416E+03  0.18346948981E+03  0.12509000000E+03 0.  0.
<mgrwt>
<rscale>  2 0.45350967E+03</rscale>
<asrwt>0</asrwt>
<pdfrwt beam="1">  1       21 0.16321938E-01 0.45350967E+03</pdfrwt>
<pdfrwt beam="2">  1       21 0.68127672E-01 0.45350967E+03</pdfrwt>
<totfact> 0.61007182E+04</totfact>
</mgrwt>
</event>
<event>
 7    0  0.4685107E-002  0.4623321E+03  0.7546771E-02  0.1024107E+00
         21   -1    0    0  502  501  0.00000000000E+00  0.00000000000E+00  0.26887304192E+02  0.26887304192E+02  0.00000000000E+00 0. -1.
         21   -1    0    0  501  502 -0.00000000000E+00 -0.00000000000E+00 -0.19874710362E+04  0.19874710362E+04  0.00000000000E+00 0. -1.
      99926    2    1    2    0    0  0.17763568394E-14  0.00000000000E+00 -0.19605837320E+04  0.20143583404E+04  0.46233208118E+03 0.  0.
      99925    2    3    3    0    0 -0.70774286625E+01  0.63638825947E+02 -0.78361242154E+03  0.82902760008E+03  0.26294171282E+03 0.  0.
         25    1    4    4    0    0  0.25585049826E+02  0.68042801348E+01 -0.32846485208E+03  0.35247348859E+03  0.12509000000E+03 0.  0.
         25    1    4    4    0    0 -0.32662478488E+02  0.56834545812E+02 -0.45514756946E+03  0.47655411149E+03  0.12509000000E+03 0.  0.
         25    1    3    3    0    0  0.70774286625E+01 -0.63638825947E+02 -0.11769713104E+04  0.11853307403E+04  0.12509000000E+03 0.  0.
<mgrwt>
<rscale>  2 0.46233208E+03</rscale>
<asrwt>0</asrwt>
<pdfrwt beam="1">  1       21 0.39540154E-02 0.46233208E+03</pdfrwt>
<pdfrwt beam="2">  1       21 0.29227515E+00 0.46233208E+03</pdfrwt>
<totfact> 0.12736219E+04</totfact>
</mgrwt>
</event>
<event>
 7    0  0.4685107E-002  0.4538447E+03  0.7546771E-02  0.1026582E+00
         21   -1    0    0  502  501  0.00000000000E+00  0.00000000000E+00  0.33539250394E+02  0.33539250394E+02  0.00000000000E+00 0.  1.
         21   -1    0    0  501  502 -0.00000000000E+00 -0.00000000000E+00 -0.15353284091E+04  0.15353284091E+04  0.00000000000E+00 0.  1.
      99926    2    1    2    0    0  0.00000000000E+00  0.00000000000E+00 -0.15017891588E+04  0.15688676595E+04  0.45384474857E+03 0.  0.
      99925    2    3    3    0    0  0.72477134415E+02  0.62792442439E+02 -0.11489612663E+04  0.11824341521E+04  0.26237893757E+03 0.  0.
         25    1    3    3    0    0 -0.72477134415E+02 -0.62792442439E+02 -0.35282789247E+03  0.38643350741E+03  0.12509000000E+03 0.  0.
         25    1    4    4    0    0  0.16637771489E+02  0.58094941529E+02 -0.48677784417E+03  0.50621340889E+03  0.12509000000E+03 0.  0.
         25    1    4    4    0    0  0.55839362925E+02  0.46975009100E+01 -0.66218342211E+03  0.67622074324E+03  0.12509000000E+03 0.  0.
<mgrwt>
<rscale>  2 0.45384475E+03</rscale>
<asrwt>0</asrwt>
<pdfrwt beam="1">  1       21 0.49322428E-02 0.45384475E+03</pdfrwt>
<pdfrwt beam="2">  1       21 0.22578359E+00 0.45384475E+03</pdfrwt>
<totfact> 0.22340410E+04</totfact>
</mgrwt>
</event>
<event>
 7    0  0.4685107E-002  0.4456469E+03  0.7546771E-02  0.1029028E+00
         21   -1    0    0  502  501  0.00000000000E+00  0.00000000000E+00  0.34950665246E+02  0.34950665246E+02  0.00000000000E+00 0.  1.
         21   -1    0    0  501  502 -0.00000000000E+00 -0.00000000000E+00 -0.14205820709E+04  0.14205820709E+04  0.00000000000E+00 0.  1.
      99926    2    1    2    0    0 -0.14210854715E-13  0.00000000000E+00 -0.13856314056E+04  0.14555327361E+04  0.44564689346E+03 0.  0.
      99925    2    3    3    0    0 -0.83575599354E+02 -0.52610586199E+02 -0.76980050913E+03  0.81941328525E+03  0.26285462447E+03 0.  0.
         25    1    4    4    0    0 -0.70306204191E+02 -0.56063463135E+02 -0.45602713196E+03  0.48134636950E+03  0.12509000000E+03 0.  0.
         25    1    4    4    0    0 -0.13269395163E+02  0.34528769361E+01 -0.31377337717E+03  0.33806691575E+03  0.12509000000E+03 0.  0.
         25    1    3    3    0    0  0.83575599354E+02  0.52610586199E+02 -0.61583089650E+03  0.63611945087E+03  0.12509000000E+03 0.  0.
<mgrwt>
<rscale>  2 0.44564689E+03</rscale>
<asrwt>0</asrwt>
<pdfrwt beam="1">  1       21 0.51398050E-02 0.44564689E+03</pdfrwt>
<pdfrwt beam="2">  1       21 0.20890907E+00 0.44564689E+03</pdfrwt>
<totfact> 0.26783008E+04</totfact>
</mgrwt>
</event>
<event>
 7    0  0.4685107E-002  0.4512960E+03  0.7546771E-02  0.1027336E+00
         21   -1    0    0  502  501  0.00000000000E+00  0.00000000000E+00  0.11234526091E+03  0.11234526091E+03  0.00000000000E+00 0. -1.
         21   -1    0    0  501  502 -0.00000000000E+00 -0.00000000000E+00 -0.45321907478E+03  0.45321907478E+03  0.00000000000E+00 0. -1.
      99926    2    1    2    0    0 -0.14210854715E-13 -0.17763568394E-14 -0.34087381387E+03  0.56556433570E+03  0.45129597919E+03 0.  0.
      99925    2    3    3    0    0 -0.93238489972E+02 -0.15033751893E+02 -0.28513201373E+03  0.39920903494E+03  0.26296037461E+03 0.  0.
         25    1    4    4    0    0 -0.85421516118E+02 -0.29032499775E+01 -0.17917370997E+03  0.23464013024E+03  0.12509000000E+03 0.  0.
         25    1    4    4    0    0 -0.78169738542E+01 -0.12130501916E+02 -0.10595830376E+03  0.16456890470E+03  0.12509000000E+03 0.  0.
         25    1    3    3    0    0  0.93238489972E+02  0.15033751893E+02 -0.55741800139E+02  0.16635530076E+03  0.12509000000E+03 0.  0.
<mgrwt>
<rscale>  2 0.45129598E+03</rscale>
<asrwt>0</asrwt>
<pdfrwt beam="1">  1       21 0.16521362E-01 0.45129598E+03</pdfrwt>
<pdfrwt beam="2">  1       21 0.66649864E-01 0.45129598E+03</pdfrwt>
<totfact> 0.62665206E+04</totfact>
</mgrwt>
</event>
<event>
 7    0  0.4685107E-002  0.4577523E+03  0.7546771E-02  0.1025435E+00
         21   -1    0    0  502  501  0.00000000000E+00  0.00000000000E+00  0.46077018177E+03  0.46077018177E+03  0.00000000000E+00 0.  1.
         21   -1    0    0  501  502 -0.00000000000E+00 -0.00000000000E+00 -0.11368856284E+03  0.11368856284E+03  0.00000000000E+00 0.  1.
      99926    2    1    2    0    0  0.35527136788E-14  0.00000000000E+00  0.34708161893E+03  0.57445874461E+03  0.45775233376E+03 0.  0.
      99925    2    3    3    0    0 -0.23436124136E+02  0.10973618472E+03  0.25247520602E+03  0.38161382346E+03  0.26323772231E+03 0.  0.
         25    1    3    3    0    0  0.23436124136E+02 -0.10973618472E+03  0.94606412909E+02  0.19284492115E+03  0.12509000000E+03 0.  0.
         25    1    4    4    0    0 -0.42438473494E+02  0.58341475746E+02  0.16578773289E+03  0.21985866438E+03  0.12509000000E+03 0.  0.
         25    1    4    4    0    0  0.19002349358E+02  0.51394708974E+02  0.86687473131E+02  0.16175515908E+03  0.12509000000E+03 0.  0.
<mgrwt>
<rscale>  2 0.45775233E+03</rscale>
<asrwt>0</asrwt>
<pdfrwt beam="1">  1       21 0.67760320E-01 0.45775233E+03</pdfrwt>
<pdfrwt beam="2">  1       21 0.16718906E-01 0.45775233E+03</pdfrwt>
<totfact> 0.58984430E+04</totfact>
</mgrwt>
</event>
<event>
 7    0  0.4685107E-002  0.4495100E+03  0.7546771E-02  0.1027868E+00
         21   -1    0    0  502  501  0.00000000000E+00  0.00000000000E+00  0.19214891681E+03  0.19214891681E+03  0.00000000000E+00 0. -1.
         21   -1    0    0  501  502 -0.00000000000E+00 -0.00000000000E+00 -0.26289404849E+03  0.26289404849E+03  0.00000000000E+00 0. -1.
      99926    2    1    2    0    0  0.00000000000E+00  0.35527136788E-14 -0.70745131682E+02  0.45504296530E+03  0.44950998500E+03 0.  0.
      99925    2    3    3    0    0  0.99956051884E+02 -0.78909075021E+01 -0.86864461078E+02  0.29391934937E+03  0.26227785002E+03 0.  0.
         25    1    4    4    0    0  0.58317092033E+02  0.33821090049E+02 -0.51973135228E+02  0.15130586321E+03  0.12509000000E+03 0.  0.
         25    1    3    3    0    0 -0.99956051884E+02  0.78909075021E+01  0.16119329396E+02  0.16112361593E+03  0.12509000000E+03 0.  0.
         25    1    4    4    0    0  0.41638959851E+02 -0.41711997551E+02 -0.34891325850E+02  0.14261348617E+03  0.12509000000E+03 0.  0.
<mgrwt>
<rscale>  2 0.44950998E+03</rscale>
<asrwt>0</asrwt>
<pdfrwt beam="1">  1       21 0.28257194E-01 0.44950998E+03</pdfrwt>
<pdfrwt beam="2">  1       21 0.38660889E-01 0.44950998E+03</pdfrwt>
<totfact> 0.71628242E+04</totfact>
</mgrwt>
</event>
<event>
 7    0  0.4685107E-002  0.4525365E+03  0.7546771E-02  0.1026968E+00
         21   -1    0    0  502  501  0.00000000000E+00  0.00000000000E+00  0.12952378859E+03  0.12952378859E+03  0.00000000000E+00 0.  1.
         21   -1    0    0  501  502 -0.00000000000E+00 -0.00000000000E+00 -0.39527355165E+03  0.39527355165E+03  0.00000000000E+00 0.  1.
      99926    2    1    2    0    0 -0.17763568394E-14  0.13322676296E-14 -0.26574976306E+03  0.52479734024E+03  0.45253653085E+03 0.  0.
      99925    2    3    3    0    0  0.76494576342E+01  0.30948346466E+01 -0.29582167286E+03  0.39587907131E+03  0.26294806477E+03 0.  0.
         25    1    3    3    0    0 -0.76494576342E+01 -0.30948346466E+01  0.30071909805E+02  0.12891826893E+03  0.12509000000E+03 0.  0.
         25    1    4    4    0    0  0.21421763227E+02 -0.26096556197E+02 -0.11238022289E+03  0.17151310382E+03  0.12509000000E+03 0.  0.
         25    1    4    4    0    0 -0.13772305593E+02  0.29191390843E+02 -0.18344144997E+03  0.22436596749E+03  0.12509000000E+03 0.  0.
<mgrwt>
<rscale>  2 0.45253653E+03</rscale>
<asrwt>0</asrwt>
<pdfrwt beam="1">  1       21 0.19047616E-01 0.45253653E+03</pdfrwt>
<pdfrwt beam="2">  1       21 0.58128463E-01 0.45253653E+03</pdfrwt>
<totfact> 0.64816597E+04</totfact>
</mgrwt>
</event>
<event>
 7    0  0.4685107E-002  0.4691060E+03  0.7546771E-02  0.1022173E+00
         21   -1    0    0  502  501  0.00000000000E+00  0.00000000000E+00  0.20254048812E+03  0.20254048812E+03  0.00000000000E+00 0. -1.
         21   -1    0    0  501  502 -0.00000000000E+00 -0.00000000000E+00 -0.27162522083E+03  0.27162522083E+03  0.00000000000E+00 0. -1.
      99926    2    1    2    0    0  0.00000000000E+00 -0.14210854715E-13 -0.69084732703E+02  0.47416570895E+03  0.46910597870E+03 0.  0.
      99925    2    3    3    0    0 -0.64735144676E+02  0.10789256967E+03 -0.48516473594E+02  0.29555437972E+03  0.26299638327E+03 0.  0.
         25    1    3    3    0    0  0.64735144676E+02 -0.10789256967E+03 -0.20568259109E+02  0.17861132923E+03  0.12509000000E+03 0.  0.
         25    1    4    4    0    0 -0.33502166413E+02  0.10485754732E+02 -0.23844771266E+02  0.13209249571E+03  0.12509000000E+03 0.  0.
         25    1    4    4    0    0 -0.31232978264E+02  0.97406814939E+02 -0.24671702328E+02  0.16346188401E+03  0.12509000000E+03 0.  0.
<mgrwt>
<rscale>  2 0.46910598E+03</rscale>
<asrwt>0</asrwt>
<pdfrwt beam="1">  1       21 0.29785366E-01 0.46910598E+03</pdfrwt>
<pdfrwt beam="2">  1       21 0.39944885E-01 0.46910598E+03</pdfrwt>
<totfact> 0.60107035E+04</totfact>
</mgrwt>
</event>
<event>
 7    0  0.4685107E-002  0.4538197E+03  0.7546771E-02  0.1026589E+00
         21   -1    0    0  502  501  0.00000000000E+00  0.00000000000E+00  0.46053723709E+02  0.46053723709E+02  0.00000000000E+00 0. -1.
         21   -1    0    0  501  502 -0.00000000000E+00 -0.00000000000E+00 -0.11180004486E+04  0.11180004486E+04  0.00000000000E+00 0. -1.
      99926    2    1    2    0    0  0.00000000000E+00  0.00000000000E+00 -0.10719467249E+04  0.11640541723E+04  0.45381971648E+03 0.  0.
      99925    2    3    3    0    0  0.34140313776E+02 -0.10626993967E+03 -0.64973173575E+03  0.70977246867E+03  0.26299575614E+03 0.  0.
         25    1    3    3    0    0 -0.34140313776E+02  0.10626993967E+03 -0.42221498914E+03  0.45428170364E+03  0.12509000000E+03 0.  0.
         25    1    4    4    0    0  0.58542578594E+01 -0.47000985943E+02 -0.41264961970E+03  0.43378633191E+03  0.12509000000E+03 0.  0.
         25    1    4    4    0    0  0.28286055917E+02 -0.59268953722E+02 -0.23708211605E+03  0.27598613677E+03  0.12509000000E+03 0.  0.
<mgrwt>
<rscale>  2 0.45381972E+03</rscale>
<asrwt>0</asrwt>
<pdfrwt beam="1">  1       21 0.67726077E-02 0.45381972E+03</pdfrwt>
<pdfrwt beam="2">  1       21 0.16441180E+00 0.45381972E+03</pdfrwt>
<totfact> 0.33624784E+04</totfact>
</mgrwt>
</event>
<event>
 7    0  0.4685107E-002  0.4476524E+03  0.7546771E-02  0.1028424E+00
         21   -1    0    0  502  501  0.00000000000E+00  0.00000000000E+00  0.76624890681E+02  0.76624890681E+02  0.00000000000E+00 0. -1.
         21   -1    0    0  501  502 -0.00000000000E+00 -0.00000000000E+00 -0.65381071888E+03  0.65381071888E+03  0.00000000000E+00 0. -1.
      99926    2    1    2    0    0  0.00000000000E+00  0.00000000000E+00 -0.57718582820E+03  0.73043560956E+03  0.44765243151E+03 0.  0.
      99925    2    3    3    0    0 -0.92151427258E+02 -0.27214311414E+02 -0.43916415089E+03  0.52084077232E+03  0.26301607249E+03 0.  0.
         25    1    4    4    0    0 -0.53940421852E+01 -0.17431644069E+02 -0.17664295603E+03  0.21721694207E+03  0.12509000000E+03 0.  0.
         25    1    4    4    0    0 -0.86757385073E+02 -0.97826673453E+01 -0.26252119486E+03  0.30362383025E+03  0.12509000000E+03 0.  0.
         25    1    3    3    0    0  0.92151427258E+02  0.27214311414E+02 -0.13802167731E+03  0.20959483724E+03  0.12509000000E+03 0.  0.
<mgrwt>
<rscale>  2 0.44765243E+03</rscale>
<asrwt>0</asrwt>
<pdfrwt beam="1">  1       21 0.11268366E-01 0.44765243E+03</pdfrwt>
<pdfrwt beam="2">  1       21 0.96148635E-01 0.44765243E+03</pdfrwt>
<totfact> 0.54354489E+04</totfact>
</mgrwt>
</event>
<event>
 7    0  0.4685107E-002  0.4552866E+03  0.7546771E-02  0.1026157E+00
         21   -1    0    0  502  501  0.00000000000E+00  0.00000000000E+00  0.60639176017E+03  0.60639176017E+03  0.00000000000E+00 0. -1.
         21   -1    0    0  501  502 -0.00000000000E+00 -0.00000000000E+00 -0.85458733986E+02  0.85458733986E+02  0.00000000000E+00 0. -1.
      99926    2    1    2    0    0  0.71054273576E-14  0.14210854715E-13  0.52093302618E+03  0.69185049415E+03  0.45528660039E+03 0.  0.
      99925    2    3    3    0    0  0.39631646020E+02  0.10226846804E+03  0.37211830454E+03  0.46864019780E+03  0.26291081281E+03 0.  0.
         25    1    4    4    0    0  0.52336411469E+02  0.26875915844E+02  0.17711493842E+03  0.22467448527E+03  0.12509000000E+03 0.  0.
         25    1    3    3    0    0 -0.39631646020E+02 -0.10226846804E+03  0.14881472164E+03  0.22321029636E+03  0.12509000000E+03 0.  0.
         25    1    4    4    0    0 -0.12704765450E+02  0.75392552201E+02  0.19500336612E+03  0.24396571253E+03  0.12509000000E+03 0.  0.
<mgrwt>
<rscale>  2 0.45528660E+03</rscale>
<asrwt>0</asrwt>
<pdfrwt beam="1">  1       21 0.89175257E-01 0.45528660E+03</pdfrwt>
<pdfrwt beam="2">  1       21 0.12567461E-01 0.45528660E+03</pdfrwt>
<totfact> 0.53227549E+04</totfact>
</mgrwt>
</event>
<event>
 7    0  0.4685107E-002  0.4495775E+03  0.7546771E-02  0.1027848E+00
         21   -1    0    0  502  501  0.00000000000E+00  0.00000000000E+00  0.44489107481E+03  0.44489107481E+03  0.00000000000E+00 0.  1.
         21   -1    0    0  501  502 -0.00000000000E+00 -0.00000000000E+00 -0.11357833574E+03  0.11357833574E+03  0.00000000000E+00 0.  1.
      99926    2    1    2    0    0  0.00000000000E+00  0.00000000000E+00  0.33131273907E+03  0.55846941055E+03  0.44957752552E+03 0.  0.
      99925    2    3    3    0    0  0.76389912280E+02 -0.72798938945E+02  0.23883302374E+03  0.37049305550E+03  0.26284745907E+03 0.  0.
         25    1    4    4    0    0  0.61020334673E+02 -0.13681696467E+02  0.15139440479E+03  0.20610299358E+03  0.12509000000E+03 0.  0.
         25    1    3    3    0    0 -0.76389912280E+02  0.72798938945E+02  0.92479715329E+02  0.18797635505E+03  0.12509000000E+03 0.  0.
         25    1    4    4    0    0  0.15369577606E+02 -0.59117242478E+02  0.87438618948E+02  0.16439006192E+03  0.12509000000E+03 0.  0.
<mgrwt>
<rscale>  2 0.44957753E+03</rscale>
<asrwt>0</asrwt>
<pdfrwt beam="1">  1       21 0.65425158E-01 0.44957753E+03</pdfrwt>
<pdfrwt beam="2">  1       21 0.16702697E-01 0.44957753E+03</pdfrwt>
<totfact> 0.64012055E+04</totfact>
</mgrwt>
</event>
<event>
 7    0  0.4685107E-002  0.4470582E+03  0.7546771E-02  0.1028603E+00
         21   -1    0    0  502  501  0.00000000000E+00  0.00000000000E+00  0.14022087122E+04  0.14022087122E+04  0.00000000000E+00 0.  1.
         21   -1    0    0  501  502 -0.00000000000E+00 -0.00000000000E+00 -0.35633260938E+02  0.35633260938E+02  0.00000000000E+00 0.  1.
      99926    2    1    2    0    0  0.00000000000E+00  0.00000000000E+00  0.13665754513E+04  0.14378419732E+04  0.44705824646E+03 0.  0.
      99925    2    3    3    0    0 -0.61454448100E+02 -0.85788705316E+02  0.87539779979E+03  0.92011680999E+03  0.26297772720E+03 0.  0.
         25    1    4    4    0    0 -0.25553541610E+01 -0.97013266487E+01  0.37888552844E+03  0.39912704411E+03  0.12509000000E+03 0.  0.
         25    1    3    3    0    0  0.61454448100E+02  0.85788705316E+02  0.49117765150E+03  0.51772516317E+03  0.12509000000E+03 0.  0.
         25    1    4    4    0    0 -0.58899093939E+02 -0.76087378667E+02  0.49651227135E+03  0.52098976588E+03  0.12509000000E+03 0.  0.
<mgrwt>
<rscale>  2 0.44705825E+03</rscale>
<asrwt>0</asrwt>
<pdfrwt beam="1">  1       21 0.20620713E+00 0.44705825E+03</pdfrwt>
<pdfrwt beam="2">  1       21 0.52401864E-02 0.44705825E+03</pdfrwt>
<totfact> 0.26966898E+04</totfact>
</mgrwt>
</event>
<event>
 7    0  0.4685107E-002  0.4423062E+03  0.7546771E-02  0.1030042E+00
         21   -1    0    0  502  501  0.00000000000E+00  0.00000000000E+00  0.42682865176E+03  0.42682865176E+03  0.00000000000E+00 0. -1.
         21   -1    0    0  501  502 -0.00000000000E+00 -0.00000000000E+00 -0.11458625476E+03  0.11458625476E+03  0.00000000000E+00 0. -1.
      99926    2    1    2    0    0  0.14210854715E-13 -0.17763568394E-14  0.31224239700E+03  0.54141490653E+03  0.44230621352E+03 0.  0.
      99925    2    3    3    0    0  0.96435803456E+02 -0.11443213286E+02  0.23171424092E+03  0.36375482845E+03  0.26304994670E+03 0.  0.
         25    1    3    3    0    0 -0.96435803456E+02  0.11443213286E+02  0.80528156080E+02  0.17766007807E+03  0.12509000000E+03 0.  0.
         25    1    4    4    0    0  0.36107476160E+02 -0.44520089660E+02  0.11689889985E+03  0.18055095985E+03  0.12509000000E+03 0.  0.
         25    1    4    4    0    0  0.60328327296E+02  0.33076876373E+02  0.11481534107E+03  0.18320386860E+03  0.12509000000E+03 0.  0.
<mgrwt>
<rscale>  2 0.44230621E+03</rscale>
<asrwt>0</asrwt>
<pdfrwt beam="1">  1       21 0.62768919E-01 0.44230621E+03</pdfrwt>
<pdfrwt beam="2">  1       21 0.16850920E-01 0.44230621E+03</pdfrwt>
<totfact> 0.69123746E+04</totfact>
</mgrwt>
</event>
<event>
 7    0  0.4685107E-002  0.4517972E+03  0.7546771E-02  0.1027187E+00
         21   -1    0    0  502  501  0.00000000000E+00  0.00000000000E+00  0.19872871224E+04  0.19872871224E+04  0.00000000000E+00 0. -1.
         21   -1    0    0  501  502 -0.00000000000E+00 -0.00000000000E+00 -0.25678310370E+02  0.25678310370E+02  0.00000000000E+00 0. -1.
      99926    2    1    2    0    0  0.35527136788E-14  0.71054273576E-14  0.19616088120E+04  0.20129654328E+04  0.45179719133E+03 0.  0.
      99925    2    3    3    0    0 -0.29038671855E+02 -0.63609713071E+02  0.16155468767E+04  0.16384046083E+04  0.26360673275E+03 0.  0.
         25    1    3    3    0    0  0.29038671855E+02  0.63609713071E+02  0.34606193533E+03  0.37456082449E+03  0.12509000000E+03 0.  0.
         25    1    4    4    0    0 -0.15436758886E+02  0.84071122356E+01  0.66935097752E+03  0.68116606805E+03  0.12509000000E+03 0.  0.
         25    1    4    4    0    0 -0.13601912969E+02 -0.72016825307E+02  0.94619589918E+03  0.95723854022E+03  0.12509000000E+03 0.  0.
<mgrwt>
<rscale>  2 0.45179719E+03</rscale>
<asrwt>0</asrwt>
<pdfrwt beam="1">  1       21 0.29224800E+00 0.45179719E+03</pdfrwt>
<pdfrwt beam="2">  1       21 0.37762235E-02 0.45179719E+03</pdfrwt>
<totfact> 0.13840019E+04</totfact>
</mgrwt>
</event>
<event>
 7    0  0.4685107E-002  0.4533920E+03  0.7546771E-02  0.1026715E+00
         21   -1    0    0  502  501  0.00000000000E+00  0.00000000000E+00  0.33144833910E+02  0.33144833910E+02  0.00000000000E+00 0. -1.
         21   -1    0    0  501  502 -0.00000000000E+00 -0.00000000000E+00 -0.15505006818E+04  0.15505006818E+04  0.00000000000E+00 0. -1.
      99926    2    1    2    0    0  0.00000000000E+00  0.14210854715E-13 -0.15173558479E+04  0.15836455157E+04  0.45339204922E+03 0.  0.
      99925    2    3    3    0    0 -0.40564881468E+02 -0.89100820426E+02 -0.11435907395E+04  0.11775268999E+04  0.26303109047E+03 0.  0.
         25    1    3    3    0    0  0.40564881468E+02  0.89100820426E+02 -0.37376510834E+03  0.40611861583E+03  0.12509000000E+03 0.  0.
         25    1    4    4    0    0 -0.60296915752E+02 -0.37033463066E+02 -0.59254119269E+03  0.60972105800E+03  0.12509000000E+03 0.  0.
         25    1    4    4    0    0  0.19732034283E+02 -0.52067357359E+02 -0.55104954684E+03  0.56780584186E+03  0.12509000000E+03 0.  0.
<mgrwt>
<rscale>  2 0.45339205E+03</rscale>
<asrwt>0</asrwt>
<pdfrwt beam="1">  1       21 0.48742425E-02 0.45339205E+03</pdfrwt>
<pdfrwt beam="2">  1       21 0.22801470E+00 0.45339205E+03</pdfrwt>
<totfact> 0.22075871E+04</totfact>
</mgrwt>
</event>
<event>
 7    0  0.4685107E-002  0.4633564E+03  0.7546771E-02  0.1023812E+00
         21   -1    0    0  502  501  0.00000000000E+00  0.00000000000E+00  0.21247117675E+04  0.21247117675E+04  0.00000000000E+00 0.  1.
         21   -1    0    0  501  502 -0.00000000000E+00 -0.00000000000E+00 -0.25262152012E+02  0.25262152012E+02  0.00000000000E+00 0.  1.
      99926    2    1    2    0    0  0.14210854715E-13  0.00000000000E+00  0.20994496155E+04  0.21499739195E+04  0.46335641423E+03 0.  0.
      99925    2    3    3    0    0  0.93483156354E+02 -0.48995152637E+02  0.15844187474E+04  0.16095630308E+04  0.26300334096E+03 0.  0.
         25    1    3    3    0    0 -0.93483156354E+02  0.48995152637E+02  0.51503086807E+03  0.54041088874E+03  0.12509000000E+03 0.  0.
         25    1    4    4    0    0  0.83584010033E+02 -0.39808541752E+02  0.78120991259E+03  0.79655975442E+03  0.12509000000E+03 0.  0.
         25    1    4    4    0    0  0.98991463211E+01 -0.91866108858E+01  0.80320883482E+03  0.81300327635E+03  0.12509000000E+03 0.  0.
<mgrwt>
<rscale>  2 0.46335641E+03</rscale>
<asrwt>0</asrwt>
<pdfrwt beam="1">  1       21 0.31245749E+00 0.46335641E+03</pdfrwt>
<pdfrwt beam="2">  1       21 0.37150238E-02 0.46335641E+03</pdfrwt>
<totfact> 0.10700753E+04</totfact>
</mgrwt>
</event>
<event>
 7    0  0.4685107E-002  0.4505152E+03  0.7546771E-02  0.1027569E+00
         21   -1    0    0  502  501  0.00000000000E+00  0.00000000000E+00  0.11371098300E+03  0.11371098300E+03  0.00000000000E+00 0.  1.
         21   -1    0    0  501  502 -0.00000000000E+00 -0.00000000000E+00 -0.44622761917E+03  0.44622761917E+03  0.00000000000E+00 0.  1.
      99926    2    1    2    0    0 -0.17763568394E-14  0.00000000000E+00 -0.33251663616E+03  0.55993860217E+03  0.45051517718E+03 0.  0.
      99925    2    3    3    0    0 -0.10856074078E+02 -0.39086021097E+02 -0.33571239054E+03  0.42839662280E+03  0.26301195007E+03 0.  0.
         25    1    4    4    0    0 -0.23084579211E+02 -0.32275717748E+02 -0.11584627621E+03  0.17504995734E+03  0.12509000000E+03 0.  0.
         25    1    4    4    0    0  0.12228505133E+02 -0.68103033487E+01 -0.21986611433E+03  0.25334666546E+03  0.12509000000E+03 0.  0.
         25    1    3    3    0    0  0.10856074078E+02  0.39086021097E+02  0.31957543746E+01  0.13154197937E+03  0.12509000000E+03 0.  0.
<mgrwt>
<rscale>  2 0.45051518E+03</rscale>
<asrwt>0</asrwt>
<pdfrwt beam="1">  1       21 0.16722203E-01 0.45051518E+03</pdfrwt>
<pdfrwt beam="2">  1       21 0.65621709E-01 0.45051518E+03</pdfrwt>
<totfact> 0.63435032E+04</totfact>
</mgrwt>
</event>
<event>
 7    0  0.4685107E-002  0.4560752E+03  0.7546771E-02  0.1025926E+00
         21   -1    0    0  502  501  0.00000000000E+00  0.00000000000E+00  0.52139007131E+03  0.52139007131E+03  0.00000000000E+00 0.  1.
         21   -1    0    0  501  502 -0.00000000000E+00 -0.00000000000E+00 -0.99735592168E+02  0.99735592168E+02  0.00000000000E+00 0.  1.
      99926    2    1    2    0    0  0.00000000000E+00  0.00000000000E+00  0.42165447914E+03  0.62112566348E+03  0.45607520219E+03 0.  0.
      99925    2    3    3    0    0 -0.37662430179E+02 -0.94031594978E+02  0.33677283560E+03  0.43915643253E+03  0.26302477057E+03 0.  0.
         25    1    3    3    0    0  0.37662430179E+02  0.94031594978E+02  0.84881643543E+02  0.18196923095E+03  0.12509000000E+03 0.  0.
         25    1    4    4    0    0 -0.12466442739E+02 -0.28849420590E+02  0.21684917513E+03  0.25230690462E+03  0.12509000000E+03 0.  0.
         25    1    4    4    0    0 -0.25195987439E+02 -0.65182174389E+02  0.11992366047E+03  0.18684952791E+03  0.12509000000E+03 0.  0.
<mgrwt>
<rscale>  2 0.45607520E+03</rscale>
<asrwt>0</asrwt>
<pdfrwt beam="1">  1       21 0.76675009E-01 0.45607520E+03</pdfrwt>
<pdfrwt beam="2">  1       21 0.14666999E-01 0.45607520E+03</pdfrwt>
<totfact> 0.56911685E+04</totfact>
</mgrwt>
</event>
<event>
 7    0  0.4685107E-002  0.4456624E+03  0.7546771E-02  0.1029024E+00
         21   -1    0    0  502  501  0.00000000000E+00  0.00000000000E+00  0.17510454149E+03  0.17510454149E+03  0.00000000000E+00 0. -1.
         21   -1    0    0  501  502 -0.00000000000E+00 -0.00000000000E+00 -0.28356623170E+03  0.28356623170E+03  0.00000000000E+00 0. -1.
      99926    2    1    2    0    0  0.00000000000E+00  0.00000000000E+00 -0.10846169021E+03  0.45867077319E+03  0.44566236091E+03 0.  0.
      99925    2    3    3    0    0 -0.42462817523E+02  0.52401817106E+02  0.12755562800E+02  0.27188166260E+03  0.26307393023E+03 0.  0.
         25    1    4    4    0    0 -0.29917124366E+02  0.45274127696E+02  0.41875670189E+02  0.14263891763E+03  0.12509000000E+03 0.  0.
         25    1    3    3    0    0  0.42462817523E+02 -0.52401817106E+02 -0.12121725301E+03  0.18678911059E+03  0.12509000000E+03 0.  0.
         25    1    4    4    0    0 -0.12545693156E+02  0.71276894101E+01 -0.29120107389E+02  0.12924274497E+03  0.12509000000E+03 0.  0.
<mgrwt>
<rscale>  2 0.44566236E+03</rscale>
<asrwt>0</asrwt>
<pdfrwt beam="1">  1       21 0.25750668E-01 0.44566236E+03</pdfrwt>
<pdfrwt beam="2">  1       21 0.41700917E-01 0.44566236E+03</pdfrwt>
<totfact> 0.73589168E+04</totfact>
</mgrwt>
</event>
<event>
 7    0  0.4685107E-002  0.4553355E+03  0.7546771E-02  0.1026143E+00
         21   -1    0    0  502  501  0.00000000000E+00  0.00000000000E+00  0.10933840250E+04  0.10933840250E+04  0.00000000000E+00 0.  1.
         21   -1    0    0  501  502 -0.00000000000E+00 -0.00000000000E+00 -0.47405667414E+02  0.47405667414E+02  0.00000000000E+00 0.  1.
      99926    2    1    2    0    0 -0.35527136788E-14  0.00000000000E+00  0.10459783576E+04  0.11407896924E+04  0.45533547828E+03 0.  0.
      99925    2    3    3    0    0 -0.27958891117E+02  0.96974686910E+02  0.52866258204E+03  0.59908044455E+03  0.26311112462E+03 0.  0.
         25    1    4    4    0    0 -0.48023104985E+02  0.71302447105E+02  0.26351499214E+03  0.30410181972E+03  0.12509000000E+03 0.  0.
         25    1    4    4    0    0  0.20064213868E+02  0.25672239805E+02  0.26514758990E+03  0.29497862483E+03  0.12509000000E+03 0.  0.
         25    1    3    3    0    0  0.27958891117E+02 -0.96974686910E+02  0.51731577554E+03  0.54170924786E+03  0.12509000000E+03 0.  0.
<mgrwt>
<rscale>  2 0.45533548E+03</rscale>
<asrwt>0</asrwt>
<pdfrwt beam="1">  1       21 0.16079175E+00 0.45533548E+03</pdfrwt>
<pdfrwt beam="2">  1       21 0.69714224E-02 0.45533548E+03</pdfrwt>
<totfact> 0.34002377E+04</totfact>
</mgrwt>
</event>
<event>
 7    0  0.4685107E-002  0.4538286E+03  0.7546771E-02  0.1026586E+00
         21   -1    0    0  502  501  0.00000000000E+00  0.00000000000E+00  0.25880782187E+03  0.25880782187E+03  0.00000000000E+00 0.  1.
         21   -1    0    0  501  502 -0.00000000000E+00 -0.00000000000E+00 -0.19895113442E+03  0.19895113442E+03  0.00000000000E+00 0.  1.
      99926    2    1    2    0    0  0.00000000000E+00  0.00000000000E+00  0.59856687444E+02  0.45775895629E+03  0.45382864501E+03 0.  0.
      99925    2    3    3    0    0 -0.24896789012E+02 -0.28287008690E+01 -0.72259972746E+02  0.27410119944E+03  0.26321495440E+03 0.  0.
         25    1    4    4    0    0  0.28553507449E+02  0.88524440503E+00 -0.33727560173E+02  0.13266929886E+03  0.12509000000E+03 0.  0.
         25    1    4    4    0    0 -0.53450296461E+02 -0.37139452740E+01 -0.38532412573E+02  0.14143190057E+03  0.12509000000E+03 0.  0.
         25    1    3    3    0    0  0.24896789012E+02  0.28287008690E+01  0.13211666019E+03  0.18365775685E+03  0.12509000000E+03 0.  0.
<mgrwt>
<rscale>  2 0.45382865E+03</rscale>
<asrwt>0</asrwt>
<pdfrwt beam="1">  1       21 0.38059974E-01 0.45382865E+03</pdfrwt>
<pdfrwt beam="2">  1       21 0.29257520E-01 0.45382865E+03</pdfrwt>
<totfact> 0.68986368E+04</totfact>
</mgrwt>
</event>
<event>
 7    0  0.4685107E-002  0.4544936E+03  0.7546771E-02  0.1026390E+00
         21   -1    0    0  502  501  0.00000000000E+00  0.00000000000E+00  0.52904363015E+03  0.52904363015E+03  0.00000000000E+00 0.  1.
         21   -1    0    0  501  502 -0.00000000000E+00 -0.00000000000E+00 -0.97612208079E+02  0.97612208079E+02  0.00000000000E+00 0.  1.
      99926    2    1    2    0    0  0.00000000000E+00  0.00000000000E+00  0.43143142207E+03  0.62665583823E+03  0.45449363872E+03 0.  0.
      99925    2    3    3    0    0 -0.48183647388E+02 -0.79571181532E+02  0.18382115854E+03  0.33406125948E+03  0.26297047354E+03 0.  0.
         25    1    3    3    0    0  0.48183647388E+02  0.79571181532E+02  0.24761026353E+03  0.29259457875E+03  0.12509000000E+03 0.  0.
         25    1    4    4    0    0 -0.24241732184E+02 -0.64634033924E+02  0.13584718102E+03  0.19714762137E+03  0.12509000000E+03 0.  0.
         25    1    4    4    0    0 -0.23941915204E+02 -0.14937147608E+02  0.47973977520E+02  0.13691363811E+03  0.12509000000E+03 0.  0.
<mgrwt>
<rscale>  2 0.45449364E+03</rscale>
<asrwt>0</asrwt>
<pdfrwt beam="1">  1       21 0.77800532E-01 0.45449364E+03</pdfrwt>
<pdfrwt beam="2">  1       21 0.14354737E-01 0.45449364E+03</pdfrwt>
<totfact> 0.57295515E+04</totfact>
</mgrwt>
</event>
<event>
 7    0  0.4685107E-002  0.4538714E+03  0.7546771E-02  0.1026574E+00
         21   -1    0    0  502  501  0.00000000000E+00  0.00000000000E+00  0.21761402395E+03  0.21761402395E+03  0.00000000000E+00 0. -1.
         21   -1    0    0  501  502 -0.00000000000E+00 -0.00000000000E+00 -0.23665663189E+03  0.23665663189E+03  0.00000000000E+00 0. -1.
      99926    2    1    2    0    0  0.35527136788E-14  0.71054273576E-14 -0.19042607938E+02  0.45427065584E+03  0.45387135605E+03 0.  0.
      99925    2    3    3    0    0 -0.17399090517E+02  0.46908112357E+02 -0.11264305792E+03  0.29022294421E+03  0.26275045098E+03 0.  0.
         25    1    4    4    0    0 -0.23825104940E+02 -0.13017929220E+02 -0.63882621974E+02  0.14305802877E+03  0.12509000000E+03 0.  0.
         25    1    4    4    0    0  0.64260144235E+01  0.59926041577E+02 -0.48760435946E+02  0.14716491543E+03  0.12509000000E+03 0.  0.
         25    1    3    3    0    0  0.17399090517E+02 -0.46908112357E+02  0.93600449982E+02  0.16404771163E+03  0.12509000000E+03 0.  0.
<mgrwt>
<rscale>  2 0.45387136E+03</rscale>
<asrwt>0</asrwt>
<pdfrwt beam="1">  1       21 0.32002063E-01 0.45387136E+03</pdfrwt>
<pdfrwt beam="2">  1       21 0.34802446E-01 0.45387136E+03</pdfrwt>
<totfact> 0.69220533E+04</totfact>
</mgrwt>
</event>
<event>
 7    0  0.4685107E-002  0.4531124E+03  0.7546771E-02  0.1026798E+00
         21   -1    0    0  502  501  0.00000000000E+00  0.00000000000E+00  0.34049190264E+03  0.34049190264E+03  0.00000000000E+00 0.  1.
         21   -1    0    0  501  502 -0.00000000000E+00 -0.00000000000E+00 -0.15074576760E+03  0.15074576760E+03  0.00000000000E+00 0.  1.
      99926    2    1    2    0    0  0.00000000000E+00  0.00000000000E+00  0.18974613504E+03  0.49123767023E+03  0.45311240647E+03 0.  0.
      99925    2    3    3    0    0  0.44189342642E+02 -0.95654402283E+02  0.80515572360E+02  0.29456208303E+03  0.26302395459E+03 0.  0.
         25    1    3    3    0    0 -0.44189342642E+02  0.95654402283E+02  0.10923056268E+03  0.19667558721E+03  0.12509000000E+03 0.  0.
         25    1    4    4    0    0  0.44620408433E+02 -0.46852887157E+02  0.59133895699E+01  0.14095619944E+03  0.12509000000E+03 0.  0.
         25    1    4    4    0    0 -0.43106579118E+00 -0.48801515126E+02  0.74602182790E+02  0.15360588359E+03  0.12509000000E+03 0.  0.
<mgrwt>
<rscale>  2 0.45311241E+03</rscale>
<asrwt>0</asrwt>
<pdfrwt beam="1">  1       21 0.50072338E-01 0.45311241E+03</pdfrwt>
<pdfrwt beam="2">  1       21 0.22168495E-01 0.45311241E+03</pdfrwt>
<totfact> 0.66887429E+04</totfact>
</mgrwt>
</event>
<event>
 7    0  0.4685107E-002  0.4406924E+03  0.7546771E-02  0.1030535E+00
         21   -1    0    0  502  501  0.00000000000E+00  0.00000000000E+00  0.37518613146E+03  0.37518613146E+03  0.00000000000E+00 0. -1.
         21   -1    0    0  501  502 -0.00000000000E+00 -0.00000000000E+00 -0.12940894075E+03  0.12940894075E+03  0.00000000000E+00 0. -1.
      99926    2    1    2    0    0  0.00000000000E+00  0.00000000000E+00  0.24577719071E+03  0.50459507221E+03  0.44069236371E+03 0.  0.
      99925    2    3    3    0    0  0.88515373923E+02 -0.21383365070E+02  0.11157376167E+03  0.29977737721E+03  0.26291738602E+03 0.  0.
         25    1    3    3    0    0 -0.88515373923E+02  0.21383365070E+02  0.13420342904E+03  0.20481769501E+03  0.12509000000E+03 0.  0.
         25    1    4    4    0    0  0.84190365633E+02 -0.55638858502E+01  0.74541107240E+02  0.16829396680E+03  0.12509000000E+03 0.  0.
         25    1    4    4    0    0  0.43250082899E+01 -0.15819479220E+02  0.37032654430E+02  0.13148341041E+03  0.12509000000E+03 0.  0.
<mgrwt>
<rscale>  2 0.44069236E+03</rscale>
<asrwt>0</asrwt>
<pdfrwt beam="1">  1       21 0.55174431E-01 0.44069236E+03</pdfrwt>
<pdfrwt beam="2">  1       21 0.19030727E-01 0.44069236E+03</pdfrwt>
<totfact> 0.72878695E+04</totfact>
</mgrwt>
</event>
<event>
 7    0  0.4685107E-002  0.4534477E+03  0.7546771E-02  0.1026699E+00
         21   -1    0    0  502  501  0.00000000000E+00  0.00000000000E+00  0.20612345421E+03  0.20612345421E+03  0.00000000000E+00 0.  1.
         21   -1    0    0  501  502 -0.00000000000E+00 -0.00000000000E+00 -0.24938309780E+03  0.24938309780E+03  0.00000000000E+00 0.  1.
      99926    2    1    2    0    0  0.00000000000E+00  0.00000000000E+00 -0.43259643592E+02  0.45550655201E+03  0.45344770609E+03 0.  0.
      99925    2    3    3    0    0 -0.34907177217E+02  0.41031969994E+02 -0.12549162468E+03  0.29640991346E+03  0.26307518954E+03 0.  0.
         25    1    4    4    0    0 -0.39300523863E+02 -0.89248993468E+01 -0.42432149316E+02  0.13810206515E+03  0.12509000000E+03 0.  0.
         25    1    3    3    0    0  0.34907177217E+02 -0.41031969994E+02  0.82231981084E+02  0.15909663854E+03  0.12509000000E+03 0.  0.
         25    1    4    4    0    0  0.43933466459E+01  0.49956869341E+02 -0.83059475360E+02  0.15830784831E+03  0.12509000000E+03 0.  0.
<mgrwt>
<rscale>  2 0.45344771E+03</rscale>
<asrwt>0</asrwt>
<pdfrwt beam="1">  1       21 0.30312273E-01 0.45344771E+03</pdfrwt>
<pdfrwt beam="2">  1       21 0.36673985E-01 0.45344771E+03</pdfrwt>
<totfact> 0.69363811E+04</totfact>
</mgrwt>
</event>
<event>
 7    0  0.4685107E-002  0.4493609E+03  0.7546771E-02  0.1027913E+00
         21   -1    0    0  502  501  0.00000000000E+00  0.00000000000E+00  0.69235702968E+02  0.69235702968E+02  0.00000000000E+00 0.  1.
         21   -1    0    0  501  502 -0.00000000000E+00 -0.00000000000E+00 -0.72912239867E+03  0.72912239867E+03  0.00000000000E+00 0.  1.
      99926    2    1    2    0    0  0.35527136788E-14 -0.14210854715E-13 -0.65988669570E+03  0.79835810164E+03  0.44936088758E+03 0.  0.
      99925    2    3    3    0    0  0.22178678200E+02 -0.84500979795E+02 -0.30424813993E+03  0.41137153882E+03  0.26273047586E+03 0.  0.
         25    1    4    4    0    0 -0.63006622946E+01 -0.19178358647E+02 -0.18606375922E+03  0.22511050260E+03  0.12509000000E+03 0.  0.
         25    1    3    3    0    0 -0.22178678200E+02  0.84500979795E+02 -0.35563855577E+03  0.38698656282E+03  0.12509000000E+03 0.  0.
         25    1    4    4    0    0  0.28479340495E+02 -0.65322621149E+02 -0.11818438071E+03  0.18626103622E+03  0.12509000000E+03 0.  0.
<mgrwt>
<rscale>  2 0.44936089E+03</rscale>
<asrwt>0</asrwt>
<pdfrwt beam="1">  1       21 0.10181721E-01 0.44936089E+03</pdfrwt>
<pdfrwt beam="2">  1       21 0.10722388E+00 0.44936089E+03</pdfrwt>
<totfact> 0.50021590E+04</totfact>
</mgrwt>
</event>
<event>
 7    0  0.4685107E-002  0.4559489E+03  0.7546771E-02  0.1025963E+00
         21   -1    0    0  502  501  0.00000000000E+00  0.00000000000E+00  0.10161095160E+03  0.10161095160E+03  0.00000000000E+00 0.  1.
         21   -1    0    0  501  502 -0.00000000000E+00 -0.00000000000E+00 -0.51148379594E+03  0.51148379594E+03  0.00000000000E+00 0.  1.
      99926    2    1    2    0    0  0.00000000000E+00 -0.14210854715E-13 -0.40987284434E+03  0.61309474754E+03  0.45594892360E+03 0.  0.
      99925    2    3    3    0    0 -0.14938796058E+01 -0.11313997920E+03 -0.23949712048E+03  0.37334846091E+03  0.26311084352E+03 0.  0.
         25    1    4    4    0    0 -0.46161318676E+00 -0.96337504990E+02 -0.15636628290E+03  0.22221397454E+03  0.12509000000E+03 0.  0.
         25    1    3    3    0    0  0.14938796058E+01  0.11313997920E+03 -0.17037572386E+03  0.23974628662E+03  0.12509000000E+03 0.  0.
         25    1    4    4    0    0 -0.10322664190E+01 -0.16802474212E+02 -0.83130837585E+02  0.15113448637E+03  0.12509000000E+03 0.  0.
<mgrwt>
<rscale>  2 0.45594892E+03</rscale>
<asrwt>0</asrwt>
<pdfrwt beam="1">  1       21 0.14942787E-01 0.45594892E+03</pdfrwt>
<pdfrwt beam="2">  1       21 0.75218204E-01 0.45594892E+03</pdfrwt>
<totfact> 0.57447636E+04</totfact>
</mgrwt>
</event>
<event>
 7    0  0.4685107E-002  0.4548517E+03  0.7546771E-02  0.1026285E+00
         21   -1    0    0  502  501  0.00000000000E+00  0.00000000000E+00  0.15768776820E+04  0.15768776820E+04  0.00000000000E+00 0.  1.
         21   -1    0    0  501  502 -0.00000000000E+00 -0.00000000000E+00 -0.32800593331E+02  0.32800593331E+02  0.00000000000E+00 0.  1.
      99926    2    1    2    0    0 -0.14210854715E-13  0.00000000000E+00  0.15440770887E+04  0.16096782753E+04  0.45485172784E+03 0.  0.
      99925    2    3    3    0    0  0.97376344341E+02 -0.50498989238E+02  0.87651068525E+03  0.92169229333E+03  0.26308440068E+03 0.  0.
         25    1    4    4    0    0  0.55238869667E+02  0.56910372446E+01  0.34482272446E+03  0.37099048509E+03  0.12509000000E+03 0.  0.
         25    1    3    3    0    0 -0.97376344341E+02  0.50498989238E+02  0.66756640343E+03  0.68798598201E+03  0.12509000000E+03 0.  0.
         25    1    4    4    0    0  0.42137474674E+02 -0.56190026483E+02  0.53168796079E+03  0.55070180824E+03  0.12509000000E+03 0.  0.
<mgrwt>
<rscale>  2 0.45485173E+03</rscale>
<asrwt>0</asrwt>
<pdfrwt beam="1">  1       21 0.23189373E+00 0.45485173E+03</pdfrwt>
<pdfrwt beam="2">  1       21 0.48236177E-02 0.45485173E+03</pdfrwt>
<totfact> 0.21236409E+04</totfact>
</mgrwt>
</event>
<event>
 7    0  0.4685107E-002  0.4555153E+03  0.7546771E-02  0.1026090E+00
         21   -1    0    0  502  501  0.00000000000E+00  0.00000000000E+00  0.16047507896E+03  0.16047507896E+03  0.00000000000E+00 0.  1.
         21   -1    0    0  501  502 -0.00000000000E+00 -0.00000000000E+00 -0.32324986274E+03  0.32324986274E+03  0.00000000000E+00 0.  1.
      99926    2    1    2    0    0  0.14210854715E-13  0.00000000000E+00 -0.16277478378E+03  0.48372494170E+03  0.45551530050E+03 0.  0.
      99925    2    3    3    0    0 -0.97008487960E+02 -0.38615295098E+02 -0.54648041551E+02  0.28817267699E+03  0.26297394465E+03 0.  0.
         25    1    4    4    0    0 -0.44086549053E+02 -0.39022022685E+02  0.82340245351E+01  0.13849783147E+03  0.12509000000E+03 0.  0.
         25    1    3    3    0    0  0.97008487960E+02  0.38615295098E+02 -0.10812674222E+03  0.19555226472E+03  0.12509000000E+03 0.  0.
         25    1    4    4    0    0 -0.52921938907E+02  0.40672758726E+00 -0.62882066086E+02  0.14967484552E+03  0.12509000000E+03 0.  0.
<mgrwt>
<rscale>  2 0.45551530E+03</rscale>
<asrwt>0</asrwt>
<pdfrwt beam="1">  1       21 0.23599276E-01 0.45551530E+03</pdfrwt>
<pdfrwt beam="2">  1       21 0.47536745E-01 0.45551530E+03</pdfrwt>
<totfact> 0.66158899E+04</totfact>
</mgrwt>
</event>
<event>
 7    0  0.4685107E-002  0.4531884E+03  0.7546771E-02  0.1026775E+00
         21   -1    0    0  502  501  0.00000000000E+00  0.00000000000E+00  0.44745199407E+02  0.44745199407E+02  0.00000000000E+00 0.  1.
         21   -1    0    0  501  502 -0.00000000000E+00 -0.00000000000E+00 -0.11474957111E+04  0.11474957111E+04  0.00000000000E+00 0.  1.
      99926    2    1    2    0    0 -0.35527136788E-14  0.14210854715E-13 -0.11027505117E+04  0.11922409106E+04  0.45318836884E+03 0.  0.
      99925    2    3    3    0    0  0.17769873923E+02 -0.85884393172E+02 -0.51287233077E+03  0.58290055090E+03  0.26276058907E+03 0.  0.
         25    1    4    4    0    0  0.43916352929E+02 -0.36726136181E+02 -0.29625677236E+03  0.32663900319E+03  0.12509000000E+03 0.  0.
         25    1    3    3    0    0 -0.17769873923E+02  0.85884393172E+02 -0.58987818097E+03  0.60934035965E+03  0.12509000000E+03 0.  0.
         25    1    4    4    0    0 -0.26146479006E+02 -0.49158256991E+02 -0.21661555840E+03  0.25626154771E+03  0.12509000000E+03 0.  0.
<mgrwt>
<rscale>  2 0.45318837E+03</rscale>
<asrwt>0</asrwt>
<pdfrwt beam="1">  1       21 0.65801772E-02 0.45318837E+03</pdfrwt>
<pdfrwt beam="2">  1       21 0.16874935E+00 0.45318837E+03</pdfrwt>
<totfact> 0.32864222E+04</totfact>
</mgrwt>
</event>
<event>
 7    0  0.4685107E-002  0.4541079E+03  0.7546771E-02  0.1026504E+00
         21   -1    0    0  502  501  0.00000000000E+00  0.00000000000E+00  0.27900324268E+03  0.27900324268E+03  0.00000000000E+00 0.  1.
         21   -1    0    0  501  502 -0.00000000000E+00 -0.00000000000E+00 -0.18477742766E+03  0.18477742766E+03  0.00000000000E+00 0.  1.
      99926    2    1    2    0    0  0.00000000000E+00  0.00000000000E+00  0.94225815016E+02  0.46378067034E+03  0.45410792326E+03 0.  0.
      99925    2    3    3    0    0 -0.41011577454E+02  0.10098004018E+03  0.85569849542E+02  0.29764412457E+03  0.26342154001E+03 0.  0.
         25    1    4    4    0    0 -0.39346961577E+02  0.64283157813E+02  0.81423553915E+02  0.16720589402E+03  0.12509000000E+03 0.  0.
         25    1    3    3    0    0  0.41011577454E+02 -0.10098004018E+03  0.86559654739E+01  0.16613654577E+03  0.12509000000E+03 0.  0.
         25    1    4    4    0    0 -0.16646158764E+01  0.36696882370E+02  0.41462956270E+01  0.13043823055E+03  0.12509000000E+03 0.  0.
<mgrwt>
<rscale>  2 0.45410792E+03</rscale>
<asrwt>0</asrwt>
<pdfrwt beam="1">  1       21 0.41029889E-01 0.45410792E+03</pdfrwt>
<pdfrwt beam="2">  1       21 0.27173151E-01 0.45410792E+03</pdfrwt>
<totfact> 0.68384488E+04</totfact>
</mgrwt>
</event>
<event>
 7    0  0.4685107E-002  0.4541294E+03  0.7546771E-02  0.1026498E+00
         21   -1    0    0  502  501  0.00000000000E+00  0.00000000000E+00  0.51849915863E+03  0.51849915863E+03  0.00000000000E+00 0. -1.
         21   -1    0    0  501  502 -0.00000000000E+00 -0.00000000000E+00 -0.99437712539E+02  0.99437712539E+02  0.00000000000E+00 0. -1.
      99926    2    1    2    0    0 -0.88817841970E-15  0.00000000000E+00  0.41906144609E+03  0.61793687117E+03  0.45412936610E+03 0.  0.
      99925    2    3    3    0    0  0.63523860117E+01  0.68878226103E+02  0.38468439491E+03  0.47092036670E+03  0.26267726443E+03 0.  0.
         25    1    4    4    0    0  0.37362878559E+02  0.21185779656E+02  0.21691093941E+03  0.25405252546E+03  0.12509000000E+03 0.  0.
         25    1    3    3    0    0 -0.63523860117E+01 -0.68878226103E+02  0.34377051184E+02  0.14701650447E+03  0.12509000000E+03 0.  0.
         25    1    4    4    0    0 -0.31010492548E+02  0.47692446447E+02  0.16777345550E+03  0.21686784124E+03  0.12509000000E+03 0.  0.
<mgrwt>
<rscale>  2 0.45412937E+03</rscale>
<asrwt>0</asrwt>
<pdfrwt beam="1">  1       21 0.76249875E-01 0.45412937E+03</pdfrwt>
<pdfrwt beam="2">  1       21 0.14623193E-01 0.45412937E+03</pdfrwt>
<totfact> 0.57985216E+04</totfact>
</mgrwt>
</event>
<event>
 7    0  0.4685107E-002  0.4597538E+03  0.7546771E-02  0.1024853E+00
         21   -1    0    0  502  501  0.00000000000E+00  0.00000000000E+00  0.90601830413E+02  0.90601830413E+02  0.00000000000E+00 0.  1.
         21   -1    0    0  501  502 -0.00000000000E+00 -0.00000000000E+00 -0.58324859905E+03  0.58324859905E+03  0.00000000000E+00 0.  1.
      99926    2    1    2    0    0  0.35527136788E-14 -0.14210854715E-13 -0.49264676863E+03  0.67385042946E+03  0.45975380655E+03 0.  0.
      99925    2    3    3    0    0 -0.30255829687E+02  0.10372821687E+03 -0.37721173644E+03  0.47223764970E+03  0.26276366849E+03 0.  0.
         25    1    4    4    0    0 -0.33674888758E+02  0.79110462510E+02 -0.24744225623E+03  0.29028889348E+03  0.12509000000E+03 0.  0.
         25    1    3    3    0    0  0.30255829687E+02 -0.10372821687E+03 -0.11543503220E+03  0.20161277976E+03  0.12509000000E+03 0.  0.
         25    1    4    4    0    0  0.34190590714E+01  0.24617754359E+02 -0.12976948021E+03  0.18194875622E+03  0.12509000000E+03 0.  0.
<mgrwt>
<rscale>  2 0.45975381E+03</rscale>
<asrwt>0</asrwt>
<pdfrwt beam="1">  1       21 0.13323798E-01 0.45975381E+03</pdfrwt>
<pdfrwt beam="2">  1       21 0.85771855E-01 0.45975381E+03</pdfrwt>
<totfact> 0.52356534E+04</totfact>
</mgrwt>
</event>
<event>
 7    0  0.4685107E-002  0.4570662E+03  0.7546771E-02  0.1025636E+00
         21   -1    0    0  502  501  0.00000000000E+00  0.00000000000E+00  0.16941436735E+03  0.16941436735E+03  0.00000000000E+00 0. -1.
         21   -1    0    0  501  502 -0.00000000000E+00 -0.00000000000E+00 -0.30828190343E+03  0.30828190343E+03  0.00000000000E+00 0. -1.
      99926    2    1    2    0    0  0.00000000000E+00  0.00000000000E+00 -0.13886753609E+03  0.47769627078E+03  0.45706622555E+03 0.  0.
      99925    2    3    3    0    0  0.14617503599E+02 -0.21278836524E+02  0.29999330332E+02  0.26596534019E+03  0.26300407233E+03 0.  0.
         25    1    4    4    0    0 -0.94974263344E+01 -0.31722051226E+02  0.45595597860E+02  0.13719677943E+03  0.12509000000E+03 0.  0.
         25    1    4    4    0    0  0.24114929934E+02  0.10443214703E+02 -0.15596267528E+02  0.12876856076E+03  0.12509000000E+03 0.  0.
         25    1    3    3    0    0 -0.14617503599E+02  0.21278836524E+02 -0.16886686642E+03  0.21173093059E+03  0.12509000000E+03 0.  0.
<mgrwt>
<rscale>  2 0.45706623E+03</rscale>
<asrwt>0</asrwt>
<pdfrwt beam="1">  1       21 0.24913878E-01 0.45706623E+03</pdfrwt>
<pdfrwt beam="2">  1       21 0.45335574E-01 0.45706623E+03</pdfrwt>
<totfact> 0.65782811E+04</totfact>
</mgrwt>
</event>
<event>
 7    0  0.4685107E-002  0.4532736E+03  0.7546771E-02  0.1026750E+00
         21   -1    0    0  502  501  0.00000000000E+00  0.00000000000E+00  0.85561808864E+02  0.85561808864E+02  0.00000000000E+00 0. -1.
         21   -1    0    0  501  502 -0.00000000000E+00 -0.00000000000E+00 -0.60031724017E+03  0.60031724017E+03  0.00000000000E+00 0. -1.
      99926    2    1    2    0    0  0.00000000000E+00 -0.71054273576E-14 -0.51475543130E+03  0.68587904903E+03  0.45327355520E+03 0.  0.
      99925    2    3    3    0    0 -0.93873220866E+02 -0.53998272878E+02 -0.28487635799E+03  0.40264788634E+03  0.26314024011E+03 0.  0.
         25    1    3    3    0    0  0.93873220866E+02  0.53998272878E+02 -0.22987907331E+03  0.28323116269E+03  0.12509000000E+03 0.  0.
         25    1    4    4    0    0 -0.23400816997E+02 -0.31833475176E+02 -0.18320801378E+03  0.22533009739E+03  0.12509000000E+03 0.  0.
         25    1    4    4    0    0 -0.70472403869E+02 -0.22164797702E+02 -0.10166834421E+03  0.17731778895E+03  0.12509000000E+03 0.  0.
<mgrwt>
<rscale>  2 0.45327356E+03</rscale>
<asrwt>0</asrwt>
<pdfrwt beam="1">  1       21 0.12582619E-01 0.45327356E+03</pdfrwt>
<pdfrwt beam="2">  1       21 0.88281944E-01 0.45327356E+03</pdfrwt>
<totfact> 0.54412375E+04</totfact>
</mgrwt>
</event>
<event>
 7    0  0.4685107E-002  0.4464363E+03  0.7546771E-02  0.1028790E+00
         21   -1    0    0  502  501  0.00000000000E+00  0.00000000000E+00  0.10503937795E+04  0.10503937795E+04  0.00000000000E+00 0.  1.
         21   -1    0    0  501  502 -0.00000000000E+00 -0.00000000000E+00 -0.47435867721E+02  0.47435867721E+02  0.00000000000E+00 0.  1.
      99926    2    1    2    0    0  0.71054273576E-14  0.00000000000E+00  0.10029579118E+04  0.10978296472E+04  0.44643629055E+03 0.  0.
      99925    2    3    3    0    0 -0.61701991165E+02  0.76555788569E+02  0.72650358884E+03  0.77885876259E+03  0.26295547717E+03 0.  0.
         25    1    3    3    0    0  0.61701991165E+02 -0.76555788569E+02  0.27645432294E+03  0.31897088465E+03  0.12509000000E+03 0.  0.
         25    1    4    4    0    0 -0.58677117060E+01  0.68362341836E+02  0.34026225615E+03  0.36896307523E+03  0.12509000000E+03 0.  0.
         25    1    4    4    0    0 -0.55834279459E+02  0.81934467325E+01  0.38624133270E+03  0.40989568736E+03  0.12509000000E+03 0.  0.
<mgrwt>
<rscale>  2 0.44643629E+03</rscale>
<asrwt>0</asrwt>
<pdfrwt beam="1">  1       21 0.15446966E+00 0.44643629E+03</pdfrwt>
<pdfrwt beam="2">  1       21 0.69758636E-02 0.44643629E+03</pdfrwt>
<totfact> 0.38048644E+04</totfact>
</mgrwt>
</event>
<event>
 7    0  0.4685107E-002  0.4518650E+03  0.7546771E-02  0.1027167E+00
         21   -1    0    0  502  501  0.00000000000E+00  0.00000000000E+00  0.36327844671E+03  0.36327844671E+03  0.00000000000E+00 0. -1.
         21   -1    0    0  501  502 -0.00000000000E+00 -0.00000000000E+00 -0.14051340569E+03  0.14051340569E+03  0.00000000000E+00 0. -1.
      99926    2    1    2    0    0  0.17763568394E-14  0.00000000000E+00  0.22276504103E+03  0.50379185240E+03  0.45186498762E+03 0.  0.
      99925    2    3    3    0    0 -0.97152898537E+01 -0.16848316401E+02  0.19617221626E+02  0.26442853597E+03  0.26298167737E+03 0.  0.
         25    1    4    4    0    0  0.28332835910E+02  0.42365997396E+01  0.29321796490E+02  0.13163576344E+03  0.12509000000E+03 0.  0.
         25    1    3    3    0    0  0.97152898537E+01  0.16848316401E+02  0.20314781940E+03  0.23936331643E+03  0.12509000000E+03 0.  0.
         25    1    4    4    0    0 -0.38048125764E+02 -0.21084916141E+02 -0.97045748633E+01  0.13279277253E+03  0.12509000000E+03 0.  0.
<mgrwt>
<rscale>  2 0.45186499E+03</rscale>
<asrwt>0</asrwt>
<pdfrwt beam="1">  1       21 0.53423301E-01 0.45186499E+03</pdfrwt>
<pdfrwt beam="2">  1       21 0.20663736E-01 0.45186499E+03</pdfrwt>
<totfact> 0.66648126E+04</totfact>
</mgrwt>
</event>
<event>
 7    0  0.4685107E-002  0.4540470E+03  0.7546771E-02  0.1026522E+00
         21   -1    0    0  502  501  0.00000000000E+00  0.00000000000E+00  0.42812074096E+03  0.42812074096E+03  0.00000000000E+00 0.  1.
         21   -1    0    0  501  502 -0.00000000000E+00 -0.00000000000E+00 -0.12038581849E+03  0.12038581849E+03  0.00000000000E+00 0.  1.
      99926    2    1    2    0    0 -0.35527136788E-14  0.00000000000E+00  0.30773492248E+03  0.54850655945E+03  0.45404698352E+03 0.  0.
      99925    2    3    3    0    0 -0.23509327585E+02  0.48201219923E+02  0.74924872402E+02  0.27883254587E+03  0.26316877863E+03 0.  0.
         25    1    3    3    0    0  0.23509327585E+02 -0.48201219923E+02  0.23281005008E+03  0.26967401358E+03  0.12509000000E+03 0.  0.
         25    1    4    4    0    0 -0.34941065710E+02 -0.93598110425E+01  0.31106791408E+02  0.13387914217E+03  0.12509000000E+03 0.  0.
         25    1    4    4    0    0  0.11431738125E+02  0.57561030966E+02  0.43818080994E+02  0.14495340370E+03  0.12509000000E+03 0.  0.
<mgrwt>
<rscale>  2 0.45404698E+03</rscale>
<asrwt>0</asrwt>
<pdfrwt beam="1">  1       21 0.62958932E-01 0.45404698E+03</pdfrwt>
<pdfrwt beam="2">  1       21 0.17703797E-01 0.45404698E+03</pdfrwt>
<totfact> 0.62434764E+04</totfact>
</mgrwt>
</event>
<event>
 7    0  0.4685107E-002  0.4605638E+03  0.7546771E-02  0.1024618E+00
         21   -1    0    0  502  501  0.00000000000E+00  0.00000000000E+00  0.19879296582E+03  0.19879296582E+03  0.00000000000E+00 0.  1.
         21   -1    0    0  501  502 -0.00000000000E+00 -0.00000000000E+00 -0.26675871285E+03  0.26675871285E+03  0.00000000000E+00 0.  1.
      99926    2    1    2    0    0  0.00000000000E+00  0.17763568394E-14 -0.67965747035E+02  0.46555167867E+03  0.46056380963E+03 0.  0.
      99925    2    3    3    0    0 -0.11740742637E+03  0.93538651053E+01 -0.53782024397E+02  0.29315479747E+03  0.26301184493E+03 0.  0.
         25    1    3    3    0    0  0.11740742637E+03 -0.93538651053E+01 -0.14183722638E+02  0.17239688120E+03  0.12509000000E+03 0.  0.
         25    1    4    4    0    0 -0.55924048476E+02 -0.33431415659E+02 -0.12355338695E+02  0.14158150036E+03  0.12509000000E+03 0.  0.
         25    1    4    4    0    0 -0.61483377894E+02  0.42785280764E+02 -0.41426685703E+02  0.15157329711E+03  0.12509000000E+03 0.  0.
<mgrwt>
<rscale>  2 0.46056381E+03</rscale>
<asrwt>0</asrwt>
<pdfrwt beam="1">  1       21 0.29234260E-01 0.46056381E+03</pdfrwt>
<pdfrwt beam="2">  1       21 0.39229222E-01 0.46056381E+03</pdfrwt>
<totfact> 0.64852263E+04</totfact>
</mgrwt>
</event>
<event>
 7    0  0.4685107E-002  0.4544727E+03  0.7546771E-02  0.1026397E+00
         21   -1    0    0  502  501  0.00000000000E+00  0.00000000000E+00  0.11077682025E+04  0.11077682025E+04  0.00000000000E+00 0.  1.
         21   -1    0    0  501  502 -0.00000000000E+00 -0.00000000000E+00 -0.46612966772E+02  0.46612966772E+02  0.00000000000E+00 0.  1.
      99926    2    1    2    0    0  0.00000000000E+00  0.00000000000E+00  0.10611552357E+04  0.11543811693E+04  0.45447271608E+03 0.  0.
      99925    2    3    3    0    0  0.10701459598E+03  0.25313271840E+02  0.73070839040E+03  0.78433318432E+03  0.26296559991E+03 0.  0.
         25    1    4    4    0    0  0.94823125857E+02  0.23063069273E+02  0.38065899635E+03  0.41239799947E+03  0.12509000000E+03 0.  0.
         25    1    3    3    0    0 -0.10701459598E+03 -0.25313271840E+02  0.33044684535E+03  0.37004798497E+03  0.12509000000E+03 0.  0.
         25    1    4    4    0    0  0.12191470120E+02  0.22502025672E+01  0.35004939405E+03  0.37193518485E+03  0.12509000000E+03 0.  0.
<mgrwt>
<rscale>  2 0.45447272E+03</rscale>
<asrwt>0</asrwt>
<pdfrwt beam="1">  1       21 0.16290707E+00 0.45447272E+03</pdfrwt>
<pdfrwt beam="2">  1       21 0.68548488E-02 0.45447272E+03</pdfrwt>
<totfact> 0.33775005E+04</totfact>
</mgrwt>
</event>
<event>
 7    0  0.4685107E-002  0.4743560E+03  0.7546771E-02  0.1020698E+00
         21   -1    0    0  502  501  0.00000000000E+00  0.00000000000E+00  0.27168574857E+03  0.27168574857E+03  0.00000000000E+00 0.  1.
         21   -1    0    0  501  502 -0.00000000000E+00 -0.00000000000E+00 -0.20705318334E+03  0.20705318334E+03  0.00000000000E+00 0.  1.
      99926    2    1    2    0    0 -0.14210854715E-13  0.00000000000E+00  0.64632565234E+02  0.47873893191E+03  0.47435598071E+03 0.  0.
      99925    2    3    3    0    0 -0.90600493985E+02  0.85343928556E+02  0.61193941837E+00  0.29102056765E+03  0.26305999444E+03 0.  0.
         25    1    3    3    0    0  0.90600493985E+02 -0.85343928556E+02  0.64020625815E+02  0.18771836426E+03  0.12509000000E+03 0.  0.
         25    1    4    4    0    0 -0.87703545336E+02  0.51731779814E+02  0.52367295640E+01  0.16137850025E+03  0.12509000000E+03 0.  0.
         25    1    4    4    0    0 -0.28969486489E+01  0.33612148742E+02 -0.46247901457E+01  0.12964206739E+03  0.12509000000E+03 0.  0.
<mgrwt>
<rscale>  2 0.47435598E+03</rscale>
<asrwt>0</asrwt>
<pdfrwt beam="1">  1       21 0.39953787E-01 0.47435598E+03</pdfrwt>
<pdfrwt beam="2">  1       21 0.30448997E-01 0.47435598E+03</pdfrwt>
<totfact> 0.57441941E+04</totfact>
</mgrwt>
</event>
<event>
 7    0  0.4685107E-002  0.4553048E+03  0.7546771E-02  0.1026152E+00
         21   -1    0    0  502  501  0.00000000000E+00  0.00000000000E+00  0.30819733286E+03  0.30819733286E+03  0.00000000000E+00 0. -1.
         21   -1    0    0  501  502 -0.00000000000E+00 -0.00000000000E+00 -0.16815724796E+03  0.16815724796E+03  0.00000000000E+00 0. -1.
      99926    2    1    2    0    0  0.00000000000E+00 -0.71054273576E-14  0.14004008490E+03  0.47635458081E+03  0.45530480042E+03 0.  0.
      99925    2    3    3    0    0  0.62105748157E+02 -0.55585879071E+02  0.75813511387E+01  0.27600554000E+03  0.26301077415E+03 0.  0.
         25    1    4    4    0    0 -0.86651529928E+01 -0.38459699664E+02  0.45955673888E+01  0.13123589720E+03  0.12509000000E+03 0.  0.
         25    1    3    3    0    0 -0.62105748157E+02  0.55585879071E+02  0.13245873376E+03  0.20034904082E+03  0.12509000000E+03 0.  0.
         25    1    4    4    0    0  0.70770901150E+02 -0.17126179407E+02  0.29857837499E+01  0.14476964280E+03  0.12509000000E+03 0.  0.
<mgrwt>
<rscale>  2 0.45530480E+03</rscale>
<asrwt>0</asrwt>
<pdfrwt beam="1">  1       21 0.45323137E-01 0.45530480E+03</pdfrwt>
<pdfrwt beam="2">  1       21 0.24729007E-01 0.45530480E+03</pdfrwt>
<totfact> 0.66804684E+04</totfact>
</mgrwt>
</event>
<event>
 7    0  0.4685107E-002  0.4686412E+03  0.7546771E-02  0.1022304E+00
         21   -1    0    0  502  501  0.00000000000E+00  0.00000000000E+00  0.18753497780E+03  0.18753497780E+03  0.00000000000E+00 0.  1.
         21   -1    0    0  501  502 -0.00000000000E+00 -0.00000000000E+00 -0.29277809432E+03  0.29277809432E+03  0.00000000000E+00 0.  1.
      99926    2    1    2    0    0  0.00000000000E+00  0.00000000000E+00 -0.10524311652E+03  0.48031307212E+03  0.46864115662E+03 0.  0.
      99925    2    3    3    0    0  0.80091782305E+02 -0.54825732642E+02 -0.14717876486E+03  0.31652460716E+03  0.26287959898E+03 0.  0.
         25    1    4    4    0    0  0.37136801650E+02  0.13237466638E+02 -0.61384069068E+02  0.14480982216E+03  0.12509000000E+03 0.  0.
         25    1    3    3    0    0 -0.80091782305E+02  0.54825732642E+02  0.41935648345E+02  0.16378846496E+03  0.12509000000E+03 0.  0.
         25    1    4    4    0    0  0.42954980655E+02 -0.68063199280E+02 -0.85794695794E+02  0.17171478499E+03  0.12509000000E+03 0.  0.
<mgrwt>
<rscale>  2 0.46864116E+03</rscale>
<asrwt>0</asrwt>
<pdfrwt beam="1">  1       21 0.27578673E-01 0.46864116E+03</pdfrwt>
<pdfrwt beam="2">  1       21 0.43055602E-01 0.46864116E+03</pdfrwt>
<totfact> 0.59922637E+04</totfact>
</mgrwt>
</event>
<event>
 7    0  0.4685107E-002  0.4497642E+03  0.7546771E-02  0.1027792E+00
         21   -1    0    0  502  501  0.00000000000E+00  0.00000000000E+00  0.95254304244E+03  0.95254304244E+03  0.00000000000E+00 0. -1.
         21   -1    0    0  501  502 -0.00000000000E+00 -0.00000000000E+00 -0.53091527769E+02  0.53091527769E+02  0.00000000000E+00 0. -1.
      99926    2    1    2    0    0  0.00000000000E+00  0.00000000000E+00  0.89945151467E+03  0.10056345702E+04  0.44976422885E+03 0.  0.
      99925    2    3    3    0    0 -0.87209413677E+02  0.38727583810E+02  0.45507904153E+03  0.53423271344E+03  0.26306339633E+03 0.  0.
         25    1    3    3    0    0  0.87209413677E+02 -0.38727583810E+02  0.44437247314E+03  0.47140185677E+03  0.12509000000E+03 0.  0.
         25    1    4    4    0    0 -0.46911803544E+02  0.15021658013E+02  0.15131628037E+03  0.20241169019E+03  0.12509000000E+03 0.  0.
         25    1    4    4    0    0 -0.40297610133E+02  0.23705925797E+02  0.30376276117E+03  0.33182102325E+03  0.12509000000E+03 0.  0.
<mgrwt>
<rscale>  2 0.44976423E+03</rscale>
<asrwt>0</asrwt>
<pdfrwt beam="1">  1       21 0.14007985E+00 0.44976423E+03</pdfrwt>
<pdfrwt beam="2">  1       21 0.78075782E-02 0.44976423E+03</pdfrwt>
<totfact> 0.40582418E+04</totfact>
</mgrwt>
</event>
<event>
 7    0  0.4685107E-002  0.4277738E+03  0.7546771E-02  0.1034566E+00
         21   -1    0    0  502  501  0.00000000000E+00  0.00000000000E+00  0.17663358766E+03  0.17663358766E+03  0.00000000000E+00 0. -1.
         21   -1    0    0  501  502 -0.00000000000E+00 -0.00000000000E+00 -0.25899717967E+03  0.25899717967E+03  0.00000000000E+00 0. -1.
      99926    2    1    2    0    0  0.00000000000E+00 -0.35527136788E-14 -0.82363592011E+02  0.43563076732E+03  0.42777377684E+03 0.  0.
      99925    2    3    3    0    0  0.64267769933E+02  0.15403366936E+02  0.12743329637E+01  0.27128229438E+03  0.26310615605E+03 0.  0.
         25    1    4    4    0    0  0.54726343864E+02  0.20784098223E+02 -0.31182409615E+02  0.14158673038E+03  0.12509000000E+03 0.  0.
         25    1    3    3    0    0 -0.64267769933E+02 -0.15403366936E+02 -0.83637924974E+02  0.16434847294E+03  0.12509000000E+03 0.  0.
         25    1    4    4    0    0  0.95414260693E+01 -0.53807312868E+01  0.32456742579E+02  0.12969556399E+03  0.12509000000E+03 0.  0.
<mgrwt>
<rscale>  2 0.42777378E+03</rscale>
<asrwt>0</asrwt>
<pdfrwt beam="1">  1       21 0.25975528E-01 0.42777378E+03</pdfrwt>
<pdfrwt beam="2">  1       21 0.38087820E-01 0.42777378E+03</pdfrwt>
<totfact> 0.87496477E+04</totfact>
</mgrwt>
</event>
<event>
 7    0  0.4685107E-002  0.4420018E+03  0.7546771E-02  0.1030134E+00
         21   -1    0    0  502  501  0.00000000000E+00  0.00000000000E+00  0.28009113799E+03  0.28009113799E+03  0.00000000000E+00 0.  1.
         21   -1    0    0  501  502 -0.00000000000E+00 -0.00000000000E+00 -0.17437681298E+03  0.17437681298E+03  0.00000000000E+00 0.  1.
      99926    2    1    2    0    0  0.00000000000E+00 -0.35527136788E-14  0.10571432501E+03  0.45446795097E+03  0.44200180989E+03 0.  0.
      99925    2    3    3    0    0 -0.68490399412E+02  0.20708454094E+02  0.13965074608E+03  0.30641740671E+03  0.26319103588E+03 0.  0.
         25    1    4    4    0    0 -0.47827680502E+02 -0.13554298759E+02  0.10465028777E+03  0.17050043069E+03  0.12509000000E+03 0.  0.
         25    1    4    4    0    0 -0.20662718910E+02  0.34262752853E+02  0.35000458317E+02  0.13591697601E+03  0.12509000000E+03 0.  0.
         25    1    3    3    0    0  0.68490399412E+02 -0.20708454094E+02 -0.33936421073E+02  0.14805054427E+03  0.12509000000E+03 0.  0.
<mgrwt>
<rscale>  2 0.44200181E+03</rscale>
<asrwt>0</asrwt>
<pdfrwt beam="1">  1       21 0.41189873E-01 0.44200181E+03</pdfrwt>
<pdfrwt beam="2">  1       21 0.25643649E-01 0.44200181E+03</pdfrwt>
<totfact> 0.76163446E+04</totfact>
</mgrwt>
</event>
<event>
 7    0  0.4685107E-002  0.4542807E+03  0.7546771E-02  0.1026453E+00
         21   -1    0    0  502  501  0.00000000000E+00  0.00000000000E+00  0.34231117527E+03  0.34231117527E+03  0.00000000000E+00 0.  1.
         21   -1    0    0  501  502 -0.00000000000E+00 -0.00000000000E+00 -0.15071885655E+03  0.15071885655E+03  0.00000000000E+00 0.  1.
      99926    2    1    2    0    0  0.14210854715E-13  0.00000000000E+00  0.19159231873E+03  0.49303003182E+03  0.45428074544E+03 0.  0.
      99925    2    3    3    0    0  0.10240013821E+03 -0.21138131966E+02  0.75912136181E+02  0.29312500021E+03  0.26311025142E+03 0.  0.
         25    1    4    4    0    0  0.14482022975E+02 -0.30226225818E+01  0.56102159310E+02  0.13789062918E+03  0.12509000000E+03 0.  0.
         25    1    3    3    0    0 -0.10240013821E+03  0.21138131966E+02  0.11568018254E+03  0.19990503161E+03  0.12509000000E+03 0.  0.
         25    1    4    4    0    0  0.87918115231E+02 -0.18115509384E+02  0.19809976872E+02  0.15523437103E+03  0.12509000000E+03 0.  0.
<mgrwt>
<rscale>  2 0.45428075E+03</rscale>
<asrwt>0</asrwt>
<pdfrwt beam="1">  1       21 0.50339879E-01 0.45428075E+03</pdfrwt>
<pdfrwt beam="2">  1       21 0.22164538E-01 0.45428075E+03</pdfrwt>
<totfact> 0.66139990E+04</totfact>
</mgrwt>
</event>
<event>
 7    0  0.4685107E-002  0.4563758E+03  0.7546771E-02  0.1025838E+00
         21   -1    0    0  502  501  0.00000000000E+00  0.00000000000E+00  0.42547877260E+03  0.42547877260E+03  0.00000000000E+00 0. -1.
         21   -1    0    0  501  502 -0.00000000000E+00 -0.00000000000E+00 -0.12237910725E+03  0.12237910725E+03  0.00000000000E+00 0. -1.
      99926    2    1    2    0    0  0.14210854715E-13  0.00000000000E+00  0.30309966536E+03  0.54785787985E+03  0.45637577650E+03 0.  0.
      99925    2    3    3    0    0  0.83530285755E+02 -0.70030803640E+02  0.14875646366E+03  0.32125039077E+03  0.26304316375E+03 0.  0.
         25    1    3    3    0    0 -0.83530285755E+02  0.70030803640E+02  0.15434320169E+03  0.22660748908E+03  0.12509000000E+03 0.  0.
         25    1    4    4    0    0  0.75580700489E+02 -0.32657492898E+02  0.10663068121E+03  0.18383841928E+03  0.12509000000E+03 0.  0.
         25    1    4    4    0    0  0.79495852665E+01 -0.37373310742E+02  0.42125782453E+02  0.13741197149E+03  0.12509000000E+03 0.  0.
<mgrwt>
<rscale>  2 0.45637578E+03</rscale>
<asrwt>0</asrwt>
<pdfrwt beam="1">  1       21 0.62570407E-01 0.45637578E+03</pdfrwt>
<pdfrwt beam="2">  1       21 0.17996928E-01 0.45637578E+03</pdfrwt>
<totfact> 0.61337854E+04</totfact>
</mgrwt>
</event>
<event>
 7    0  0.4685107E-002  0.4556999E+03  0.7546771E-02  0.1026036E+00
         21   -1    0    0  502  501  0.00000000000E+00  0.00000000000E+00  0.91108124808E+02  0.91108124808E+02  0.00000000000E+00 0. -1.
         21   -1    0    0  501  502 -0.00000000000E+00 -0.00000000000E+00 -0.56982415832E+03  0.56982415832E+03  0.00000000000E+00 0. -1.
      99926    2    1    2    0    0  0.88817841970E-15 -0.14210854715E-13 -0.47871603351E+03  0.66093228313E+03  0.45569994749E+03 0.  0.
      99925    2    3    3    0    0 -0.49897003108E+01  0.11351736568E+03 -0.30293910948E+03  0.41709601728E+03  0.26322213843E+03 0.  0.
         25    1    4    4    0    0 -0.14081849126E+02  0.55563268981E+02 -0.20824305439E+03  0.24959618013E+03  0.12509000000E+03 0.  0.
         25    1    4    4    0    0  0.90921488153E+01  0.57954096702E+02 -0.94696055084E+02  0.16749983714E+03  0.12509000000E+03 0.  0.
         25    1    3    3    0    0  0.49897003108E+01 -0.11351736568E+03 -0.17577692403E+03  0.24383626585E+03  0.12509000000E+03 0.  0.
<mgrwt>
<rscale>  2 0.45569995E+03</rscale>
<asrwt>0</asrwt>
<pdfrwt beam="1">  1       21 0.13398254E-01 0.45569995E+03</pdfrwt>
<pdfrwt beam="2">  1       21 0.83797669E-01 0.45569995E+03</pdfrwt>
<totfact> 0.54772578E+04</totfact>
</mgrwt>
</event>
<event>
 7    0  0.4685107E-002  0.4929016E+03  0.7546771E-02  0.1015648E+00
         21   -1    0    0  502  501  0.00000000000E+00  0.00000000000E+00  0.35029947423E+02  0.35029947423E+02  0.00000000000E+00 0.  1.
         21   -1    0    0  501  502 -0.00000000000E+00 -0.00000000000E+00 -0.17338876827E+04  0.17338876827E+04  0.00000000000E+00 0.  1.
      99926    2    1    2    0    0  0.00000000000E+00  0.00000000000E+00 -0.16988577353E+04  0.17689176302E+04  0.49290159003E+03 0.  0.
      99925    2    3    3    0    0  0.92684737607E+02 -0.58959201409E+02 -0.69201364685E+03  0.74840345848E+03  0.26297946921E+03 0.  0.
         25    1    4    4    0    0  0.37412187368E+02 -0.64483649680E+01 -0.41410973889E+03  0.43425296444E+03  0.12509000000E+03 0.  0.
         25    1    4    4    0    0  0.55272550239E+02 -0.52510836442E+02 -0.27790390796E+03  0.31415049405E+03  0.12509000000E+03 0.  0.
         25    1    3    3    0    0 -0.92684737607E+02  0.58959201409E+02 -0.10068440885E+04  0.10205141717E+04  0.12509000000E+03 0.  0.
<mgrwt>
<rscale>  2 0.49290159E+03</rscale>
<asrwt>0</asrwt>
<pdfrwt beam="1">  1       21 0.51514625E-02 0.49290159E+03</pdfrwt>
<pdfrwt beam="2">  1       21 0.25498350E+00 0.49290159E+03</pdfrwt>
<totfact> 0.13449922E+04</totfact>
</mgrwt>
</event>
<event>
 7    0  0.4685107E-002  0.4624145E+03  0.7546771E-02  0.1024083E+00
         21   -1    0    0  502  501  0.00000000000E+00  0.00000000000E+00  0.11208526601E+04  0.11208526601E+04  0.00000000000E+00 0.  1.
         21   -1    0    0  501  502 -0.00000000000E+00 -0.00000000000E+00 -0.47692974692E+02  0.47692974692E+02  0.00000000000E+00 0.  1.
      99926    2    1    2    0    0  0.00000000000E+00  0.00000000000E+00  0.10731596854E+04  0.11685456348E+04  0.46241452206E+03 0.  0.
      99925    2    3    3    0    0  0.29070165992E+02 -0.11583338918E+03  0.69953225705E+03  0.75683285637E+03  0.26303639525E+03 0.  0.
         25    1    4    4    0    0 -0.22961707349E+02 -0.39750007282E+02  0.30732128962E+03  0.33496445518E+03  0.12509000000E+03 0.  0.
         25    1    4    4    0    0  0.52031873340E+02 -0.76083381894E+02  0.39221096744E+03  0.42186840119E+03  0.12509000000E+03 0.  0.
         25    1    3    3    0    0 -0.29070165992E+02  0.11583338918E+03  0.37362742838E+03  0.41171277845E+03  0.12509000000E+03 0.  0.
<mgrwt>
<rscale>  2 0.46241452E+03</rscale>
<asrwt>0</asrwt>
<pdfrwt beam="1">  1       21 0.16483126E+00 0.46241452E+03</pdfrwt>
<pdfrwt beam="2">  1       21 0.70136735E-02 0.46241452E+03</pdfrwt>
<totfact> 0.31320107E+04</totfact>
</mgrwt>
</event>
<event>
 7    0  0.4685107E-002  0.4543012E+03  0.7546771E-02  0.1026447E+00
         21   -1    0    0  502  501  0.00000000000E+00  0.00000000000E+00  0.99088404814E+02  0.99088404814E+02  0.00000000000E+00 0. -1.
         21   -1    0    0  501  502 -0.00000000000E+00 -0.00000000000E+00 -0.52072092857E+03  0.52072092857E+03  0.00000000000E+00 0. -1.
      99926    2    1    2    0    0  0.00000000000E+00 -0.14210854715E-13 -0.42163252376E+03  0.61980933338E+03  0.45430124880E+03 0.  0.
      99925    2    3    3    0    0  0.49486585941E+02  0.10158038310E+03 -0.26185900833E+03  0.38755391203E+03  0.26241264844E+03 0.  0.
         25    1    3    3    0    0 -0.49486585941E+02 -0.10158038310E+03 -0.15977351543E+03  0.23225542136E+03  0.12509000000E+03 0.  0.
         25    1    4    4    0    0  0.39008654681E+02  0.89242326320E+02 -0.16212011497E+03  0.22675164327E+03  0.12509000000E+03 0.  0.
         25    1    4    4    0    0  0.10477931260E+02  0.12338056780E+02 -0.99738893358E+02  0.16080226876E+03  0.12509000000E+03 0.  0.
<mgrwt>
<rscale>  2 0.45430125E+03</rscale>
<asrwt>0</asrwt>
<pdfrwt beam="1">  1       21 0.14571824E-01 0.45430125E+03</pdfrwt>
<pdfrwt beam="2">  1       21 0.76576606E-01 0.45430125E+03</pdfrwt>
<totfact> 0.57793453E+04</totfact>
</mgrwt>
</event>
<event>
 7    0  0.4685107E-002  0.4498502E+03  0.7546771E-02  0.1027767E+00
         21   -1    0    0  502  501  0.00000000000E+00  0.00000000000E+00  0.82708399006E+02  0.82708399006E+02  0.00000000000E+00 0.  1.
         21   -1    0    0  501  502 -0.00000000000E+00 -0.00000000000E+00 -0.61168271336E+03  0.61168271336E+03  0.00000000000E+00 0.  1.
      99926    2    1    2    0    0 -0.14210854715E-13  0.00000000000E+00 -0.52897431435E+03  0.69439111236E+03  0.44985018805E+03 0.  0.
      99925    2    3    3    0    0  0.10028172945E+03  0.40676519339E+02 -0.34101563791E+03  0.44401743836E+03  0.26296162415E+03 0.  0.
         25    1    4    4    0    0  0.66108163223E+02  0.52043651792E+02 -0.14838776816E+03  0.21153077501E+03  0.12509000000E+03 0.  0.
         25    1    4    4    0    0  0.34173566226E+02 -0.11367132454E+02 -0.19262786976E+03  0.23248666335E+03  0.12509000000E+03 0.  0.
         25    1    3    3    0    0 -0.10028172945E+03 -0.40676519339E+02 -0.18795867644E+03  0.25037367400E+03  0.12509000000E+03 0.  0.
<mgrwt>
<rscale>  2 0.44985019E+03</rscale>
<asrwt>0</asrwt>
<pdfrwt beam="1">  1       21 0.12163000E-01 0.44985019E+03</pdfrwt>
<pdfrwt beam="2">  1       21 0.89953340E-01 0.44985019E+03</pdfrwt>
<totfact> 0.55421064E+04</totfact>
</mgrwt>
</event>
<event>
 7    0  0.4685107E-002  0.4552357E+03  0.7546771E-02  0.1026172E+00
         21   -1    0    0  502  501  0.00000000000E+00  0.00000000000E+00  0.81589108775E+03  0.81589108775E+03  0.00000000000E+00 0. -1.
         21   -1    0    0  501  502 -0.00000000000E+00 -0.00000000000E+00 -0.63500980684E+02  0.63500980684E+02  0.00000000000E+00 0. -1.
      99926    2    1    2    0    0 -0.71054273576E-14  0.14210854715E-13  0.75239010707E+03  0.87939206844E+03  0.45523569369E+03 0.  0.
      99925    2    3    3    0    0 -0.38102160303E+02 -0.87504550516E+02  0.35514726975E+03  0.45212376762E+03  0.26301615360E+03 0.  0.
         25    1    4    4    0    0  0.14668862026E+02 -0.31423279775E+02  0.13337442038E+03  0.18611513140E+03  0.12509000000E+03 0.  0.
         25    1    4    4    0    0 -0.52771022329E+02 -0.56081270741E+02  0.22177284936E+03  0.26600863622E+03  0.12509000000E+03 0.  0.
         25    1    3    3    0    0  0.38102160303E+02  0.87504550516E+02  0.39724283732E+03  0.42726830082E+03  0.12509000000E+03 0.  0.
<mgrwt>
<rscale>  2 0.45523569E+03</rscale>
<asrwt>0</asrwt>
<pdfrwt beam="1">  1       21 0.11998398E+00 0.45523569E+03</pdfrwt>
<pdfrwt beam="2">  1       21 0.93383800E-02 0.45523569E+03</pdfrwt>
<totfact> 0.44055350E+04</totfact>
</mgrwt>
</event>
<event>
 7    0  0.4685107E-002  0.4556173E+03  0.7546771E-02  0.1026060E+00
         21   -1    0    0  502  501  0.00000000000E+00  0.00000000000E+00  0.25148146580E+03  0.25148146580E+03  0.00000000000E+00 0. -1.
         21   -1    0    0  501  502 -0.00000000000E+00 -0.00000000000E+00 -0.20636425390E+03  0.20636425390E+03  0.00000000000E+00 0. -1.
      99926    2    1    2    0    0  0.00000000000E+00  0.00000000000E+00  0.45117211902E+02  0.45784571970E+03  0.45561731775E+03 0.  0.
      99925    2    3    3    0    0  0.75105973783E+02 -0.85337553807E+02  0.31784248680E+02  0.28829135852E+03  0.26301761071E+03 0.  0.
         25    1    4    4    0    0  0.20370483510E+02 -0.77380518188E+02  0.30073670309E+02  0.15150787088E+03  0.12509000000E+03 0.  0.
         25    1    4    4    0    0  0.54735490273E+02 -0.79570356187E+01  0.17105783709E+01  0.13678348764E+03  0.12509000000E+03 0.  0.
         25    1    3    3    0    0 -0.75105973783E+02  0.85337553807E+02  0.13332963222E+02  0.16955436118E+03  0.12509000000E+03 0.  0.
<mgrwt>
<rscale>  2 0.45561732E+03</rscale>
<asrwt>0</asrwt>
<pdfrwt beam="1">  1       21 0.36982568E-01 0.45561732E+03</pdfrwt>
<pdfrwt beam="2">  1       21 0.30347685E-01 0.45561732E+03</pdfrwt>
<totfact> 0.68002262E+04</totfact>
</mgrwt>
</event>
<event>
 7    0  0.4685107E-002  0.4434308E+03  0.7546771E-02  0.1029699E+00
         21   -1    0    0  502  501  0.00000000000E+00  0.00000000000E+00  0.44944860460E+02  0.44944860460E+02  0.00000000000E+00 0.  1.
         21   -1    0    0  501  502 -0.00000000000E+00 -0.00000000000E+00 -0.10937337317E+04  0.10937337317E+04  0.00000000000E+00 0.  1.
      99926    2    1    2    0    0  0.00000000000E+00  0.00000000000E+00 -0.10487888713E+04  0.11386785922E+04  0.44343076101E+03 0.  0.
      99925    2    3    3    0    0  0.18762123261E+02 -0.89717123458E+02 -0.78184419873E+03  0.82995841824E+03  0.26296282132E+03 0.  0.
         25    1    3    3    0    0 -0.18762123261E+02  0.89717123458E+02 -0.26694467254E+03  0.30872017395E+03  0.12509000000E+03 0.  0.
         25    1    4    4    0    0 -0.23015666926E+01 -0.84697740621E+01 -0.41040728723E+03  0.42913713868E+03  0.12509000000E+03 0.  0.
         25    1    4    4    0    0  0.21063689953E+02 -0.81247349396E+02 -0.37143691150E+03  0.40082127955E+03  0.12509000000E+03 0.  0.
<mgrwt>
<rscale>  2 0.44343076E+03</rscale>
<asrwt>0</asrwt>
<pdfrwt beam="1">  1       21 0.66095385E-02 0.44343076E+03</pdfrwt>
<pdfrwt beam="2">  1       21 0.16084319E+00 0.44343076E+03</pdfrwt>
<totfact> 0.37425343E+04</totfact>
</mgrwt>
</event>
<event>
 7    0  0.4685107E-002  0.3959450E+03  0.7546771E-02  0.1045193E+00
         21   -1    0    0  502  501  0.00000000000E+00  0.00000000000E+00  0.17665363317E+03  0.17665363317E+03  0.00000000000E+00 0. -1.
         21   -1    0    0  501  502 -0.00000000000E+00 -0.00000000000E+00 -0.22186414350E+03  0.22186414350E+03  0.00000000000E+00 0. -1.
      99926    2    1    2    0    0 -0.88817841970E-15  0.17763568394E-14 -0.45210510331E+02  0.39851777667E+03  0.39594498113E+03 0.  0.
      99925    2    3    3    0    0  0.57710482529E+01 -0.84397892409E+01  0.51573032056E+01  0.26328109607E+03  0.26303194241E+03 0.  0.
         25    1    4    4    0    0  0.36091217365E+02  0.63624670711E+01  0.23434672769E+02  0.13243771723E+03  0.12509000000E+03 0.  0.
         25    1    4    4    0    0 -0.30320169112E+02 -0.14802256312E+02 -0.18277369563E+02  0.13084337884E+03  0.12509000000E+03 0.  0.
         25    1    3    3    0    0 -0.57710482529E+01  0.84397892409E+01 -0.50367813537E+02  0.13523668060E+03  0.12509000000E+03 0.  0.
<mgrwt>
<rscale>  2 0.39594498E+03</rscale>
<asrwt>0</asrwt>
<pdfrwt beam="1">  1       21 0.25978476E-01 0.39594498E+03</pdfrwt>
<pdfrwt beam="2">  1       21 0.32627080E-01 0.39594498E+03</pdfrwt>
<totfact> 0.12037388E+05</totfact>
</mgrwt>
</event>
<event>
 7    0  0.4685107E-002  0.4511867E+03  0.7546771E-02  0.1027369E+00
         21   -1    0    0  502  501  0.00000000000E+00  0.00000000000E+00  0.16240683245E+04  0.16240683245E+04  0.00000000000E+00 0. -1.
         21   -1    0    0  501  502 -0.00000000000E+00 -0.00000000000E+00 -0.31336346213E+02  0.31336346213E+02  0.00000000000E+00 0. -1.
      99926    2    1    2    0    0  0.00000000000E+00  0.00000000000E+00  0.15927319782E+04  0.16554046707E+04  0.45118673424E+03 0.  0.
      99925    2    3    3    0    0  0.10520828958E+03 -0.20565344435E+02  0.92213363509E+03  0.96486765969E+03  0.26295901234E+03 0.  0.
         25    1    4    4    0    0  0.85570880638E+02 -0.60967526777E+01  0.58814464106E+03  0.60738881527E+03  0.12509000000E+03 0.  0.
         25    1    3    3    0    0 -0.10520828958E+03  0.20565344435E+02  0.67059834315E+03  0.69053701098E+03  0.12509000000E+03 0.  0.
         25    1    4    4    0    0  0.19637408945E+02 -0.14468591757E+02  0.33398899403E+03  0.35747884442E+03  0.12509000000E+03 0.  0.
<mgrwt>
<rscale>  2 0.45118673E+03</rscale>
<asrwt>0</asrwt>
<pdfrwt beam="1">  1       21 0.23883352E+00 0.45118673E+03</pdfrwt>
<pdfrwt beam="2">  1       21 0.46082873E-02 0.45118673E+03</pdfrwt>
<totfact> 0.20815774E+04</totfact>
</mgrwt>
</event>
<event>
 7    0  0.4685107E-002  0.4447732E+03  0.7546771E-02  0.1029292E+00
         21   -1    0    0  502  501  0.00000000000E+00  0.00000000000E+00  0.71774460041E+02  0.71774460041E+02  0.00000000000E+00 0. -1.
         21   -1    0    0  501  502 -0.00000000000E+00 -0.00000000000E+00 -0.68904456979E+03  0.68904456979E+03  0.00000000000E+00 0. -1.
      99926    2    1    2    0    0  0.00000000000E+00  0.00000000000E+00 -0.61727010975E+03  0.76081902983E+03  0.44477320936E+03 0.  0.
      99925    2    3    3    0    0  0.88814612914E+02  0.48339484944E+02 -0.42827267855E+03  0.51264111306E+03  0.26298038394E+03 0.  0.
         25    1    4    4    0    0  0.62118561816E+02  0.14176009836E+02 -0.28417916904E+03  0.31696211634E+03  0.12509000000E+03 0.  0.
         25    1    4    4    0    0  0.26696051098E+02  0.34163475108E+02 -0.14409350950E+03  0.19567899672E+03  0.12509000000E+03 0.  0.
         25    1    3    3    0    0 -0.88814612914E+02 -0.48339484944E+02 -0.18899743120E+03  0.24817791677E+03  0.12509000000E+03 0.  0.
<mgrwt>
<rscale>  2 0.44477321E+03</rscale>
<asrwt>0</asrwt>
<pdfrwt beam="1">  1       21 0.10555068E-01 0.44477321E+03</pdfrwt>
<pdfrwt beam="2">  1       21 0.10133008E+00 0.44477321E+03</pdfrwt>
<totfact> 0.53918672E+04</totfact>
</mgrwt>
</event>
<event>
 7    0  0.4685107E-002  0.4525049E+03  0.7546771E-02  0.1026978E+00
         21   -1    0    0  502  501  0.00000000000E+00  0.00000000000E+00  0.97077221204E+03  0.97077221204E+03  0.00000000000E+00 0. -1.
         21   -1    0    0  501  502 -0.00000000000E+00 -0.00000000000E+00 -0.52731390972E+02  0.52731390972E+02  0.00000000000E+00 0. -1.
      99926    2    1    2    0    0  0.00000000000E+00  0.00000000000E+00  0.91804082106E+03  0.10235036030E+04  0.45250489083E+03 0.  0.
      99925    2    3    3    0    0 -0.83753373645E+02  0.68769930347E+02  0.52559482995E+03  0.59758659823E+03  0.26289900380E+03 0.  0.
         25    1    4    4    0    0 -0.68440317951E+02  0.48390096392E+02  0.34498214484E+03  0.37641183152E+03  0.12509000000E+03 0.  0.
         25    1    3    3    0    0  0.83753373645E+02 -0.68769930347E+02  0.39244599111E+03  0.42591700478E+03  0.12509000000E+03 0.  0.
         25    1    4    4    0    0 -0.15313055694E+02  0.20379833955E+02  0.18061268511E+03  0.22117476671E+03  0.12509000000E+03 0.  0.
<mgrwt>
<rscale>  2 0.45250489E+03</rscale>
<asrwt>0</asrwt>
<pdfrwt beam="1">  1       21 0.14276061E+00 0.45250489E+03</pdfrwt>
<pdfrwt beam="2">  1       21 0.77546169E-02 0.45250489E+03</pdfrwt>
<totfact> 0.39019486E+04</totfact>
</mgrwt>
</event>
<event>
 7    0  0.4685107E-002  0.4213707E+03  0.7546771E-02  0.1036621E+00
         21   -1    0    0  502  501  0.00000000000E+00  0.00000000000E+00  0.12798363067E+03  0.12798363067E+03  0.00000000000E+00 0.  1.
         21   -1    0    0  501  502 -0.00000000000E+00 -0.00000000000E+00 -0.34682808791E+03  0.34682808791E+03  0.00000000000E+00 0.  1.
      99926    2    1    2    0    0  0.00000000000E+00  0.00000000000E+00 -0.21884445724E+03  0.47481171858E+03  0.42137070571E+03 0.  0.
      99925    2    3    3    0    0 -0.45968984625E+02  0.37585867744E+02 -0.19885552178E+03  0.33490849973E+03  0.26285802185E+03 0.  0.
         25    1    3    3    0    0  0.45968984625E+02 -0.37585867744E+02 -0.19988935462E+02  0.13990321884E+03  0.12509000000E+03 0.  0.
         25    1    4    4    0    0 -0.61708275761E+02  0.31116664741E+02 -0.97329823101E+02  0.17290679769E+03  0.12509000000E+03 0.  0.
         25    1    4    4    0    0  0.15739291137E+02  0.64692030028E+01 -0.10152569868E+03  0.16200170205E+03  0.12509000000E+03 0.  0.
<mgrwt>
<rscale>  2 0.42137071E+03</rscale>
<asrwt>0</asrwt>
<pdfrwt beam="1">  1       21 0.18821122E-01 0.42137071E+03</pdfrwt>
<pdfrwt beam="2">  1       21 0.51004130E-01 0.42137071E+03</pdfrwt>
<totfact> 0.88431847E+04</totfact>
</mgrwt>
</event>
<event>
 7    0  0.4685107E-002  0.4531665E+03  0.7546771E-02  0.1026782E+00
         21   -1    0    0  502  501  0.00000000000E+00  0.00000000000E+00  0.78499912323E+03  0.78499912323E+03  0.00000000000E+00 0. -1.
         21   -1    0    0  501  502 -0.00000000000E+00 -0.00000000000E+00 -0.65401300863E+02  0.65401300863E+02  0.00000000000E+00 0. -1.
      99926    2    1    2    0    0  0.00000000000E+00  0.00000000000E+00  0.71959782237E+03  0.85040042409E+03  0.45316647641E+03 0.  0.
      99925    2    3    3    0    0  0.13505299841E+02 -0.25750688831E+02  0.25211470436E+03  0.36559792325E+03  0.26316254717E+03 0.  0.
         25    1    3    3    0    0 -0.13505299841E+02  0.25750688831E+02  0.46748311801E+03  0.48480250084E+03  0.12509000000E+03 0.  0.
         25    1    4    4    0    0  0.29771472055E+00 -0.13577986604E+02  0.70161879071E+02  0.14406473451E+03  0.12509000000E+03 0.  0.
         25    1    4    4    0    0  0.13207585120E+02 -0.12172702227E+02  0.18195282528E+03  0.22153318874E+03  0.12509000000E+03 0.  0.
<mgrwt>
<rscale>  2 0.45316648E+03</rscale>
<asrwt>0</asrwt>
<pdfrwt beam="1">  1       21 0.11544104E+00 0.45316648E+03</pdfrwt>
<pdfrwt beam="2">  1       21 0.96178388E-02 0.45316648E+03</pdfrwt>
<totfact> 0.46080683E+04</totfact>
</mgrwt>
</event>
<event>
 7    0  0.4685107E-002  0.4584265E+03  0.7546771E-02  0.1025239E+00
         21   -1    0    0  502  501  0.00000000000E+00  0.00000000000E+00  0.83192933328E+03  0.83192933328E+03  0.00000000000E+00 0. -1.
         21   -1    0    0  501  502 -0.00000000000E+00 -0.00000000000E+00 -0.63152866016E+02  0.63152866016E+02  0.00000000000E+00 0. -1.
      99926    2    1    2    0    0  0.00000000000E+00  0.14210854715E-13  0.76877646727E+03  0.89508219930E+03  0.45842653379E+03 0.  0.
      99925    2    3    3    0    0  0.45815239561E+02 -0.99792595486E+02  0.55807240783E+03  0.62656533381E+03  0.26283399107E+03 0.  0.
         25    1    4    4    0    0  0.20140314116E+02 -0.92254353127E+02  0.31892951534E+03  0.35535903222E+03  0.12509000000E+03 0.  0.
         25    1    3    3    0    0 -0.45815239561E+02  0.99792595486E+02  0.21070405943E+03  0.26851686549E+03  0.12509000000E+03 0.  0.
         25    1    4    4    0    0  0.25674925445E+02 -0.75382423591E+01  0.23914289249E+03  0.27120630159E+03  0.12509000000E+03 0.  0.
<mgrwt>
<rscale>  2 0.45842653E+03</rscale>
<asrwt>0</asrwt>
<pdfrwt beam="1">  1       21 0.12234254E+00 0.45842653E+03</pdfrwt>
<pdfrwt beam="2">  1       21 0.92871867E-02 0.45842653E+03</pdfrwt>
<totfact> 0.42300599E+04</totfact>
</mgrwt>
</event>
<event>
 7    0  0.4685107E-002  0.4505000E+03  0.7546771E-02  0.1027573E+00
         21   -1    0    0  502  501  0.00000000000E+00  0.00000000000E+00  0.16458247749E+02  0.16458247749E+02  0.00000000000E+00 0.  1.
         21   -1    0    0  501  502 -0.00000000000E+00 -0.00000000000E+00 -0.30828043011E+04  0.30828043011E+04  0.00000000000E+00 0.  1.
      99926    2    1    2    0    0  0.00000000000E+00  0.00000000000E+00 -0.30663460534E+04  0.30992625489E+04  0.45049997536E+03 0.  0.
      99925    2    3    3    0    0 -0.87978673917E+02  0.59261693671E+02 -0.21061418757E+04  0.21251517922E+04  0.26302916907E+03 0.  0.
         25    1    4    4    0    0 -0.14915530353E+02  0.50271517963E+02 -0.86837374443E+03  0.87890281982E+03  0.12509000000E+03 0.  0.
         25    1    4    4    0    0 -0.73063143565E+02  0.89901757075E+01 -0.12377681313E+04  0.12462489724E+04  0.12509000000E+03 0.  0.
         25    1    3    3    0    0  0.87978673917E+02 -0.59261693671E+02 -0.96020417769E+03  0.97411075672E+03  0.12509000000E+03 0.  0.
<mgrwt>
<rscale>  2 0.45049998E+03</rscale>
<asrwt>0</asrwt>
<pdfrwt beam="1">  1       21 0.24203265E-02 0.45049998E+03</pdfrwt>
<pdfrwt beam="2">  1       21 0.45335432E+00 0.45049998E+03</pdfrwt>
<totfact> 0.28295380E+03</totfact>
</mgrwt>
</event>
<event>
 7    0  0.4685107E-002  0.4401412E+03  0.7546771E-02  0.1030704E+00
         21   -1    0    0  502  501  0.00000000000E+00  0.00000000000E+00  0.11704056786E+04  0.11704056786E+04  0.00000000000E+00 0. -1.
         21   -1    0    0  501  502 -0.00000000000E+00 -0.00000000000E+00 -0.41379723088E+02  0.41379723088E+02  0.00000000000E+00 0. -1.
      99926    2    1    2    0    0  0.00000000000E+00  0.00000000000E+00  0.11290259555E+04  0.12117854017E+04  0.44014117227E+03 0.  0.
      99925    2    3    3    0    0 -0.60680676029E+01  0.21280887245E+02  0.98491214452E+03  0.10196760676E+04  0.26305446756E+03 0.  0.
         25    1    3    3    0    0  0.60680676029E+01 -0.21280887245E+02  0.14411381099E+03  0.19210933404E+03  0.12509000000E+03 0.  0.
         25    1    4    4    0    0 -0.20249424972E+02 -0.88702721734E+01  0.36737561990E+03  0.38871721744E+03  0.12509000000E+03 0.  0.
         25    1    4    4    0    0  0.14181357369E+02  0.30151159418E+02  0.61753652462E+03  0.63095885021E+03  0.12509000000E+03 0.  0.
<mgrwt>
<rscale>  2 0.44014117E+03</rscale>
<asrwt>0</asrwt>
<pdfrwt beam="1">  1       21 0.17211846E+00 0.44014117E+03</pdfrwt>
<pdfrwt beam="2">  1       21 0.60852542E-02 0.44014117E+03</pdfrwt>
<totfact> 0.35745667E+04</totfact>
</mgrwt>
</event>
<event>
 7    0  0.4685107E-002  0.4547487E+03  0.7546771E-02  0.1026315E+00
         21   -1    0    0  502  501  0.00000000000E+00  0.00000000000E+00  0.32795665429E+03  0.32795665429E+03  0.00000000000E+00 0.  1.
         21   -1    0    0  501  502 -0.00000000000E+00 -0.00000000000E+00 -0.15764002636E+03  0.15764002636E+03  0.00000000000E+00 0.  1.
      99926    2    1    2    0    0  0.00000000000E+00 -0.35527136788E-14  0.17031662793E+03  0.48559668066E+03  0.45474870260E+03 0.  0.
      99925    2    3    3    0    0 -0.82844131243E+02  0.30569607821E+02  0.18230438493E+03  0.33201000994E+03  0.26305533055E+03 0.  0.
         25    1    4    4    0    0 -0.52484657468E+02 -0.16171735248E+02  0.11885364762E+03  0.18107971157E+03  0.12509000000E+03 0.  0.
         25    1    4    4    0    0 -0.30359473775E+02  0.46741343069E+02  0.63450737317E+02  0.15093029837E+03  0.12509000000E+03 0.  0.
         25    1    3    3    0    0  0.82844131243E+02 -0.30569607821E+02 -0.11987757003E+02  0.15358667072E+03  0.12509000000E+03 0.  0.
<mgrwt>
<rscale>  2 0.45474870E+03</rscale>
<asrwt>0</asrwt>
<pdfrwt beam="1">  1       21 0.48228920E-01 0.45474870E+03</pdfrwt>
<pdfrwt beam="2">  1       21 0.23182357E-01 0.45474870E+03</pdfrwt>
<totfact> 0.66427326E+04</totfact>
</mgrwt>
</event>
<event>
 7    0  0.4685107E-002  0.4603228E+03  0.7546771E-02  0.1024688E+00
         21   -1    0    0  502  501  0.00000000000E+00  0.00000000000E+00  0.14776072786E+03  0.14776072786E+03  0.00000000000E+00 0.  1.
         21   -1    0    0  501  502 -0.00000000000E+00 -0.00000000000E+00 -0.35851379367E+03  0.35851379367E+03  0.00000000000E+00 0.  1.
      99926    2    1    2    0    0  0.88817841970E-15 -0.14210854715E-13 -0.21075306581E+03  0.50627452153E+03  0.46032275243E+03 0.  0.
      99925    2    3    3    0    0  0.42229847255E+01  0.11077701152E+03 -0.86242367351E+02  0.29785234897E+03  0.26265737374E+03 0.  0.
         25    1    4    4    0    0 -0.31955630809E+02  0.37990718184E+02 -0.55295685852E+02  0.14549769064E+03  0.12509000000E+03 0.  0.
         25    1    4    4    0    0  0.36178615535E+02  0.72786293336E+02 -0.30946681498E+02  0.15235465833E+03  0.12509000000E+03 0.  0.
         25    1    3    3    0    0 -0.42229847255E+01 -0.11077701152E+03 -0.12451069846E+03  0.20842217256E+03  0.12509000000E+03 0.  0.
<mgrwt>
<rscale>  2 0.46032275E+03</rscale>
<asrwt>0</asrwt>
<pdfrwt beam="1">  1       21 0.21729519E-01 0.46032275E+03</pdfrwt>
<pdfrwt beam="2">  1       21 0.52722616E-01 0.46032275E+03</pdfrwt>
<totfact> 0.62163851E+04</totfact>
</mgrwt>
</event>
<event>
 7    0  0.4685107E-002  0.4417038E+03  0.7546771E-02  0.1030225E+00
         21   -1    0    0  502  501  0.00000000000E+00  0.00000000000E+00  0.97202577101E+02  0.97202577101E+02  0.00000000000E+00 0. -1.
         21   -1    0    0  501  502 -0.00000000000E+00 -0.00000000000E+00 -0.50179278555E+03  0.50179278555E+03  0.00000000000E+00 0. -1.
      99926    2    1    2    0    0  0.00000000000E+00 -0.71054273576E-14 -0.40459020845E+03  0.59899536265E+03  0.44170375559E+03 0.  0.
      99925    2    3    3    0    0 -0.80270677003E+02 -0.56454325908E+02 -0.23014030102E+03  0.36296411302E+03  0.26295991460E+03 0.  0.
         25    1    4    4    0    0 -0.46465803765E+02  0.12263140648E+02 -0.10959656935E+03  0.17311375350E+03  0.12509000000E+03 0.  0.
         25    1    4    4    0    0 -0.33804873238E+02 -0.68717466557E+02 -0.12054373168E+03  0.18985035952E+03  0.12509000000E+03 0.  0.
         25    1    3    3    0    0  0.80270677003E+02  0.56454325908E+02 -0.17444990742E+03  0.23603124963E+03  0.12509000000E+03 0.  0.
<mgrwt>
<rscale>  2 0.44170376E+03</rscale>
<asrwt>0</asrwt>
<pdfrwt beam="1">  1       21 0.14294496E-01 0.44170376E+03</pdfrwt>
<pdfrwt beam="2">  1       21 0.73793058E-01 0.44170376E+03</pdfrwt>
<totfact> 0.65338364E+04</totfact>
</mgrwt>
</event>
<event>
 7    0  0.4685107E-002  0.4464670E+03  0.7546771E-02  0.1028781E+00
         21   -1    0    0  502  501  0.00000000000E+00  0.00000000000E+00  0.11992011975E+04  0.11992011975E+04  0.00000000000E+00 0.  1.
         21   -1    0    0  501  502 -0.00000000000E+00 -0.00000000000E+00 -0.41555325844E+02  0.41555325844E+02  0.00000000000E+00 0.  1.
      99926    2    1    2    0    0 -0.35527136788E-14  0.71054273576E-14  0.11576458717E+04  0.12407565234E+04  0.44646700445E+03 0.  0.
      99925    2    3    3    0    0  0.15179551676E+02  0.35059598677E+02  0.46254139312E+03  0.53345366146E+03  0.26299938085E+03 0.  0.
         25    1    4    4    0    0  0.47878960976E+02  0.23044911115E+02  0.23743786061E+03  0.27358309265E+03  0.12509000000E+03 0.  0.
         25    1    4    4    0    0 -0.32699409300E+02  0.12014687562E+02  0.22510353251E+03  0.25987056881E+03  0.12509000000E+03 0.  0.
         25    1    3    3    0    0 -0.15179551676E+02 -0.35059598677E+02  0.69510447855E+03  0.70730286190E+03  0.12509000000E+03 0.  0.
<mgrwt>
<rscale>  2 0.44646700E+03</rscale>
<asrwt>0</asrwt>
<pdfrwt beam="1">  1       21 0.17635309E+00 0.44646700E+03</pdfrwt>
<pdfrwt beam="2">  1       21 0.61110781E-02 0.44646700E+03</pdfrwt>
<totfact> 0.33024714E+04</totfact>
</mgrwt>
</event>
<event>
 7    0  0.4685107E-002  0.4554346E+03  0.7546771E-02  0.1026114E+00
         21   -1    0    0  502  501  0.00000000000E+00  0.00000000000E+00  0.15493544539E+04  0.15493544539E+04  0.00000000000E+00 0.  1.
         21   -1    0    0  501  502 -0.00000000000E+00 -0.00000000000E+00 -0.33468892110E+02  0.33468892110E+02  0.00000000000E+00 0.  1.
      99926    2    1    2    0    0  0.00000000000E+00  0.14210854715E-13  0.15158855618E+04  0.15828233460E+04  0.45543463662E+03 0.  0.
      99925    2    3    3    0    0  0.49623267063E+02 -0.10197753735E+03  0.93284326154E+03  0.97582440142E+03  0.26301107398E+03 0.  0.
         25    1    4    4    0    0  0.21765641611E+02 -0.49448847177E+02  0.60070800094E+03  0.61596797168E+03  0.12509000000E+03 0.  0.
         25    1    3    3    0    0 -0.49623267063E+02  0.10197753735E+03  0.58304230025E+03  0.60699894459E+03  0.12509000000E+03 0.  0.
         25    1    4    4    0    0  0.27857625451E+02 -0.52528690178E+02  0.33213526060E+03  0.35985642974E+03  0.12509000000E+03 0.  0.
<mgrwt>
<rscale>  2 0.45543464E+03</rscale>
<asrwt>0</asrwt>
<pdfrwt beam="1">  1       21 0.22784619E+00 0.45543464E+03</pdfrwt>
<pdfrwt beam="2">  1       21 0.49218970E-02 0.45543464E+03</pdfrwt>
<totfact> 0.21746749E+04</totfact>
</mgrwt>
</event>
<event>
 7    0  0.4685107E-002  0.4565716E+03  0.7546771E-02  0.1025780E+00
         21   -1    0    0  502  501  0.00000000000E+00  0.00000000000E+00  0.32566252082E+02  0.32566252082E+02  0.00000000000E+00 0.  1.
         21   -1    0    0  501  502 -0.00000000000E+00 -0.00000000000E+00 -0.16002579589E+04  0.16002579589E+04  0.00000000000E+00 0.  1.
      99926    2    1    2    0    0  0.00000000000E+00 -0.35527136788E-14 -0.15676917068E+04  0.16328242110E+04  0.45657158950E+03 0.  0.
      99925    2    3    3    0    0  0.11334523390E+03  0.15901208145E+02 -0.99848794953E+03  0.10389046744E+04  0.26314396585E+03 0.  0.
         25    1    3    3    0    0 -0.11334523390E+03 -0.15901208145E+02 -0.56920375726E+03  0.59391953651E+03  0.12509000000E+03 0.  0.
         25    1    4    4    0    0  0.24047223059E+02 -0.19196662608E+01 -0.54706924468E+03  0.56170652535E+03  0.12509000000E+03 0.  0.
         25    1    4    4    0    0  0.89298010837E+02  0.17820874405E+02 -0.45141870486E+03  0.47719814910E+03  0.12509000000E+03 0.  0.
<mgrwt>
<rscale>  2 0.45657159E+03</rscale>
<asrwt>0</asrwt>
<pdfrwt beam="1">  1       21 0.47891528E-02 0.45657159E+03</pdfrwt>
<pdfrwt beam="2">  1       21 0.23533215E+00 0.45657159E+03</pdfrwt>
<totfact> 0.20447419E+04</totfact>
</mgrwt>
</event>
<event>
 7    0  0.4685107E-002  0.4551048E+03  0.7546771E-02  0.1026211E+00
         21   -1    0    0  502  501  0.00000000000E+00  0.00000000000E+00  0.46793251842E+03  0.46793251842E+03  0.00000000000E+00 0.  1.
         21   -1    0    0  501  502 -0.00000000000E+00 -0.00000000000E+00 -0.11065716418E+03  0.11065716418E+03  0.00000000000E+00 0.  1.
      99926    2    1    2    0    0  0.00000000000E+00  0.71054273576E-14  0.35727535424E+03  0.57858968260E+03  0.45510475944E+03 0.  0.
      99925    2    3    3    0    0 -0.36736306862E+02  0.51822174256E+02  0.10558689666E+03  0.29044096793E+03  0.26300621499E+03 0.  0.
         25    1    4    4    0    0 -0.55171176014E+02  0.15597319634E+02  0.68918258911E+02  0.15389726948E+03  0.12509000000E+03 0.  0.
         25    1    3    3    0    0  0.36736306862E+02 -0.51822174256E+02  0.25168845758E+03  0.28814871467E+03  0.12509000000E+03 0.  0.
         25    1    4    4    0    0  0.18434869152E+02  0.36224854622E+02  0.36668637749E+02  0.13654369845E+03  0.12509000000E+03 0.  0.
<mgrwt>
<rscale>  2 0.45510476E+03</rscale>
<asrwt>0</asrwt>
<pdfrwt beam="1">  1       21 0.68813605E-01 0.45510476E+03</pdfrwt>
<pdfrwt beam="2">  1       21 0.16273113E-01 0.45510476E+03</pdfrwt>
<totfact> 0.59966187E+04</totfact>
</mgrwt>
</event>
<event>
 7    0  0.4685107E-002  0.4078261E+03  0.7546771E-02  0.1041103E+00
         21   -1    0    0  502  501  0.00000000000E+00  0.00000000000E+00  0.71930519740E+03  0.71930519740E+03  0.00000000000E+00 0. -1.
         21   -1    0    0  501  502 -0.00000000000E+00 -0.00000000000E+00 -0.57806509957E+02  0.57806509957E+02  0.00000000000E+00 0. -1.
      99926    2    1    2    0    0  0.00000000000E+00  0.35527136788E-14  0.66149868744E+03  0.77711170735E+03  0.40782605633E+03 0.  0.
      99925    2    3    3    0    0  0.19463531989E+02 -0.23057419360E+02  0.34136716968E+03  0.43208682357E+03  0.26316725652E+03 0.  0.
         25    1    4    4    0    0  0.45711488750E+02 -0.18864283299E+02  0.14531897502E+03  0.19801644879E+03  0.12509000000E+03 0.  0.
         25    1    4    4    0    0 -0.26247956761E+02 -0.41931360609E+01  0.19604819466E+03  0.23407037479E+03  0.12509000000E+03 0.  0.
         25    1    3    3    0    0 -0.19463531989E+02  0.23057419360E+02  0.32013151776E+03  0.34502488378E+03  0.12509000000E+03 0.  0.
<mgrwt>
<rscale>  2 0.40782606E+03</rscale>
<asrwt>0</asrwt>
<pdfrwt beam="1">  1       21 0.10578017E+00 0.40782606E+03</pdfrwt>
<pdfrwt beam="2">  1       21 0.85009578E-02 0.40782606E+03</pdfrwt>
<totfact> 0.72111351E+04</totfact>
</mgrwt>
</event>
<event>
 6    0  0.4685107E-002  0.4545624E+03  0.7546771E-02  0.1026370E+00
         21   -1    0    0  502  501  0.00000000000E+00  0.00000000000E+00  0.26862389037E+03  0.26862389037E+03  0.00000000000E+00 0.  1.
         21   -1    0    0  501  502 -0.00000000000E+00 -0.00000000000E+00 -0.19230141056E+03  0.19230141056E+03  0.00000000000E+00 0.  1.
      99926    2    1    2    0    0  0.00000000000E+00 -0.35527136788E-14  0.76322479813E+02  0.46092530094E+03  0.45456244029E+03 0.  0.
         25    1    3    3    0    0  0.78304631339E+02 -0.30177817448E+02 -0.45517268601E+02  0.15735833564E+03  0.12509000000E+03 0.  0.
         25    1    3    3    0    0 -0.88578736402E+01 -0.16691232794E+02  0.68342226982E+02  0.14378882873E+03  0.12509000000E+03 0.  0.
         25    1    3    3    0    0 -0.69446757699E+02  0.46869050242E+02  0.53497521432E+02  0.15977813657E+03  0.12509000000E+03 0.  0.
<mgrwt>
<rscale>  2 0.45456244E+03</rscale>
<asrwt>0</asrwt>
<pdfrwt beam="1">  1       21 0.39503513E-01 0.45456244E+03</pdfrwt>
<pdfrwt beam="2">  1       21 0.28279619E-01 0.45456244E+03</pdfrwt>
<totfact> 0.68351061E+04</totfact>
</mgrwt>
</event>
<event>
 7    0  0.4685107E-002  0.4532777E+03  0.7546771E-02  0.1026749E+00
         21   -1    0    0  502  501  0.00000000000E+00  0.00000000000E+00  0.38170584068E+02  0.38170584068E+02  0.00000000000E+00 0. -1.
         21   -1    0    0  501  502 -0.00000000000E+00 -0.00000000000E+00 -0.13456741932E+04  0.13456741932E+04  0.00000000000E+00 0. -1.
      99926    2    1    2    0    0  0.88817841970E-15  0.00000000000E+00 -0.13075036091E+04  0.13838447773E+04  0.45327770701E+03 0.  0.
      99925    2    3    3    0    0  0.71918960417E+01  0.10906293067E+03 -0.75411914204E+03  0.80606599371E+03  0.26286928234E+03 0.  0.
         25    1    4    4    0    0 -0.24200717659E+02  0.35728747381E+02 -0.28888465188E+03  0.31774843559E+03  0.12509000000E+03 0.  0.
         25    1    3    3    0    0 -0.71918960417E+01 -0.10906293067E+03 -0.55338446708E+03  0.57777878355E+03  0.12509000000E+03 0.  0.
         25    1    4    4    0    0  0.31392613701E+02  0.73334183292E+02 -0.46523449016E+03  0.48831755812E+03  0.12509000000E+03 0.  0.
<mgrwt>
<rscale>  2 0.45327771E+03</rscale>
<asrwt>0</asrwt>
<pdfrwt beam="1">  1       21 0.56133215E-02 0.45327771E+03</pdfrwt>
<pdfrwt beam="2">  1       21 0.19789325E+00 0.45327771E+03</pdfrwt>
<totfact> 0.27127003E+04</totfact>
</mgrwt>
</event>
<event>
 7    0  0.4685107E-002  0.4553558E+03  0.7546771E-02  0.1026137E+00
         21   -1    0    0  502  501  0.00000000000E+00  0.00000000000E+00  0.10294865354E+03  0.10294865354E+03  0.00000000000E+00 0. -1.
         21   -1    0    0  501  502 -0.00000000000E+00 -0.00000000000E+00 -0.50352496732E+03  0.50352496732E+03  0.00000000000E+00 0. -1.
      99926    2    1    2    0    0  0.00000000000E+00 -0.71054273576E-14 -0.40057631378E+03  0.60647362086E+03  0.45535576161E+03 0.  0.
      99925    2    3    3    0    0 -0.76820712825E+02  0.60391298065E+02 -0.17491347947E+03  0.33057553516E+03  0.26293902020E+03 0.  0.
         25    1    4    4    0    0 -0.73767583730E+02  0.50795923306E+02 -0.11123841453E+03  0.18985092889E+03  0.12509000000E+03 0.  0.
         25    1    3    3    0    0  0.76820712825E+02 -0.60391298065E+02 -0.22566283432E+03  0.27589808570E+03  0.12509000000E+03 0.  0.
         25    1    4    4    0    0 -0.30531290947E+01  0.95953747589E+01 -0.63675064936E+02  0.14072460627E+03  0.12509000000E+03 0.  0.
<mgrwt>
<rscale>  2 0.45535576E+03</rscale>
<asrwt>0</asrwt>
<pdfrwt beam="1">  1       21 0.15139508E-01 0.45535576E+03</pdfrwt>
<pdfrwt beam="2">  1       21 0.74047788E-01 0.45535576E+03</pdfrwt>
<totfact> 0.58118051E+04</totfact>
</mgrwt>
</event>
<event>
 7    0  0.4685107E-002  0.4639544E+03  0.7546771E-02  0.1023641E+00
         21   -1    0    0  502  501  0.00000000000E+00  0.00000000000E+00  0.20511132731E+03  0.20511132731E+03  0.00000000000E+00 0.  1.
         21   -1    0    0  501  502 -0.00000000000E+00 -0.00000000000E+00 -0.26236206911E+03  0.26236206911E+03  0.00000000000E+00 0.  1.
      99926    2    1    2    0    0  0.00000000000E+00  0.00000000000E+00 -0.57250741801E+02  0.46747339642E+03  0.46395444703E+03 0.  0.
      99925    2    3    3    0    0 -0.28867646080E+02  0.67212500871E+02  0.61926591402E+02  0.27985248577E+03  0.26292898244E+03 0.  0.
         25    1    3    3    0    0  0.28867646080E+02 -0.67212500871E+02 -0.11917733320E+03  0.18762091065E+03  0.12509000000E+03 0.  0.
         25    1    4    4    0    0 -0.29120635414E+02  0.12501582028E+02 -0.20881272740E+01  0.12905878248E+03  0.12509000000E+03 0.  0.
         25    1    4    4    0    0  0.25298933435E+00  0.54710918843E+02  0.64014718676E+02  0.15079370329E+03  0.12509000000E+03 0.  0.
<mgrwt>
<rscale>  2 0.46395445E+03</rscale>
<asrwt>0</asrwt>
<pdfrwt beam="1">  1       21 0.30163431E-01 0.46395445E+03</pdfrwt>
<pdfrwt beam="2">  1       21 0.38582657E-01 0.46395445E+03</pdfrwt>
<totfact> 0.63017471E+04</totfact>
</mgrwt>
</event>
<event>
 7    0  0.4685107E-002  0.4545058E+03  0.7546771E-02  0.1026387E+00
         21   -1    0    0  502  501  0.00000000000E+00  0.00000000000E+00  0.21269493526E+03  0.21269493526E+03  0.00000000000E+00 0. -1.
         21   -1    0    0  501  502 -0.00000000000E+00 -0.00000000000E+00 -0.24280728179E+03  0.24280728179E+03  0.00000000000E+00 0. -1.
      99926    2    1    2    0    0  0.00000000000E+00  0.00000000000E+00 -0.30112346538E+02  0.45550221705E+03  0.45450579350E+03 0.  0.
      99925    2    3    3    0    0  0.93485260901E+02 -0.49407419679E+02 -0.57437185411E+02  0.28944577470E+03  0.26324748641E+03 0.  0.
         25    1    3    3    0    0 -0.93485260901E+02  0.49407419679E+02  0.27324838873E+02  0.16605644235E+03  0.12509000000E+03 0.  0.
         25    1    4    4    0    0  0.38923982046E+02  0.16214047271E+02 -0.32880192367E+02  0.13603891670E+03  0.12509000000E+03 0.  0.
         25    1    4    4    0    0  0.54561278855E+02 -0.65621466950E+02 -0.24556993043E+02  0.15340685800E+03  0.12509000000E+03 0.  0.
<mgrwt>
<rscale>  2 0.45450579E+03</rscale>
<asrwt>0</asrwt>
<pdfrwt beam="1">  1       21 0.31278667E-01 0.45450579E+03</pdfrwt>
<pdfrwt beam="2">  1       21 0.35706953E-01 0.45450579E+03</pdfrwt>
<totfact> 0.68779863E+04</totfact>
</mgrwt>
</event>
<event>
 7    0  0.4685107E-002  0.4468672E+03  0.7546771E-02  0.1028660E+00
         21   -1    0    0  502  501  0.00000000000E+00  0.00000000000E+00  0.14752764898E+02  0.14752764898E+02  0.00000000000E+00 0.  1.
         21   -1    0    0  501  502 -0.00000000000E+00 -0.00000000000E+00 -0.33839471744E+04  0.33839471744E+04  0.00000000000E+00 0.  1.
      99926    2    1    2    0    0  0.00000000000E+00  0.71054273576E-14 -0.33691944095E+04  0.33986999393E+04  0.44686721559E+03 0.  0.
      99925    2    3    3    0    0 -0.93628059823E+02  0.48653979691E+02 -0.21745573891E+04  0.21929061999E+04  0.26268677127E+03 0.  0.
         25    1    4    4    0    0 -0.38231184331E+02 -0.31012072877E+01 -0.80546452745E+03  0.81602196908E+03  0.12509000000E+03 0.  0.
         25    1    3    3    0    0  0.93628059823E+02 -0.48653979691E+02 -0.11946370204E+04  0.12057937394E+04  0.12509000000E+03 0.  0.
         25    1    4    4    0    0 -0.55396875492E+02  0.51755186979E+02 -0.13690928616E+04  0.13768842308E+04  0.12509000000E+03 0.  0.
<mgrwt>
<rscale>  2 0.44686722E+03</rscale>
<asrwt>0</asrwt>
<pdfrwt beam="1">  1       21 0.21695200E-02 0.44686722E+03</pdfrwt>
<pdfrwt beam="2">  1       21 0.49764027E+00 0.44686722E+03</pdfrwt>
<totfact> 0.16734612E+03</totfact>
</mgrwt>
</event>
<event>
 7    0  0.4685107E-002  0.4478518E+03  0.7546771E-02  0.1028365E+00
         21   -1    0    0  502  501  0.00000000000E+00  0.00000000000E+00  0.94475983490E+02  0.94475983490E+02  0.00000000000E+00 0.  1.
         21   -1    0    0  501  502 -0.00000000000E+00 -0.00000000000E+00 -0.53074663041E+03  0.53074663041E+03  0.00000000000E+00 0.  1.
      99926    2    1    2    0    0  0.00000000000E+00  0.00000000000E+00 -0.43627064692E+03  0.62522261390E+03  0.44785180537E+03 0.  0.
      99925    2    3    3    0    0  0.60225367738E+02  0.84976901434E+02 -0.24741323136E+03  0.37589792558E+03  0.26313071790E+03 0.  0.
         25    1    4    4    0    0  0.10933226415E+02  0.35221370414E+02 -0.70698696864E+02  0.14834383780E+03  0.12509000000E+03 0.  0.
         25    1    4    4    0    0  0.49292141323E+02  0.49755531020E+02 -0.17671453450E+03  0.22755408778E+03  0.12509000000E+03 0.  0.
         25    1    3    3    0    0 -0.60225367738E+02 -0.84976901434E+02 -0.18885741556E+03  0.24932468833E+03  0.12509000000E+03 0.  0.
<mgrwt>
<rscale>  2 0.44785181E+03</rscale>
<asrwt>0</asrwt>
<pdfrwt beam="1">  1       21 0.13893527E-01 0.44785181E+03</pdfrwt>
<pdfrwt beam="2">  1       21 0.78050973E-01 0.44785181E+03</pdfrwt>
<totfact> 0.60494335E+04</totfact>
</mgrwt>
</event>
<event>
 7    0  0.4685107E-002  0.4590373E+03  0.7546771E-02  0.1025061E+00
         21   -1    0    0  502  501  0.00000000000E+00  0.00000000000E+00  0.10560404862E+04  0.10560404862E+04  0.00000000000E+00 0.  1.
         21   -1    0    0  501  502 -0.00000000000E+00 -0.00000000000E+00 -0.49883328215E+02  0.49883328215E+02  0.00000000000E+00 0.  1.
      99926    2    1    2    0    0  0.00000000000E+00  0.35527136788E-14  0.10061571579E+04  0.11059238144E+04  0.45903731517E+03 0.  0.
      99925    2    3    3    0    0 -0.54393872081E+02 -0.18750097545E+02  0.87600766327E+03  0.91645967913E+03  0.26305637778E+03 0.  0.
         25    1    3    3    0    0  0.54393872081E+02  0.18750097545E+02  0.13014949467E+03  0.18946413523E+03  0.12509000000E+03 0.  0.
         25    1    4    4    0    0  0.10031698436E+02  0.21578849679E+01  0.45935262932E+03  0.47619075758E+03  0.12509000000E+03 0.  0.
         25    1    4    4    0    0 -0.64425570517E+02 -0.20907982513E+02  0.41665503395E+03  0.44026892155E+03  0.12509000000E+03 0.  0.
<mgrwt>
<rscale>  2 0.45903732E+03</rscale>
<asrwt>0</asrwt>
<pdfrwt beam="1">  1       21 0.15530006E+00 0.45903732E+03</pdfrwt>
<pdfrwt beam="2">  1       21 0.73357843E-02 0.45903732E+03</pdfrwt>
<totfact> 0.34199001E+04</totfact>
</mgrwt>
</event>
<event>
 7    0  0.4685107E-002  0.4599493E+03  0.7546771E-02  0.1024796E+00
         21   -1    0    0  502  501  0.00000000000E+00  0.00000000000E+00  0.33509599615E+03  0.33509599615E+03  0.00000000000E+00 0.  1.
         21   -1    0    0  501  502 -0.00000000000E+00 -0.00000000000E+00 -0.15783040296E+03  0.15783040296E+03  0.00000000000E+00 0.  1.
      99926    2    1    2    0    0  0.00000000000E+00  0.00000000000E+00  0.17726559319E+03  0.49292639911E+03  0.45994928461E+03 0.  0.
      99925    2    3    3    0    0  0.38437478824E+02 -0.61474090998E+02  0.21035305586E+03  0.34460650184E+03  0.26315153307E+03 0.  0.
         25    1    4    4    0    0  0.11873987204E+02  0.98496422949E+01  0.10766768302E+03  0.16576442650E+03  0.12509000000E+03 0.  0.
         25    1    4    4    0    0  0.26563491620E+02 -0.71323733293E+02  0.10268537284E+03  0.17884207534E+03  0.12509000000E+03 0.  0.
         25    1    3    3    0    0 -0.38437478824E+02  0.61474090998E+02 -0.33087462662E+02  0.14831989728E+03  0.12509000000E+03 0.  0.
<mgrwt>
<rscale>  2 0.45994928E+03</rscale>
<asrwt>0</asrwt>
<pdfrwt beam="1">  1       21 0.49278823E-01 0.45994928E+03</pdfrwt>
<pdfrwt beam="2">  1       21 0.23210353E-01 0.45994928E+03</pdfrwt>
<totfact> 0.63248661E+04</totfact>
</mgrwt>
</event>
<event>
 7    0  0.4685107E-002  0.4466786E+03  0.7546771E-02  0.1028717E+00
         21   -1    0    0  502  501  0.00000000000E+00  0.00000000000E+00  0.30445218440E+02  0.30445218440E+02  0.00000000000E+00 0. -1.
         21   -1    0    0  501  502 -0.00000000000E+00 -0.00000000000E+00 -0.16383667215E+04  0.16383667215E+04  0.00000000000E+00 0. -1.
      99926    2    1    2    0    0 -0.35527136788E-14  0.00000000000E+00 -0.16079215031E+04  0.16688119400E+04  0.44667855432E+03 0.  0.
      99925    2    3    3    0    0 -0.29490062744E+02  0.86635551267E+02 -0.12130682298E+04  0.12446280198E+04  0.26303801085E+03 0.  0.
         25    1    3    3    0    0  0.29490062744E+02 -0.86635551267E+02 -0.39485327332E+03  0.42418392012E+03  0.12509000000E+03 0.  0.
         25    1    4    4    0    0  0.21810728814E+02  0.55445425696E+02 -0.54846753711E+03  0.56569784380E+03  0.12509000000E+03 0.  0.
         25    1    4    4    0    0 -0.51300791558E+02  0.31190125571E+02 -0.66460069267E+03  0.67893017605E+03  0.12509000000E+03 0.  0.
<mgrwt>
<rscale>  2 0.44667855E+03</rscale>
<asrwt>0</asrwt>
<pdfrwt beam="1">  1       21 0.44772380E-02 0.44667855E+03</pdfrwt>
<pdfrwt beam="2">  1       21 0.24093628E+00 0.44667855E+03</pdfrwt>
<totfact> 0.21259343E+04</totfact>
</mgrwt>
</event>
<event>
 7    0  0.4685107E-002  0.4683050E+03  0.7546771E-02  0.1022400E+00
         21   -1    0    0  502  501  0.00000000000E+00  0.00000000000E+00  0.91077253973E+02  0.91077253973E+02  0.00000000000E+00 0.  1.
         21   -1    0    0  501  502 -0.00000000000E+00 -0.00000000000E+00 -0.60198768153E+03  0.60198768153E+03  0.00000000000E+00 0.  1.
      99926    2    1    2    0    0  0.00000000000E+00  0.00000000000E+00 -0.51091042756E+03  0.69306493551E+03  0.46830496457E+03 0.  0.
      99925    2    3    3    0    0  0.11263121286E+03 -0.37517997125E+02 -0.37658023006E+03  0.47446598702E+03  0.26308157091E+03 0.  0.
         25    1    4    4    0    0  0.99572510848E+02 -0.29172613200E+02 -0.20733290582E+03  0.26343911671E+03  0.12509000000E+03 0.  0.
         25    1    4    4    0    0  0.13058702008E+02 -0.83453839256E+01 -0.16924732424E+03  0.21102687031E+03  0.12509000000E+03 0.  0.
         25    1    3    3    0    0 -0.11263121286E+03  0.37517997125E+02 -0.13433019750E+03  0.21859894848E+03  0.12509000000E+03 0.  0.
<mgrwt>
<rscale>  2 0.46830496E+03</rscale>
<asrwt>0</asrwt>
<pdfrwt beam="1">  1       21 0.13393713E-01 0.46830496E+03</pdfrwt>
<pdfrwt beam="2">  1       21 0.88527603E-01 0.46830496E+03</pdfrwt>
<totfact> 0.48045478E+04</totfact>
</mgrwt>
</event>
<event>
 7    0  0.4685107E-002  0.4566730E+03  0.7546771E-02  0.1025751E+00
         21   -1    0    0  502  501  0.00000000000E+00  0.00000000000E+00  0.11047893786E+03  0.11047893786E+03  0.00000000000E+00 0.  1.
         21   -1    0    0  501  502 -0.00000000000E+00 -0.00000000000E+00 -0.47192295571E+03  0.47192295571E+03  0.00000000000E+00 0.  1.
      99926    2    1    2    0    0  0.00000000000E+00  0.00000000000E+00 -0.36144401785E+03  0.58240189357E+03  0.45667295475E+03 0.  0.
      99925    2    3    3    0    0  0.92800467227E+02 -0.22771344530E+02 -0.30805097485E+03  0.41618280324E+03  0.26302521126E+03 0.  0.
         25    1    4    4    0    0  0.68116328951E+02  0.12702286204E+02 -0.12265359787E+03  0.18839478633E+03  0.12509000000E+03 0.  0.
         25    1    3    3    0    0 -0.92800467227E+02  0.22771344530E+02 -0.53393042998E+02  0.16621909033E+03  0.12509000000E+03 0.  0.
         25    1    4    4    0    0  0.24684138276E+02 -0.35473630734E+02 -0.18539737698E+03  0.22778801691E+03  0.12509000000E+03 0.  0.
<mgrwt>
<rscale>  2 0.45667295E+03</rscale>
<asrwt>0</asrwt>
<pdfrwt beam="1">  1       21 0.16246903E-01 0.45667295E+03</pdfrwt>
<pdfrwt beam="2">  1       21 0.69400435E-01 0.45667295E+03</pdfrwt>
<totfact> 0.58990727E+04</totfact>
</mgrwt>
</event>
<event>
 7    0  0.4685107E-002  0.4254454E+03  0.7546771E-02  0.1035308E+00
         21   -1    0    0  502  501  0.00000000000E+00  0.00000000000E+00  0.54043262885E+03  0.54043262885E+03  0.00000000000E+00 0. -1.
         21   -1    0    0  501  502 -0.00000000000E+00 -0.00000000000E+00 -0.83730968828E+02  0.83730968828E+02  0.00000000000E+00 0. -1.
      99926    2    1    2    0    0  0.00000000000E+00  0.00000000000E+00  0.45670166002E+03  0.62416359767E+03  0.42544540237E+03 0.  0.
      99925    2    3    3    0    0  0.48187761895E+02  0.33137126136E+02  0.21007975624E+03  0.34151540460E+03  0.26282910431E+03 0.  0.
         25    1    4    4    0    0  0.95633006733E+01 -0.15014061918E+02  0.72900604714E+02  0.14587283861E+03  0.12509000000E+03 0.  0.
         25    1    4    4    0    0  0.38624461222E+02  0.48151188054E+02  0.13717915153E+03  0.19564256600E+03  0.12509000000E+03 0.  0.
         25    1    3    3    0    0 -0.48187761895E+02 -0.33137126136E+02  0.24662190377E+03  0.28264819307E+03  0.12509000000E+03 0.  0.
<mgrwt>
<rscale>  2 0.42544540E+03</rscale>
<asrwt>0</asrwt>
<pdfrwt beam="1">  1       21 0.79475385E-01 0.42544540E+03</pdfrwt>
<pdfrwt beam="2">  1       21 0.12313378E-01 0.42544540E+03</pdfrwt>
<totfact> 0.72757772E+04</totfact>
</mgrwt>
</event>
<event>
 7    0  0.4685107E-002  0.4695617E+03  0.7546771E-02  0.1022044E+00
         21   -1    0    0  502  501  0.00000000000E+00  0.00000000000E+00  0.72601540960E+03  0.72601540960E+03  0.00000000000E+00 0. -1.
         21   -1    0    0  501  502 -0.00000000000E+00 -0.00000000000E+00 -0.75924088705E+02  0.75924088705E+02  0.00000000000E+00 0. -1.
      99926    2    1    2    0    0 -0.88817841970E-15  0.00000000000E+00  0.65009132089E+03  0.80193949830E+03  0.46956174614E+03 0.  0.
      99925    2    3    3    0    0 -0.45371203468E+01  0.16389719332E+02  0.61784117684E+03  0.67164449359E+03  0.26284862110E+03 0.  0.
         25    1    3    3    0    0  0.45371203468E+01 -0.16389719332E+02  0.32250144055E+02  0.13029500471E+03  0.12509000000E+03 0.  0.
         25    1    4    4    0    0 -0.26594749102E+02  0.12315349563E+02  0.22920457414E+03  0.26275690937E+03  0.12509000000E+03 0.  0.
         25    1    4    4    0    0  0.22057628755E+02  0.40743697690E+01  0.38863660269E+03  0.40888758422E+03  0.12509000000E+03 0.  0.
<mgrwt>
<rscale>  2 0.46956175E+03</rscale>
<asrwt>0</asrwt>
<pdfrwt beam="1">  1       21 0.10676697E+00 0.46956175E+03</pdfrwt>
<pdfrwt beam="2">  1       21 0.11165308E-01 0.46956175E+03</pdfrwt>
<totfact> 0.42591392E+04</totfact>
</mgrwt>
</event>
<event>
 7    0  0.4685107E-002  0.4477232E+03  0.7546771E-02  0.1028403E+00
         21   -1    0    0  502  501  0.00000000000E+00  0.00000000000E+00  0.13484032458E+02  0.13484032458E+02  0.00000000000E+00 0.  1.
         21   -1    0    0  501  502 -0.00000000000E+00 -0.00000000000E+00 -0.37165447039E+04  0.37165447039E+04  0.00000000000E+00 0.  1.
      99926    2    1    2    0    0  0.00000000000E+00  0.00000000000E+00 -0.37030606715E+04  0.37300287364E+04  0.44772317081E+03 0.  0.
      99925    2    3    3    0    0  0.73418907090E+02  0.22518774334E+02 -0.29573640716E+04  0.29700232375E+04  0.26294172061E+03 0.  0.
         25    1    4    4    0    0  0.74261188510E+02 -0.36046500785E+01 -0.16736428597E+04  0.16799570374E+04  0.12509000000E+03 0.  0.
         25    1    4    4    0    0 -0.84228142044E+00  0.26123424413E+02 -0.12837212119E+04  0.12900662001E+04  0.12509000000E+03 0.  0.
         25    1    3    3    0    0 -0.73418907090E+02 -0.22518774334E+02 -0.74569659988E+03  0.76000549886E+03  0.12509000000E+03 0.  0.
<mgrwt>
<rscale>  2 0.44772317E+03</rscale>
<asrwt>0</asrwt>
<pdfrwt beam="1">  1       21 0.19829439E-02 0.44772317E+03</pdfrwt>
<pdfrwt beam="2">  1       21 0.54655126E+00 0.44772317E+03</pdfrwt>
<totfact> 0.85370313E+02</totfact>
</mgrwt>
</event>
<event>
 7    0  0.4685107E-002  0.4093862E+03  0.7546771E-02  0.1040577E+00
         21   -1    0    0  502  501  0.00000000000E+00  0.00000000000E+00  0.34271865187E+03  0.34271865187E+03  0.00000000000E+00 0.  1.
         21   -1    0    0  501  502 -0.00000000000E+00 -0.00000000000E+00 -0.12225554882E+03  0.12225554882E+03  0.00000000000E+00 0.  1.
      99926    2    1    2    0    0  0.00000000000E+00  0.00000000000E+00  0.22046310305E+03  0.46497420069E+03  0.40938615939E+03 0.  0.
      99925    2    3    3    0    0 -0.32137492268E+02 -0.38851156040E+02  0.18494624160E+03  0.32550669091E+03  0.26307273293E+03 0.  0.
         25    1    3    3    0    0  0.32137492268E+02  0.38851156040E+02  0.35516861453E+02  0.13946750977E+03  0.12509000000E+03 0.  0.
         25    1    4    4    0    0 -0.37128113333E+02 -0.50551147874E+02  0.76583933562E+02  0.15951966127E+03  0.12509000000E+03 0.  0.
         25    1    4    4    0    0  0.49906210653E+01  0.11699991834E+02  0.10836230804E+03  0.16598702965E+03  0.12509000000E+03 0.  0.
<mgrwt>
<rscale>  2 0.40938616E+03</rscale>
<asrwt>0</asrwt>
<pdfrwt beam="1">  1       21 0.50399801E-01 0.40938616E+03</pdfrwt>
<pdfrwt beam="2">  1       21 0.17978757E-01 0.40938616E+03</pdfrwt>
<totfact> 0.99119130E+04</totfact>
</mgrwt>
</event>
<event>
 7    0  0.4685107E-002  0.4532519E+03  0.7546771E-02  0.1026757E+00
         21   -1    0    0  502  501  0.00000000000E+00  0.00000000000E+00  0.13600910458E+03  0.13600910458E+03  0.00000000000E+00 0. -1.
         21   -1    0    0  501  502 -0.00000000000E+00 -0.00000000000E+00 -0.37761672265E+03  0.37761672265E+03  0.00000000000E+00 0. -1.
      99926    2    1    2    0    0  0.00000000000E+00  0.00000000000E+00 -0.24160761807E+03  0.51362582724E+03  0.45325186078E+03 0.  0.
      99925    2    3    3    0    0 -0.86901435774E+02  0.65728403547E+02 -0.12926424537E+03  0.31327457553E+03  0.26374160075E+03 0.  0.
         25    1    4    4    0    0 -0.10012511960E+02  0.58224231139E+02 -0.62746224665E+02  0.15190427347E+03  0.12509000000E+03 0.  0.
         25    1    3    3    0    0  0.86901435774E+02 -0.65728403547E+02 -0.11234337270E+03  0.20035125171E+03  0.12509000000E+03 0.  0.
         25    1    4    4    0    0 -0.76888923814E+02  0.75041724074E+01 -0.66518020702E+02  0.16137030206E+03  0.12509000000E+03 0.  0.
<mgrwt>
<rscale>  2 0.45325186E+03</rscale>
<asrwt>0</asrwt>
<pdfrwt beam="1">  1       21 0.20001339E-01 0.45325186E+03</pdfrwt>
<pdfrwt beam="2">  1       21 0.55531872E-01 0.45325186E+03</pdfrwt>
<totfact> 0.65223707E+04</totfact>
</mgrwt>
</event>
<event>
 7    0  0.4685107E-002  0.4407372E+03  0.7546771E-02  0.1030521E+00
         21   -1    0    0  502  501  0.00000000000E+00  0.00000000000E+00  0.22913608469E+03  0.22913608469E+03  0.00000000000E+00 0. -1.
         21   -1    0    0  501  502 -0.00000000000E+00 -0.00000000000E+00 -0.21193661348E+03  0.21193661348E+03  0.00000000000E+00 0. -1.
      99926    2    1    2    0    0  0.00000000000E+00  0.00000000000E+00  0.17199471216E+02  0.44107269817E+03  0.44073722699E+03 0.  0.
      99925    2    3    3    0    0  0.56065413533E+02 -0.18865596042E+02  0.90599426580E+02  0.28443840162E+03  0.26305457021E+03 0.  0.
         25    1    4    4    0    0 -0.26192861951E+01 -0.34087426633E+02  0.31889654295E+02  0.13354127252E+03  0.12509000000E+03 0.  0.
         25    1    4    4    0    0  0.58684699728E+02  0.15221830591E+02  0.58709772284E+02  0.15089712910E+03  0.12509000000E+03 0.  0.
         25    1    3    3    0    0 -0.56065413533E+02  0.18865596042E+02 -0.73399955364E+02  0.15663429655E+03  0.12509000000E+03 0.  0.
<mgrwt>
<rscale>  2 0.44073723E+03</rscale>
<asrwt>0</asrwt>
<pdfrwt beam="1">  1       21 0.33696483E-01 0.44073723E+03</pdfrwt>
<pdfrwt beam="2">  1       21 0.31167149E-01 0.44073723E+03</pdfrwt>
<totfact> 0.78094375E+04</totfact>
</mgrwt>
</event>
<event>
 7    0  0.4685107E-002  0.4571012E+03  0.7546771E-02  0.1025625E+00
         21   -1    0    0  502  501  0.00000000000E+00  0.00000000000E+00  0.58880515883E+03  0.58880515883E+03  0.00000000000E+00 0.  1.
         21   -1    0    0  501  502 -0.00000000000E+00 -0.00000000000E+00 -0.88714188825E+02  0.88714188825E+02  0.00000000000E+00 0.  1.
      99926    2    1    2    0    0  0.00000000000E+00 -0.71054273576E-14  0.50009097000E+03  0.67751934765E+03  0.45710117935E+03 0.  0.
      99925    2    3    3    0    0 -0.10605739353E+03  0.42877854509E+02  0.33331242961E+03  0.43971844192E+03  0.26299895686E+03 0.  0.
         25    1    4    4    0    0 -0.47351734346E+02  0.32798812649E+01  0.21646416729E+03  0.25447433699E+03  0.12509000000E+03 0.  0.
         25    1    3    3    0    0  0.10605739353E+03 -0.42877854509E+02  0.16677854039E+03  0.23780090573E+03  0.12509000000E+03 0.  0.
         25    1    4    4    0    0 -0.58705659182E+02  0.39597973244E+02  0.11684826231E+03  0.18524410493E+03  0.12509000000E+03 0.  0.
<mgrwt>
<rscale>  2 0.45710118E+03</rscale>
<asrwt>0</asrwt>
<pdfrwt beam="1">  1       21 0.86588992E-01 0.45710118E+03</pdfrwt>
<pdfrwt beam="2">  1       21 0.13046205E-01 0.45710118E+03</pdfrwt>
<totfact> 0.53253813E+04</totfact>
</mgrwt>
</event>
<event>
 7    0  0.4685107E-002  0.4550350E+03  0.7546771E-02  0.1026231E+00
         21   -1    0    0  502  501  0.00000000000E+00  0.00000000000E+00  0.20210012699E+02  0.20210012699E+02  0.00000000000E+00 0. -1.
         21   -1    0    0  501  502 -0.00000000000E+00 -0.00000000000E+00 -0.25613156875E+04  0.25613156875E+04  0.00000000000E+00 0. -1.
      99926    2    1    2    0    0  0.00000000000E+00  0.00000000000E+00 -0.25411056748E+04  0.25815257002E+04  0.45503504291E+03 0.  0.
      99925    2    3    3    0    0 -0.35449565784E+02  0.83408258027E+02 -0.12105212478E+04  0.12420048775E+04  0.26268006186E+03 0.  0.
         25    1    4    4    0    0 -0.24590715190E+02  0.18824733666E+02 -0.72522749622E+03  0.73658774307E+03  0.12509000000E+03 0.  0.
         25    1    3    3    0    0  0.35449565784E+02 -0.83408258027E+02 -0.13305844269E+04  0.13395208227E+04  0.12509000000E+03 0.  0.
         25    1    4    4    0    0 -0.10858850594E+02  0.64583524361E+02 -0.48529375163E+03  0.50541713439E+03  0.12509000000E+03 0.  0.
<mgrwt>
<rscale>  2 0.45503504E+03</rscale>
<asrwt>0</asrwt>
<pdfrwt beam="1">  1       21 0.29720636E-02 0.45503504E+03</pdfrwt>
<pdfrwt beam="2">  1       21 0.37666370E+00 0.45503504E+03</pdfrwt>
<totfact> 0.63315190E+03</totfact>
</mgrwt>
</event>
<event>
 7    0  0.4685107E-002  0.4607734E+03  0.7546771E-02  0.1024557E+00
         21   -1    0    0  502  501  0.00000000000E+00  0.00000000000E+00  0.36902749107E+03  0.36902749107E+03  0.00000000000E+00 0.  1.
         21   -1    0    0  501  502 -0.00000000000E+00 -0.00000000000E+00 -0.14383219536E+03  0.14383219536E+03  0.00000000000E+00 0.  1.
      99926    2    1    2    0    0  0.35527136788E-14 -0.14210854715E-13  0.22519529571E+03  0.51285968643E+03  0.46077341151E+03 0.  0.
      99925    2    3    3    0    0 -0.30620575716E+02 -0.79531319204E+02  0.23264121332E+03  0.36131497296E+03  0.26298997159E+03 0.  0.
         25    1    3    3    0    0  0.30620575716E+02  0.79531319204E+02 -0.74459176170E+01  0.15154471347E+03  0.12509000000E+03 0.  0.
         25    1    4    4    0    0 -0.38441305506E+02 -0.36721952034E+02  0.16112544503E+03  0.21079647261E+03  0.12509000000E+03 0.  0.
         25    1    4    4    0    0  0.78207297898E+01 -0.42809367170E+02  0.71515768298E+02  0.15051850035E+03  0.12509000000E+03 0.  0.
<mgrwt>
<rscale>  2 0.46077341E+03</rscale>
<asrwt>0</asrwt>
<pdfrwt beam="1">  1       21 0.54268749E-01 0.46077341E+03</pdfrwt>
<pdfrwt beam="2">  1       21 0.21151793E-01 0.46077341E+03</pdfrwt>
<totfact> 0.61509303E+04</totfact>
</mgrwt>
</event>
<event>
 7    0  0.4685107E-002  0.4837360E+03  0.7546771E-02  0.1018113E+00
         21   -1    0    0  502  501  0.00000000000E+00  0.00000000000E+00  0.44292791613E+02  0.44292791613E+02  0.00000000000E+00 0. -1.
         21   -1    0    0  501  502 -0.00000000000E+00 -0.00000000000E+00 -0.13207597068E+04  0.13207597068E+04  0.00000000000E+00 0. -1.
      99926    2    1    2    0    0  0.00000000000E+00  0.44408920985E-15 -0.12764669152E+04  0.13650524984E+04  0.48373602084E+03 0.  0.
      99925    2    3    3    0    0  0.65016689113E+02 -0.18564318783E+01 -0.11289494608E+04  0.11609948505E+04  0.26296680742E+03 0.  0.
         25    1    4    4    0    0  0.44358915249E+02  0.66519447951E+01 -0.73932709464E+03  0.75117509457E+03  0.12509000000E+03 0.  0.
         25    1    4    4    0    0  0.20657773864E+02 -0.85083766734E+01 -0.38962236611E+03  0.40981975595E+03  0.12509000000E+03 0.  0.
         25    1    3    3    0    0 -0.65016689113E+02  0.18564318783E+01 -0.14751745446E+03  0.20405764792E+03  0.12509000000E+03 0.  0.
<mgrwt>
<rscale>  2 0.48373602E+03</rscale>
<asrwt>0</asrwt>
<pdfrwt beam="1">  1       21 0.65136460E-02 0.48373602E+03</pdfrwt>
<pdfrwt beam="2">  1       21 0.19422936E+00 0.48373602E+03</pdfrwt>
<totfact> 0.21949372E+04</totfact>
</mgrwt>
</event>
<event>
 7    0  0.4685107E-002  0.4506837E+03  0.7546771E-02  0.1027518E+00
         21   -1    0    0  502  501  0.00000000000E+00  0.00000000000E+00  0.92390728925E+03  0.92390728925E+03  0.00000000000E+00 0. -1.
         21   -1    0    0  501  502 -0.00000000000E+00 -0.00000000000E+00 -0.54961084588E+02  0.54961084588E+02  0.00000000000E+00 0. -1.
      99926    2    1    2    0    0  0.00000000000E+00  0.00000000000E+00  0.86894620466E+03  0.97886837384E+03  0.45068368808E+03 0.  0.
      99925    2    3    3    0    0  0.58330329237E+02 -0.79472402003E+02  0.44672196044E+03  0.52760447046E+03  0.26284534866E+03 0.  0.
         25    1    4    4    0    0  0.55763392800E+02 -0.55003542541E+02  0.29155238834E+03  0.32678012320E+03  0.12509000000E+03 0.  0.
         25    1    3    3    0    0 -0.58330329237E+02  0.79472402003E+02  0.42222424422E+03  0.45126390338E+03  0.12509000000E+03 0.  0.
         25    1    4    4    0    0  0.25669364379E+01 -0.24468859462E+02  0.15516957210E+03  0.20082434726E+03  0.12509000000E+03 0.  0.
<mgrwt>
<rscale>  2 0.45068369E+03</rscale>
<asrwt>0</asrwt>
<pdfrwt beam="1">  1       21 0.13586871E+00 0.45068369E+03</pdfrwt>
<pdfrwt beam="2">  1       21 0.80825130E-02 0.45068369E+03</pdfrwt>
<totfact> 0.41371683E+04</totfact>
</mgrwt>
</event>
<event>
 7    0  0.4685107E-002  0.4508749E+03  0.7546771E-02  0.1027461E+00
         21   -1    0    0  502  501  0.00000000000E+00  0.00000000000E+00  0.69805031083E+03  0.69805031083E+03  0.00000000000E+00 0. -1.
         21   -1    0    0  501  502 -0.00000000000E+00 -0.00000000000E+00 -0.72805690361E+02  0.72805690361E+02  0.00000000000E+00 0. -1.
      99926    2    1    2    0    0 -0.14210854715E-13  0.35527136788E-14  0.62524462047E+03  0.77085600119E+03  0.45087485974E+03 0.  0.
      99925    2    3    3    0    0 -0.90916645024E+02  0.18227352429E+02  0.49370665368E+03  0.56702318360E+03  0.26300372266E+03 0.  0.
         25    1    3    3    0    0  0.90916645024E+02 -0.18227352429E+02  0.13153796678E+03  0.20383281758E+03  0.12509000000E+03 0.  0.
         25    1    4    4    0    0 -0.53065510525E+02  0.22723285891E+01  0.17053919654E+03  0.21806475538E+03  0.12509000000E+03 0.  0.
         25    1    4    4    0    0 -0.37851134499E+02  0.15955023840E+02  0.32316745714E+03  0.34895842822E+03  0.12509000000E+03 0.  0.
<mgrwt>
<rscale>  2 0.45087486E+03</rscale>
<asrwt>0</asrwt>
<pdfrwt beam="1">  1       21 0.10265445E+00 0.45087486E+03</pdfrwt>
<pdfrwt beam="2">  1       21 0.10706720E-01 0.45087486E+03</pdfrwt>
<totfact> 0.50832970E+04</totfact>
</mgrwt>
</event>
<event>
 7    0  0.4685107E-002  0.4213324E+03  0.7546771E-02  0.1036634E+00
         21   -1    0    0  502  501  0.00000000000E+00  0.00000000000E+00  0.69705327346E+02  0.69705327346E+02  0.00000000000E+00 0. -1.
         21   -1    0    0  501  502 -0.00000000000E+00 -0.00000000000E+00 -0.63668385566E+03  0.63668385566E+03  0.00000000000E+00 0. -1.
      99926    2    1    2    0    0  0.00000000000E+00  0.00000000000E+00 -0.56697852831E+03  0.70638918300E+03  0.42133244155E+03 0.  0.
      99925    2    3    3    0    0  0.41028595610E+02 -0.65016423983E+02 -0.38393098960E+03  0.47173115400E+03  0.26309085092E+03 0.  0.
         25    1    4    4    0    0 -0.10941564737E+01 -0.58380252962E+02 -0.23560893600E+03  0.27307238956E+03  0.12509000000E+03 0.  0.
         25    1    4    4    0    0  0.42122752083E+02 -0.66361710209E+01 -0.14832205360E+03  0.19865876445E+03  0.12509000000E+03 0.  0.
         25    1    3    3    0    0 -0.41028595610E+02  0.65016423983E+02 -0.18304753871E+03  0.23465802900E+03  0.12509000000E+03 0.  0.
<mgrwt>
<rscale>  2 0.42133244E+03</rscale>
<asrwt>0</asrwt>
<pdfrwt beam="1">  1       21 0.10250784E-01 0.42133244E+03</pdfrwt>
<pdfrwt beam="2">  1       21 0.93629978E-01 0.42133244E+03</pdfrwt>
<totfact> 0.69129958E+04</totfact>
</mgrwt>
</event>
<event>
 7    0  0.4685107E-002  0.4402697E+03  0.7546771E-02  0.1030664E+00
         21   -1    0    0  502  501  0.00000000000E+00  0.00000000000E+00  0.32695595839E+03  0.32695595839E+03  0.00000000000E+00 0.  1.
         21   -1    0    0  501  502 -0.00000000000E+00 -0.00000000000E+00 -0.14821370283E+03  0.14821370283E+03  0.00000000000E+00 0.  1.
      99926    2    1    2    0    0  0.00000000000E+00  0.00000000000E+00  0.17874225555E+03  0.47516966122E+03  0.44026970487E+03 0.  0.
      99925    2    3    3    0    0  0.47764449251E+01  0.80914631419E+02  0.17482028217E+03  0.32606271309E+03  0.26302997891E+03 0.  0.
         25    1    4    4    0    0  0.48650038504E+01  0.91037227172E+01  0.49276570549E+02  0.13484151636E+03  0.12509000000E+03 0.  0.
         25    1    3    3    0    0 -0.47764449251E+01 -0.80914631419E+02  0.39219733808E+01  0.14910694812E+03  0.12509000000E+03 0.  0.
         25    1    4    4    0    0 -0.88558925257E-01  0.71810908702E+02  0.12554371162E+03  0.19122119673E+03  0.12509000000E+03 0.  0.
<mgrwt>
<rscale>  2 0.44026970E+03</rscale>
<asrwt>0</asrwt>
<pdfrwt beam="1">  1       21 0.48081759E-01 0.44026970E+03</pdfrwt>
<pdfrwt beam="2">  1       21 0.21796133E-01 0.44026970E+03</pdfrwt>
<totfact> 0.75503205E+04</totfact>
</mgrwt>
</event>
<event>
 7    0  0.4685107E-002  0.4544591E+03  0.7546771E-02  0.1026401E+00
         21   -1    0    0  502  501  0.00000000000E+00  0.00000000000E+00  0.37817438068E+02  0.37817438068E+02  0.00000000000E+00 0.  1.
         21   -1    0    0  501  502 -0.00000000000E+00 -0.00000000000E+00 -0.13653298858E+04  0.13653298858E+04  0.00000000000E+00 0.  1.
      99926    2    1    2    0    0  0.00000000000E+00 -0.71054273576E-14 -0.13275124477E+04  0.14031473239E+04  0.45445914403E+03 0.  0.
      99925    2    3    3    0    0  0.10385553488E+03 -0.45675120098E+02 -0.85345745290E+03  0.89990996939E+03  0.26187046486E+03 0.  0.
         25    1    4    4    0    0  0.59852183180E+02 -0.60443525386E+02 -0.48468949108E+03  0.50774709695E+03  0.12509000000E+03 0.  0.
         25    1    3    3    0    0 -0.10385553488E+03  0.45675120098E+02 -0.47405499481E+03  0.50323735446E+03  0.12509000000E+03 0.  0.
         25    1    4    4    0    0  0.44003351699E+02  0.14768405288E+02 -0.36876796182E+03  0.39216287244E+03  0.12509000000E+03 0.  0.
<mgrwt>
<rscale>  2 0.45445914E+03</rscale>
<asrwt>0</asrwt>
<pdfrwt beam="1">  1       21 0.55613879E-02 0.45445914E+03</pdfrwt>
<pdfrwt beam="2">  1       21 0.20078381E+00 0.45445914E+03</pdfrwt>
<totfact> 0.26358863E+04</totfact>
</mgrwt>
</event>
<event>
 7    0  0.4685107E-002  0.4518535E+03  0.7546771E-02  0.1027171E+00
         21   -1    0    0  502  501  0.00000000000E+00  0.00000000000E+00  0.13350509545E+03  0.13350509545E+03  0.00000000000E+00 0.  1.
         21   -1    0    0  501  502 -0.00000000000E+00 -0.00000000000E+00 -0.38232915301E+03  0.38232915301E+03  0.00000000000E+00 0.  1.
      99926    2    1    2    0    0  0.00000000000E+00  0.00000000000E+00 -0.24882405756E+03  0.51583424847E+03  0.45185347213E+03 0.  0.
      99925    2    3    3    0    0  0.91308951722E+02 -0.36003871439E+02 -0.10067969055E+03  0.29851451858E+03  0.26332663042E+03 0.  0.
         25    1    4    4    0    0  0.52967748805E+02 -0.54649306259E+02 -0.72494764001E+02  0.16338643761E+03  0.12509000000E+03 0.  0.
         25    1    3    3    0    0 -0.91308951722E+02  0.36003871439E+02 -0.14814436701E+03  0.21731972989E+03  0.12509000000E+03 0.  0.
         25    1    4    4    0    0  0.38341202918E+02  0.18645434820E+02 -0.28184926550E+02  0.13512808097E+03  0.12509000000E+03 0.  0.
<mgrwt>
<rscale>  2 0.45185347E+03</rscale>
<asrwt>0</asrwt>
<pdfrwt beam="1">  1       21 0.19633102E-01 0.45185347E+03</pdfrwt>
<pdfrwt beam="2">  1       21 0.56224876E-01 0.45185347E+03</pdfrwt>
<totfact> 0.65799427E+04</totfact>
</mgrwt>
</event>
<event>
 7    0  0.4685107E-002  0.4446885E+03  0.7546771E-02  0.1029318E+00
         21   -1    0    0  502  501  0.00000000000E+00  0.00000000000E+00  0.22887406803E+02  0.22887406803E+02  0.00000000000E+00 0. -1.
         21   -1    0    0  501  502 -0.00000000000E+00 -0.00000000000E+00 -0.21600076856E+04  0.21600076856E+04  0.00000000000E+00 0. -1.
      99926    2    1    2    0    0  0.00000000000E+00  0.00000000000E+00 -0.21371202788E+04  0.21828950924E+04  0.44468854088E+03 0.  0.
      99925    2    3    3    0    0  0.31575393840E+02  0.73508333410E+02 -0.10376834338E+04  0.10734766119E+04  0.26299172421E+03 0.  0.
         25    1    4    4    0    0  0.51739249032E+02  0.24092694518E+02 -0.57567259955E+03  0.59186472930E+03  0.12509000000E+03 0.  0.
         25    1    3    3    0    0 -0.31575393840E+02 -0.73508333410E+02 -0.10994368450E+04  0.11094184805E+04  0.12509000000E+03 0.  0.
         25    1    4    4    0    0 -0.20163855193E+02  0.49415638892E+02 -0.46201083421E+03  0.48161188259E+03  0.12509000000E+03 0.  0.
<mgrwt>
<rscale>  2 0.44468854E+03</rscale>
<asrwt>0</asrwt>
<pdfrwt beam="1">  1       21 0.33657958E-02 0.44468854E+03</pdfrwt>
<pdfrwt beam="2">  1       21 0.31764812E+00 0.44468854E+03</pdfrwt>
<totfact> 0.11869602E+04</totfact>
</mgrwt>
</event>
<event>
 7    0  0.4685107E-002  0.4537682E+03  0.7546771E-02  0.1026604E+00
         21   -1    0    0  502  501  0.00000000000E+00  0.00000000000E+00  0.54218274164E+02  0.54218274164E+02  0.00000000000E+00 0.  1.
         21   -1    0    0  501  502 -0.00000000000E+00 -0.00000000000E+00 -0.94942874829E+03  0.94942874829E+03  0.00000000000E+00 0.  1.
      99926    2    1    2    0    0 -0.35527136788E-14  0.00000000000E+00 -0.89521047413E+03  0.10036470225E+04  0.45376817065E+03 0.  0.
      99925    2    3    3    0    0 -0.14429638295E+02  0.45054975060E+02 -0.33920769708E+03  0.43178623395E+03  0.26294357729E+03 0.  0.
         25    1    3    3    0    0  0.14429638295E+02 -0.45054975060E+02 -0.55600277705E+03  0.57186078850E+03  0.12509000000E+03 0.  0.
         25    1    4    4    0    0 -0.39603477350E+02  0.47388770388E+02 -0.17335050334E+03  0.22251300206E+03  0.12509000000E+03 0.  0.
         25    1    4    4    0    0  0.25173839055E+02 -0.23337953281E+01 -0.16585719374E+03  0.20927323189E+03  0.12509000000E+03 0.  0.
<mgrwt>
<rscale>  2 0.45376817E+03</rscale>
<asrwt>0</asrwt>
<pdfrwt beam="1">  1       21 0.79732750E-02 0.45376817E+03</pdfrwt>
<pdfrwt beam="2">  1       21 0.13962189E+00 0.45376817E+03</pdfrwt>
<totfact> 0.39402925E+04</totfact>
</mgrwt>
</event>
<event>
 7    0  0.4685107E-002  0.4287008E+03  0.7546771E-02  0.1034271E+00
         21   -1    0    0  502  501  0.00000000000E+00  0.00000000000E+00  0.19516698708E+03  0.19516698708E+03  0.00000000000E+00 0. -1.
         21   -1    0    0  501  502 -0.00000000000E+00 -0.00000000000E+00 -0.23541939958E+03  0.23541939958E+03  0.00000000000E+00 0. -1.
      99926    2    1    2    0    0  0.35527136788E-14 -0.71054273576E-14 -0.40252412506E+02  0.43058638666E+03  0.42870080437E+03 0.  0.
      99925    2    3    3    0    0 -0.82170235737E+01  0.52045160978E+02  0.42512672146E+02  0.27160907509E+03  0.26303601297E+03 0.  0.
         25    1    4    4    0    0  0.34113272616E+02  0.14468005563E+02  0.28985077960E+02  0.13364386031E+03  0.12509000000E+03 0.  0.
         25    1    4    4    0    0 -0.42330296190E+02  0.37577155415E+02  0.13527594186E+02  0.13796521478E+03  0.12509000000E+03 0.  0.
         25    1    3    3    0    0  0.82170235737E+01 -0.52045160978E+02 -0.82765084652E+02  0.15897731157E+03  0.12509000000E+03 0.  0.
<mgrwt>
<rscale>  2 0.42870080E+03</rscale>
<asrwt>0</asrwt>
<pdfrwt beam="1">  1       21 0.28701028E-01 0.42870080E+03</pdfrwt>
<pdfrwt beam="2">  1       21 0.34620500E-01 0.42870080E+03</pdfrwt>
<totfact> 0.87303011E+04</totfact>
</mgrwt>
</event>
<event>
 7    0  0.4685107E-002  0.4463310E+03  0.7546771E-02  0.1028822E+00
         21   -1    0    0  502  501  0.00000000000E+00  0.00000000000E+00  0.11728111654E+03  0.11728111654E+03  0.00000000000E+00 0.  1.
         21   -1    0    0  501  502 -0.00000000000E+00 -0.00000000000E+00 -0.42464493788E+03  0.42464493788E+03  0.00000000000E+00 0.  1.
      99926    2    1    2    0    0  0.00000000000E+00  0.31086244690E-14 -0.30736382134E+03  0.54192605441E+03  0.44633096440E+03 0.  0.
      99925    2    3    3    0    0 -0.10463833409E+03 -0.28364450475E+01 -0.20165231396E+03  0.34755615635E+03  0.26301026540E+03 0.  0.
         25    1    4    4    0    0 -0.74304689482E+02 -0.20001310567E+02 -0.14330453642E+03  0.20519487703E+03  0.12509000000E+03 0.  0.
         25    1    4    4    0    0 -0.30333644609E+02  0.17164865519E+02 -0.58347777540E+02  0.14236127931E+03  0.12509000000E+03 0.  0.
         25    1    3    3    0    0  0.10463833409E+03  0.28364450475E+01 -0.10571150738E+03  0.19436989807E+03  0.12509000000E+03 0.  0.
<mgrwt>
<rscale>  2 0.44633096E+03</rscale>
<asrwt>0</asrwt>
<pdfrwt beam="1">  1       21 0.17247223E-01 0.44633096E+03</pdfrwt>
<pdfrwt beam="2">  1       21 0.62447784E-01 0.44633096E+03</pdfrwt>
<totfact> 0.66874180E+04</totfact>
</mgrwt>
</event>
<event>
 7    0  0.4685107E-002  0.4540055E+03  0.7546771E-02  0.1026534E+00
         21   -1    0    0  502  501  0.00000000000E+00  0.00000000000E+00  0.19470056740E+03  0.19470056740E+03  0.00000000000E+00 0. -1.
         21   -1    0    0  501  502 -0.00000000000E+00 -0.00000000000E+00 -0.26466409925E+03  0.26466409925E+03  0.00000000000E+00 0. -1.
      99926    2    1    2    0    0  0.00000000000E+00 -0.17763568394E-14 -0.69963531852E+02  0.45936466665E+03  0.45400550787E+03 0.  0.
      99925    2    3    3    0    0  0.66400137728E+02 -0.18269638356E+01  0.47422080889E+02  0.27541030746E+03  0.26303928910E+03 0.  0.
         25    1    4    4    0    0  0.53087821298E+02 -0.33045862733E+02  0.40578189927E+02  0.14561745572E+03  0.12509000000E+03 0.  0.
         25    1    4    4    0    0  0.13312316430E+02  0.31218898897E+02  0.68438909623E+01  0.12979285173E+03  0.12509000000E+03 0.  0.
         25    1    3    3    0    0 -0.66400137728E+02  0.18269638356E+01 -0.11738561274E+03  0.18395435919E+03  0.12509000000E+03 0.  0.
<mgrwt>
<rscale>  2 0.45400551E+03</rscale>
<asrwt>0</asrwt>
<pdfrwt beam="1">  1       21 0.28632437E-01 0.45400551E+03</pdfrwt>
<pdfrwt beam="2">  1       21 0.38921191E-01 0.45400551E+03</pdfrwt>
<totfact> 0.68770666E+04</totfact>
</mgrwt>
</event>
<event>
 7    0  0.4685107E-002  0.4582053E+03  0.7546771E-02  0.1025303E+00
         21   -1    0    0  502  501  0.00000000000E+00  0.00000000000E+00  0.10061772560E+03  0.10061772560E+03  0.00000000000E+00 0.  1.
         21   -1    0    0  501  502 -0.00000000000E+00 -0.00000000000E+00 -0.52165780005E+03  0.52165780005E+03  0.00000000000E+00 0.  1.
      99926    2    1    2    0    0 -0.35527136788E-14 -0.14210854715E-13 -0.42104007446E+03  0.62227552565E+03  0.45820528753E+03 0.  0.
      99925    2    3    3    0    0  0.15357032076E+02  0.11325428408E+03 -0.29297073737E+03  0.40988052925E+03  0.26288367009E+03 0.  0.
         25    1    3    3    0    0 -0.15357032076E+02 -0.11325428408E+03 -0.12806933708E+03  0.21239499640E+03  0.12509000000E+03 0.  0.
         25    1    4    4    0    0  0.41536157939E+02  0.61519247113E+02 -0.18141951708E+03  0.23253046996E+03  0.12509000000E+03 0.  0.
         25    1    4    4    0    0 -0.26179125863E+02  0.51735036963E+02 -0.11155122030E+03  0.17735005929E+03  0.12509000000E+03 0.  0.
<mgrwt>
<rscale>  2 0.45820529E+03</rscale>
<asrwt>0</asrwt>
<pdfrwt beam="1">  1       21 0.14796724E-01 0.45820529E+03</pdfrwt>
<pdfrwt beam="2">  1       21 0.76714382E-01 0.45820529E+03</pdfrwt>
<totfact> 0.55899410E+04</totfact>
</mgrwt>
</event>
<event>
 7    0  0.4685107E-002  0.4588850E+03  0.7546771E-02  0.1025105E+00
         21   -1    0    0  502  501  0.00000000000E+00  0.00000000000E+00  0.14448896986E+03  0.14448896986E+03  0.00000000000E+00 0. -1.
         21   -1    0    0  501  502 -0.00000000000E+00 -0.00000000000E+00 -0.36434512526E+03  0.36434512526E+03  0.00000000000E+00 0. -1.
      99926    2    1    2    0    0  0.00000000000E+00  0.00000000000E+00 -0.21985615540E+03  0.50883409512E+03  0.45888496084E+03 0.  0.
      99925    2    3    3    0    0 -0.85162807409E+02 -0.79768449272E+02 -0.13400498334E+03  0.31743492816E+03  0.26304351122E+03 0.  0.
         25    1    4    4    0    0 -0.16903664176E+02 -0.19469681612E+02 -0.30615554422E+02  0.13133781876E+03  0.12509000000E+03 0.  0.
         25    1    3    3    0    0  0.85162807409E+02  0.79768449272E+02 -0.85851172066E+02  0.19139916695E+03  0.12509000000E+03 0.  0.
         25    1    4    4    0    0 -0.68259143233E+02 -0.60298767661E+02 -0.10338942891E+03  0.18609710940E+03  0.12509000000E+03 0.  0.
<mgrwt>
<rscale>  2 0.45888496E+03</rscale>
<asrwt>0</asrwt>
<pdfrwt beam="1">  1       21 0.21248378E-01 0.45888496E+03</pdfrwt>
<pdfrwt beam="2">  1       21 0.53580166E-01 0.45888496E+03</pdfrwt>
<totfact> 0.62698664E+04</totfact>
</mgrwt>
</event>
<event>
 7    0  0.4685107E-002  0.4536978E+03  0.7546771E-02  0.1026625E+00
         21   -1    0    0  502  501  0.00000000000E+00  0.00000000000E+00  0.41074122767E+02  0.41074122767E+02  0.00000000000E+00 0. -1.
         21   -1    0    0  501  502 -0.00000000000E+00 -0.00000000000E+00 -0.12528671009E+04  0.12528671009E+04  0.00000000000E+00 0. -1.
      99926    2    1    2    0    0  0.71054273576E-14  0.00000000000E+00 -0.12117929782E+04  0.12939412237E+04  0.45369777216E+03 0.  0.
      99925    2    3    3    0    0  0.49597942326E+02 -0.31564822344E+02 -0.10348521276E+04  0.10694153531E+04  0.26319950122E+03 0.  0.
         25    1    3    3    0    0 -0.49597942326E+02  0.31564822344E+02 -0.17694085055E+03  0.22452587063E+03  0.12509000000E+03 0.  0.
         25    1    4    4    0    0 -0.17426263642E+01  0.12143911397E+02 -0.42307038478E+03  0.44134631517E+03  0.12509000000E+03 0.  0.
         25    1    4    4    0    0  0.51340568690E+02 -0.43708733741E+02 -0.61178174284E+03  0.62806903790E+03  0.12509000000E+03 0.  0.
<mgrwt>
<rscale>  2 0.45369777E+03</rscale>
<asrwt>0</asrwt>
<pdfrwt beam="1">  1       21 0.60403114E-02 0.45369777E+03</pdfrwt>
<pdfrwt beam="2">  1       21 0.18424519E+00 0.45369777E+03</pdfrwt>
<totfact> 0.29589723E+04</totfact>
</mgrwt>
</event>
<event>
 7    0  0.4685107E-002  0.4703861E+03  0.7546771E-02  0.1021811E+00
         21   -1    0    0  502  501  0.00000000000E+00  0.00000000000E+00  0.46526605657E+02  0.46526605657E+02  0.00000000000E+00 0.  1.
         21   -1    0    0  501  502 -0.00000000000E+00 -0.00000000000E+00 -0.11889063361E+04  0.11889063361E+04  0.00000000000E+00 0.  1.
      99926    2    1    2    0    0  0.14210854715E-13  0.00000000000E+00 -0.11423797304E+04  0.12354329417E+04  0.47038612335E+03 0.  0.
      99925    2    3    3    0    0 -0.12281462067E+03 -0.19278518331E+02 -0.63654910713E+03  0.69973972741E+03  0.26265153341E+03 0.  0.
         25    1    4    4    0    0 -0.18695433533E+02  0.12047435971E+01 -0.26976662023E+03  0.29794715661E+03  0.12509000000E+03 0.  0.
         25    1    3    3    0    0  0.12281462067E+03  0.19278518331E+02 -0.50583062327E+03  0.53569321431E+03  0.12509000000E+03 0.  0.
         25    1    4    4    0    0 -0.10411918713E+03 -0.20483261928E+02 -0.36678248690E+03  0.40179257080E+03  0.12509000000E+03 0.  0.
<mgrwt>
<rscale>  2 0.47038612E+03</rscale>
<asrwt>0</asrwt>
<pdfrwt beam="1">  1       21 0.68421473E-02 0.47038612E+03</pdfrwt>
<pdfrwt beam="2">  1       21 0.17483918E+00 0.47038612E+03</pdfrwt>
<totfact> 0.27592560E+04</totfact>
</mgrwt>
</event>
<event>
 7    0  0.4685107E-002  0.4572989E+03  0.7546771E-02  0.1025568E+00
         21   -1    0    0  502  501  0.00000000000E+00  0.00000000000E+00  0.79743749148E+03  0.79743749148E+03  0.00000000000E+00 0. -1.
         21   -1    0    0  501  502 -0.00000000000E+00 -0.00000000000E+00 -0.65560716569E+02  0.65560716569E+02  0.00000000000E+00 0. -1.
      99926    2    1    2    0    0 -0.71054273576E-14  0.71054273576E-14  0.73187677491E+03  0.86299820805E+03  0.45729891039E+03 0.  0.
      99925    2    3    3    0    0 -0.22120192235E+02  0.43427796074E+02  0.65755292843E+03  0.70954848133E+03  0.26212195117E+03 0.  0.
         25    1    3    3    0    0  0.22120192235E+02 -0.43427796074E+02  0.74323846480E+02  0.15344972672E+03  0.12509000000E+03 0.  0.
         25    1    4    4    0    0  0.90426118760E+01  0.31229378570E+02  0.41409699797E+03  0.43379819587E+03  0.12509000000E+03 0.  0.
         25    1    4    4    0    0 -0.31162804111E+02  0.12198417503E+02  0.24345593047E+03  0.27575028546E+03  0.12509000000E+03 0.  0.
<mgrwt>
<rscale>  2 0.45729891E+03</rscale>
<asrwt>0</asrwt>
<pdfrwt beam="1">  1       21 0.11727021E+00 0.45729891E+03</pdfrwt>
<pdfrwt beam="2">  1       21 0.96412823E-02 0.45729891E+03</pdfrwt>
<totfact> 0.44063452E+04</totfact>
</mgrwt>
</event>
<event>
 7    0  0.4685107E-002  0.4564541E+03  0.7546771E-02  0.1025815E+00
         21   -1    0    0  502  501  0.00000000000E+00  0.00000000000E+00  0.59696475598E+03  0.59696475598E+03  0.00000000000E+00 0. -1.
         21   -1    0    0  501  502 -0.00000000000E+00 -0.00000000000E+00 -0.87254038400E+02  0.87254038400E+02  0.00000000000E+00 0. -1.
      99926    2    1    2    0    0  0.00000000000E+00  0.00000000000E+00  0.50971071758E+03  0.68421879438E+03  0.45645409733E+03 0.  0.
      99925    2    3    3    0    0 -0.67961872369E+02 -0.54142852378E+02  0.43212541049E+03  0.51328824551E+03  0.26302507111E+03 0.  0.
         25    1    4    4    0    0 -0.68964383683E+02 -0.14512107682E+02  0.19331386068E+03  0.24079959368E+03  0.12509000000E+03 0.  0.
         25    1    3    3    0    0  0.67961872369E+02  0.54142852378E+02  0.77585307087E+02  0.17093054886E+03  0.12509000000E+03 0.  0.
         25    1    4    4    0    0  0.10025113137E+01 -0.39630744696E+02  0.23881154981E+03  0.27248865183E+03  0.12509000000E+03 0.  0.
<mgrwt>
<rscale>  2 0.45645410E+03</rscale>
<asrwt>0</asrwt>
<pdfrwt beam="1">  1       21 0.87788933E-01 0.45645410E+03</pdfrwt>
<pdfrwt beam="2">  1       21 0.12831477E-01 0.45645410E+03</pdfrwt>
<totfact> 0.53157244E+04</totfact>
</mgrwt>
</event>
<event>
 7    0  0.4685107E-002  0.4593301E+03  0.7546771E-02  0.1024976E+00
         21   -1    0    0  502  501  0.00000000000E+00  0.00000000000E+00  0.95091980360E+02  0.95091980360E+02  0.00000000000E+00 0.  1.
         21   -1    0    0  501  502 -0.00000000000E+00 -0.00000000000E+00 -0.55468445191E+03  0.55468445191E+03  0.00000000000E+00 0.  1.
      99926    2    1    2    0    0  0.00000000000E+00  0.00000000000E+00 -0.45959247155E+03  0.64977643227E+03  0.45933013403E+03 0.  0.
      99925    2    3    3    0    0  0.70290812117E+02  0.29445704742E+02 -0.41454035797E+03  0.49652810819E+03  0.26246639029E+03 0.  0.
         25    1    3    3    0    0 -0.70290812117E+02 -0.29445704742E+02 -0.45052113571E+02  0.15324832408E+03  0.12509000000E+03 0.  0.
         25    1    4    4    0    0  0.50588258252E+02 -0.19763973779E+02 -0.18564034061E+03  0.23034676185E+03  0.12509000000E+03 0.  0.
         25    1    4    4    0    0  0.19702553865E+02  0.49209678521E+02 -0.22890001736E+03  0.26618134634E+03  0.12509000000E+03 0.  0.
<mgrwt>
<rscale>  2 0.45933013E+03</rscale>
<asrwt>0</asrwt>
<pdfrwt beam="1">  1       21 0.13984114E-01 0.45933013E+03</pdfrwt>
<pdfrwt beam="2">  1       21 0.81571247E-01 0.45933013E+03</pdfrwt>
<totfact> 0.53851010E+04</totfact>
</mgrwt>
</event>
<event>
 7    0  0.4685107E-002  0.4573086E+03  0.7546771E-02  0.1025565E+00
         21   -1    0    0  502  501  0.00000000000E+00  0.00000000000E+00  0.27570176000E+03  0.27570176000E+03  0.00000000000E+00 0. -1.
         21   -1    0    0  501  502 -0.00000000000E+00 -0.00000000000E+00 -0.18963532819E+03  0.18963532819E+03  0.00000000000E+00 0. -1.
      99926    2    1    2    0    0  0.35527136788E-14  0.00000000000E+00  0.86066431810E+02  0.46533708820E+03  0.45730862114E+03 0.  0.
      99925    2    3    3    0    0  0.20558227697E+02 -0.94780872922E+02 -0.93972024261E+01  0.28049426805E+03  0.26302599187E+03 0.  0.
         25    1    4    4    0    0  0.49429577266E+02 -0.60014465720E+02 -0.22900575488E+01  0.14730163498E+03  0.12509000000E+03 0.  0.
         25    1    3    3    0    0 -0.20558227697E+02  0.94780872922E+02  0.95463634236E+02  0.18484282015E+03  0.12509000000E+03 0.  0.
         25    1    4    4    0    0 -0.28871349569E+02 -0.34766407202E+02 -0.71071448773E+01  0.13319263307E+03  0.12509000000E+03 0.  0.
<mgrwt>
<rscale>  2 0.45730862E+03</rscale>
<asrwt>0</asrwt>
<pdfrwt beam="1">  1       21 0.40544377E-01 0.45730862E+03</pdfrwt>
<pdfrwt beam="2">  1       21 0.27887548E-01 0.45730862E+03</pdfrwt>
<totfact> 0.66555324E+04</totfact>
</mgrwt>
</event>
<event>
 7    0  0.4685107E-002  0.4483684E+03  0.7546771E-02  0.1028210E+00
         21   -1    0    0  502  501  0.00000000000E+00  0.00000000000E+00  0.32355382333E+03  0.32355382333E+03  0.00000000000E+00 0.  1.
         21   -1    0    0  501  502 -0.00000000000E+00 -0.00000000000E+00 -0.15533290554E+03  0.15533290554E+03  0.00000000000E+00 0.  1.
      99926    2    1    2    0    0  0.00000000000E+00  0.00000000000E+00  0.16822091779E+03  0.47888672886E+03  0.44836839976E+03 0.  0.
      99925    2    3    3    0    0  0.67533191545E+02 -0.65586260056E+02  0.16036606942E+03  0.32213375055E+03  0.26304103777E+03 0.  0.
         25    1    4    4    0    0  0.94669500145E+01 -0.53100380464E+02  0.50184957663E+02  0.14517338469E+03  0.12509000000E+03 0.  0.
         25    1    3    3    0    0 -0.67533191545E+02  0.65586260056E+02  0.78548483671E+01  0.15675297832E+03  0.12509000000E+03 0.  0.
         25    1    4    4    0    0  0.58066241530E+02 -0.12485879592E+02  0.11018111176E+03  0.17696036585E+03  0.12509000000E+03 0.  0.
<mgrwt>
<rscale>  2 0.44836840E+03</rscale>
<asrwt>0</asrwt>
<pdfrwt beam="1">  1       21 0.47581445E-01 0.44836840E+03</pdfrwt>
<pdfrwt beam="2">  1       21 0.22843074E-01 0.44836840E+03</pdfrwt>
<totfact> 0.70415650E+04</totfact>
</mgrwt>
</event>
<event>
 7    0  0.4685107E-002  0.4518582E+03  0.7546771E-02  0.1027169E+00
         21   -1    0    0  502  501  0.00000000000E+00  0.00000000000E+00  0.39499019835E+03  0.39499019835E+03  0.00000000000E+00 0. -1.
         21   -1    0    0  501  502 -0.00000000000E+00 -0.00000000000E+00 -0.12922841757E+03  0.12922841757E+03  0.00000000000E+00 0. -1.
      99926    2    1    2    0    0  0.00000000000E+00  0.00000000000E+00  0.26576178078E+03  0.52421861592E+03  0.45185820027E+03 0.  0.
      99925    2    3    3    0    0 -0.36149533666E+02  0.44848775802E+02  0.58731335744E+02  0.27556762608E+03  0.26300179708E+03 0.  0.
         25    1    3    3    0    0  0.36149533666E+02 -0.44848775802E+02  0.20703044504E+03  0.24865098984E+03  0.12509000000E+03 0.  0.
         25    1    4    4    0    0 -0.12925503773E+02  0.42062169452E+02 -0.61056766692E+01  0.13274442412E+03  0.12509000000E+03 0.  0.
         25    1    4    4    0    0 -0.23224029894E+02  0.27866063500E+01  0.64837012414E+02  0.14282320196E+03  0.12509000000E+03 0.  0.
<mgrwt>
<rscale>  2 0.45185820E+03</rscale>
<asrwt>0</asrwt>
<pdfrwt beam="1">  1       21 0.58086794E-01 0.45185820E+03</pdfrwt>
<pdfrwt beam="2">  1       21 0.19004179E-01 0.45185820E+03</pdfrwt>
<totfact> 0.65208536E+04</totfact>
</mgrwt>
</event>
<event>
 7    0  0.4685107E-002  0.4589585E+03  0.7546771E-02  0.1025084E+00
         21   -1    0    0  502  501  0.00000000000E+00  0.00000000000E+00  0.11236105550E+03  0.11236105550E+03  0.00000000000E+00 0. -1.
         21   -1    0    0  501  502 -0.00000000000E+00 -0.00000000000E+00 -0.46867427086E+03  0.46867427086E+03  0.00000000000E+00 0. -1.
      99926    2    1    2    0    0  0.00000000000E+00 -0.71054273576E-14 -0.35631321536E+03  0.58103532635E+03  0.45895854174E+03 0.  0.
      99925    2    3    3    0    0 -0.95430994863E+02  0.49284098938E+02 -0.16507739508E+03  0.32853850609E+03  0.26296578946E+03 0.  0.
         25    1    4    4    0    0 -0.65054193375E+02  0.44762897500E+02 -0.50985637994E+02  0.15646983240E+03  0.12509000000E+03 0.  0.
         25    1    3    3    0    0  0.95430994863E+02 -0.49284098938E+02 -0.19123582027E+03  0.25249682026E+03  0.12509000000E+03 0.  0.
         25    1    4    4    0    0 -0.30376801488E+02  0.45212014379E+01 -0.11409175709E+03  0.17206867369E+03  0.12509000000E+03 0.  0.
<mgrwt>
<rscale>  2 0.45895854E+03</rscale>
<asrwt>0</asrwt>
<pdfrwt beam="1">  1       21 0.16523685E-01 0.45895854E+03</pdfrwt>
<pdfrwt beam="2">  1       21 0.68922686E-01 0.45895854E+03</pdfrwt>
<totfact> 0.58023781E+04</totfact>
</mgrwt>
</event>
<event>
 7    0  0.4685107E-002  0.4471371E+03  0.7546771E-02  0.1028579E+00
         21   -1    0    0  502  501  0.00000000000E+00  0.00000000000E+00  0.52674232357E+02  0.52674232357E+02  0.00000000000E+00 0. -1.
         21   -1    0    0  501  502 -0.00000000000E+00 -0.00000000000E+00 -0.94890589455E+03  0.94890589455E+03  0.00000000000E+00 0. -1.
      99926    2    1    2    0    0  0.71054273576E-14  0.00000000000E+00 -0.89623166220E+03  0.10015801269E+04  0.44713706880E+03 0.  0.
      99925    2    3    3    0    0 -0.61903488119E+02 -0.80319354206E+02 -0.63491457203E+03  0.69463164554E+03  0.26289421582E+03 0.  0.
         25    1    4    4    0    0 -0.41158909359E+02 -0.72232467345E+01 -0.24662398764E+03  0.27967325667E+03  0.12509000000E+03 0.  0.
         25    1    4    4    0    0 -0.20744578760E+02 -0.73096107472E+02 -0.38829058439E+03  0.41495838888E+03  0.12509000000E+03 0.  0.
         25    1    3    3    0    0  0.61903488119E+02  0.80319354206E+02 -0.26131709017E+03  0.30694848137E+03  0.12509000000E+03 0.  0.
<mgrwt>
<rscale>  2 0.44713707E+03</rscale>
<asrwt>0</asrwt>
<pdfrwt beam="1">  1       21 0.77462110E-02 0.44713707E+03</pdfrwt>
<pdfrwt beam="2">  1       21 0.13954498E+00 0.44713707E+03</pdfrwt>
<totfact> 0.41601885E+04</totfact>
</mgrwt>
</event>
<event>
 7    0  0.4685107E-002  0.4416041E+03  0.7546771E-02  0.1030256E+00
         21   -1    0    0  502  501  0.00000000000E+00  0.00000000000E+00  0.16008502053E+03  0.16008502053E+03  0.00000000000E+00 0.  1.
         21   -1    0    0  501  502 -0.00000000000E+00 -0.00000000000E+00 -0.30454785295E+03  0.30454785295E+03  0.00000000000E+00 0.  1.
      99926    2    1    2    0    0  0.71054273576E-14  0.35527136788E-14 -0.14446283241E+03  0.46463287348E+03  0.44160411815E+03 0.  0.
      99925    2    3    3    0    0  0.54573686720E+02 -0.29011987671E+02 -0.17480306601E+03  0.32184624741E+03  0.26307586809E+03 0.  0.
         25    1    3    3    0    0 -0.54573686720E+02  0.29011987671E+02  0.30340233601E+02  0.14278662607E+03  0.12509000000E+03 0.  0.
         25    1    4    4    0    0  0.63577915788E+02 -0.61423480672E+01 -0.11249959844E+03  0.17995429299E+03  0.12509000000E+03 0.  0.
         25    1    4    4    0    0 -0.90042290681E+01 -0.22869639604E+02 -0.62303467575E+02  0.14189195442E+03  0.12509000000E+03 0.  0.
<mgrwt>
<rscale>  2 0.44160412E+03</rscale>
<asrwt>0</asrwt>
<pdfrwt beam="1">  1       21 0.23541915E-01 0.44160412E+03</pdfrwt>
<pdfrwt beam="2">  1       21 0.44786448E-01 0.44160412E+03</pdfrwt>
<totfact> 0.75553960E+04</totfact>
</mgrwt>
</event>
<event>
 7    0  0.4685107E-002  0.4075440E+03  0.7546771E-02  0.1041198E+00
         21   -1    0    0  502  501  0.00000000000E+00  0.00000000000E+00  0.40506286907E+02  0.40506286907E+02  0.00000000000E+00 0. -1.
         21   -1    0    0  501  502 -0.00000000000E+00 -0.00000000000E+00 -0.10251007066E+04  0.10251007066E+04  0.00000000000E+00 0. -1.
      99926    2    1    2    0    0  0.00000000000E+00  0.71054273576E-14 -0.98459441973E+03  0.10656069935E+04  0.40754397717E+03 0.  0.
      99925    2    3    3    0    0  0.40429770752E+02 -0.37575017623E+02 -0.70453245415E+03  0.75395227919E+03  0.26273867633E+03 0.  0.
         25    1    4    4    0    0  0.17785885880E+02  0.81888138017E+01 -0.42536234720E+03  0.44380629663E+03  0.12509000000E+03 0.  0.
         25    1    4    4    0    0  0.22643884872E+02 -0.45763831424E+02 -0.27917010695E+03  0.31014598256E+03  0.12509000000E+03 0.  0.
         25    1    3    3    0    0 -0.40429770752E+02  0.37575017623E+02 -0.28006196558E+03  0.31165471435E+03  0.12509000000E+03 0.  0.
<mgrwt>
<rscale>  2 0.40754398E+03</rscale>
<asrwt>0</asrwt>
<pdfrwt beam="1">  1       21 0.59568076E-02 0.40754398E+03</pdfrwt>
<pdfrwt beam="2">  1       21 0.15075009E+00 0.40754398E+03</pdfrwt>
<totfact> 0.54153145E+04</totfact>
</mgrwt>
</event>
<event>
 7    0  0.4685107E-002  0.4553302E+03  0.7546771E-02  0.1026144E+00
         21   -1    0    0  502  501  0.00000000000E+00  0.00000000000E+00  0.18231464447E+03  0.18231464447E+03  0.00000000000E+00 0.  1.
         21   -1    0    0  501  502 -0.00000000000E+00 -0.00000000000E+00 -0.28429637658E+03  0.28429637658E+03  0.00000000000E+00 0.  1.
      99926    2    1    2    0    0 -0.14210854715E-13  0.00000000000E+00 -0.10198173210E+03  0.46661102105E+03  0.45533017831E+03 0.  0.
      99925    2    3    3    0    0 -0.82088328436E+02 -0.50384120387E+02 -0.12570113930E+03  0.30696399906E+03  0.26296210192E+03 0.  0.
         25    1    3    3    0    0  0.82088328436E+02  0.50384120387E+02  0.23719407199E+02  0.15964702199E+03  0.12509000000E+03 0.  0.
         25    1    4    4    0    0 -0.40743180056E+02  0.15342377031E+02 -0.67373511669E+02  0.14860044895E+03  0.12509000000E+03 0.  0.
         25    1    4    4    0    0 -0.41345148380E+02 -0.65726497418E+02 -0.58327627633E+02  0.15836355011E+03  0.12509000000E+03 0.  0.
<mgrwt>
<rscale>  2 0.45533018E+03</rscale>
<asrwt>0</asrwt>
<pdfrwt beam="1">  1       21 0.26810978E-01 0.45533018E+03</pdfrwt>
<pdfrwt beam="2">  1       21 0.41808290E-01 0.45533018E+03</pdfrwt>
<totfact> 0.67511994E+04</totfact>
</mgrwt>
</event>
<event>
 7    0  0.4685107E-002  0.4574792E+03  0.7546771E-02  0.1025515E+00
         21   -1    0    0  502  501  0.00000000000E+00  0.00000000000E+00  0.11932156794E+04  0.11932156794E+04  0.00000000000E+00 0.  1.
         21   -1    0    0  501  502 -0.00000000000E+00 -0.00000000000E+00 -0.43849401418E+02  0.43849401418E+02  0.00000000000E+00 0.  1.
      99926    2    1    2    0    0  0.00000000000E+00 -0.35527136788E-14  0.11493662779E+04  0.12370650808E+04  0.45747915057E+03 0.  0.
      99925    2    3    3    0    0  0.10301547890E+03  0.25448829074E+02  0.84504475474E+03  0.89134998221E+03  0.26295307847E+03 0.  0.
         25    1    4    4    0    0  0.25808440607E+02 -0.20800468392E+02  0.39381162743E+03  0.41452845631E+03  0.12509000000E+03 0.  0.
         25    1    3    3    0    0 -0.10301547890E+03 -0.25448829074E+02  0.30432152321E+03  0.34571509858E+03  0.12509000000E+03 0.  0.
         25    1    4    4    0    0  0.77207038297E+02  0.46249297466E+02  0.45123312731E+03  0.47682152590E+03  0.12509000000E+03 0.  0.
<mgrwt>
<rscale>  2 0.45747915E+03</rscale>
<asrwt>0</asrwt>
<pdfrwt beam="1">  1       21 0.17547287E+00 0.45747915E+03</pdfrwt>
<pdfrwt beam="2">  1       21 0.64484421E-02 0.45747915E+03</pdfrwt>
<totfact> 0.30407484E+04</totfact>
</mgrwt>
</event>
<event>
 7    0  0.4685107E-002  0.4620397E+03  0.7546771E-02  0.1024191E+00
         21   -1    0    0  502  501  0.00000000000E+00  0.00000000000E+00  0.34257344957E+03  0.34257344957E+03  0.00000000000E+00 0.  1.
         21   -1    0    0  501  502 -0.00000000000E+00 -0.00000000000E+00 -0.15579188940E+03  0.15579188940E+03  0.00000000000E+00 0.  1.
      99926    2    1    2    0    0  0.00000000000E+00 -0.17763568394E-14  0.18678156017E+03  0.49836533897E+03  0.46203967347E+03 0.  0.
      99925    2    3    3    0    0  0.10750059429E+03  0.10736170523E+02  0.17229324368E+03  0.33244649572E+03  0.26299062259E+03 0.  0.
         25    1    3    3    0    0 -0.10750059429E+03 -0.10736170523E+02  0.14488316489E+02  0.16591884325E+03  0.12509000000E+03 0.  0.
         25    1    4    4    0    0  0.83700965944E+02 -0.16922728053E+02  0.11466839042E+03  0.18996994048E+03  0.12509000000E+03 0.  0.
         25    1    4    4    0    0  0.23799628342E+02  0.27658898576E+02  0.57624853256E+02  0.14247655524E+03  0.12509000000E+03 0.  0.
<mgrwt>
<rscale>  2 0.46203967E+03</rscale>
<asrwt>0</asrwt>
<pdfrwt beam="1">  1       21 0.50378449E-01 0.46203967E+03</pdfrwt>
<pdfrwt beam="2">  1       21 0.22910572E-01 0.46203967E+03</pdfrwt>
<totfact> 0.61855901E+04</totfact>
</mgrwt>
</event>
<event>
 7    0  0.4685107E-002  0.4663466E+03  0.7546771E-02  0.1022956E+00
         21   -1    0    0  502  501  0.00000000000E+00  0.00000000000E+00  0.21336698613E+03  0.21336698613E+03  0.00000000000E+00 0. -1.
         21   -1    0    0  501  502 -0.00000000000E+00 -0.00000000000E+00 -0.25481821139E+03  0.25481821139E+03  0.00000000000E+00 0. -1.
      99926    2    1    2    0    0  0.00000000000E+00  0.00000000000E+00 -0.41451225256E+02  0.46818519752E+03  0.46634662548E+03 0.  0.
      99925    2    3    3    0    0  0.62473695997E+02 -0.10640441143E+03 -0.33004005938E+02  0.29227691154E+03  0.26289097958E+03 0.  0.
         25    1    4    4    0    0 -0.42915178233E+01 -0.51440603406E+02  0.54004258258E+01  0.13542978071E+03  0.12509000000E+03 0.  0.
         25    1    3    3    0    0 -0.62473695997E+02  0.10640441143E+03 -0.84472193176E+01  0.17590828598E+03  0.12509000000E+03 0.  0.
         25    1    4    4    0    0  0.66765213820E+02 -0.54963808025E+02 -0.38404431764E+02  0.15684713083E+03  0.12509000000E+03 0.  0.
<mgrwt>
<rscale>  2 0.46634663E+03</rscale>
<asrwt>0</asrwt>
<pdfrwt beam="1">  1       21 0.31377498E-01 0.46634663E+03</pdfrwt>
<pdfrwt beam="2">  1       21 0.37473266E-01 0.46634663E+03</pdfrwt>
<totfact> 0.61803006E+04</totfact>
</mgrwt>
</event>
<event>
 7    0  0.4687239E-002  0.4253154E+03  0.7546771E-02  0.1035350E+00
         21   -1    0    0  502  501  0.00000000000E+00  0.00000000000E+00  0.46915011165E+03  0.46915011165E+03  0.00000000000E+00 0. -1.
         21   -1    0    0  501  502 -0.00000000000E+00 -0.00000000000E+00 -0.96394098443E+02  0.96394098443E+02  0.00000000000E+00 0. -1.
      99926    2    1    2    0    0 -0.35527136788E-14  0.00000000000E+00  0.37275601321E+03  0.56554421009E+03  0.42531542200E+03 0.  0.
      99925    2    3    3    0    0  0.24081915844E+02  0.79024416765E+02  0.23894895840E+03  0.36460483334E+03  0.26270759916E+03 0.  0.
         25    1    4    4    0    0 -0.37035771206E+01  0.64565389659E+00  0.11150544644E+03  0.16761594805E+03  0.12509000000E+03 0.  0.
         25    1    4    4    0    0  0.27785492964E+02  0.78378762869E+02  0.12744351196E+03  0.19698888529E+03  0.12509000000E+03 0.  0.
         25    1    3    3    0    0 -0.24081915844E+02 -0.79024416765E+02  0.13380705481E+03  0.20093937676E+03  0.12509000000E+03 0.  0.
<mgrwt>
<rscale>  2 0.42531542E+03</rscale>
<asrwt>0</asrwt>
<pdfrwt beam="1">  1       21 0.68992662E-01 0.42531542E+03</pdfrwt>
<pdfrwt beam="2">  1       21 0.14175603E-01 0.42531542E+03</pdfrwt>
<totfact> 0.77505204E+04</totfact>
</mgrwt>
</event>
<event>
 7    0  0.4685107E-002  0.4556004E+03  0.7546771E-02  0.1026065E+00
         21   -1    0    0  502  501  0.00000000000E+00  0.00000000000E+00  0.29041755880E+03  0.29041755880E+03  0.00000000000E+00 0. -1.
         21   -1    0    0  501  502 -0.00000000000E+00 -0.00000000000E+00 -0.17868384971E+03  0.17868384971E+03  0.00000000000E+00 0. -1.
      99926    2    1    2    0    0  0.00000000000E+00  0.00000000000E+00  0.11173370909E+03  0.46910140851E+03  0.45560038380E+03 0.  0.
      99925    2    3    3    0    0  0.78934741720E+02 -0.81233397126E+02  0.62686201735E+02  0.29336659598E+03  0.26325812711E+03 0.  0.
         25    1    4    4    0    0  0.61306281226E+02 -0.20059377421E+02  0.59958276219E+02  0.15298150780E+03  0.12509000000E+03 0.  0.
         25    1    3    3    0    0 -0.78934741720E+02  0.81233397126E+02  0.49047507355E+02  0.17573481254E+03  0.12509000000E+03 0.  0.
         25    1    4    4    0    0  0.17628460495E+02 -0.61174019704E+02  0.27279255162E+01  0.14038508818E+03  0.12509000000E+03 0.  0.
<mgrwt>
<rscale>  2 0.45560038E+03</rscale>
<asrwt>0</asrwt>
<pdfrwt beam="1">  1       21 0.42708465E-01 0.45560038E+03</pdfrwt>
<pdfrwt beam="2">  1       21 0.26277037E-01 0.45560038E+03</pdfrwt>
<totfact> 0.67182140E+04</totfact>
</mgrwt>
</event>
<event>
 7    0  0.4685107E-002  0.4503404E+03  0.7546771E-02  0.1027621E+00
         21   -1    0    0  502  501  0.00000000000E+00  0.00000000000E+00  0.13389026836E+04  0.13389026836E+04  0.00000000000E+00 0. -1.
         21   -1    0    0  501  502 -0.00000000000E+00 -0.00000000000E+00 -0.37868031841E+02  0.37868031841E+02  0.00000000000E+00 0. -1.
      99926    2    1    2    0    0  0.00000000000E+00 -0.71054273576E-14  0.13010346517E+04  0.13767707154E+04  0.45034035775E+03 0.  0.
      99925    2    3    3    0    0  0.86740533155E+02 -0.63839724652E+02  0.77675231369E+03  0.82711727131E+03  0.26301975807E+03 0.  0.
         25    1    3    3    0    0 -0.86740533155E+02  0.63839724652E+02  0.52428233806E+03  0.54965344413E+03  0.12509000000E+03 0.  0.
         25    1    4    4    0    0  0.80803447443E+02 -0.53431721812E+02  0.41272530745E+03  0.44201112376E+03  0.12509000000E+03 0.  0.
         25    1    4    4    0    0  0.59370857117E+01 -0.10408002841E+02  0.36402700623E+03  0.38510614755E+03  0.12509000000E+03 0.  0.
<mgrwt>
<rscale>  2 0.45034036E+03</rscale>
<asrwt>0</asrwt>
<pdfrwt beam="1">  1       21 0.19689742E+00 0.45034036E+03</pdfrwt>
<pdfrwt beam="2">  1       21 0.55688291E-02 0.45034036E+03</pdfrwt>
<totfact> 0.27956492E+04</totfact>
</mgrwt>
</event>
<event>
 7    0  0.5371532E-002  0.4186347E+03  0.7546771E-02  0.1037512E+00
         21   -1    0    0  502  501  0.00000000000E+00  0.00000000000E+00  0.68339481863E+02  0.68339481863E+02  0.00000000000E+00 0.  1.
         21   -1    0    0  501  502 -0.00000000000E+00 -0.00000000000E+00 -0.64111913378E+03  0.64111913378E+03  0.00000000000E+00 0.  1.
      99926    2    1    2    0    0  0.00000000000E+00 -0.71054273576E-14 -0.57277965192E+03  0.70945861564E+03  0.41863468282E+03 0.  0.
      99925    2    3    3    0    0 -0.33247046550E+02 -0.35542193758E+02 -0.46696586587E+03  0.53854144547E+03  0.26382030809E+03 0.  0.
         25    1    4    4    0    0 -0.52754006794E+02 -0.40195342203E+02 -0.24655943527E+03  0.28431973901E+03  0.12509000000E+03 0.  0.
         25    1    4    4    0    0  0.19506960243E+02  0.46531484455E+01 -0.22040643060E+03  0.25422170647E+03  0.12509000000E+03 0.  0.
         25    1    3    3    0    0  0.33247046550E+02  0.35542193758E+02 -0.10581378604E+03  0.17091717017E+03  0.12509000000E+03 0.  0.
<mgrwt>
<rscale>  2 0.41863468E+03</rscale>
<asrwt>0</asrwt>
<pdfrwt beam="1">  1       21 0.10049924E-01 0.41863468E+03</pdfrwt>
<pdfrwt beam="2">  1       21 0.94282220E-01 0.41863468E+03</pdfrwt>
<totfact> 0.70500323E+04</totfact>
</mgrwt>
</event>
<event>
 7    0  0.4685107E-002  0.4574535E+03  0.7546771E-02  0.1025522E+00
         21   -1    0    0  502  501  0.00000000000E+00  0.00000000000E+00  0.22943193682E+03  0.22943193682E+03  0.00000000000E+00 0. -1.
         21   -1    0    0  501  502 -0.00000000000E+00 -0.00000000000E+00 -0.22802370546E+03  0.22802370546E+03  0.00000000000E+00 0. -1.
      99926    2    1    2    0    0  0.00000000000E+00  0.00000000000E+00  0.14082313564E+01  0.45745564228E+03  0.45745347472E+03 0.  0.
      99925    2    3    3    0    0  0.44550806558E+02 -0.55642222594E+02 -0.89883739814E+02  0.28697818511E+03  0.26305239164E+03 0.  0.
         25    1    4    4    0    0  0.39032500367E+02 -0.28823194593E+02 -0.68175860408E+01  0.13434396232E+03  0.12509000000E+03 0.  0.
         25    1    3    3    0    0 -0.44550806558E+02  0.55642222594E+02  0.91291971171E+02  0.17047745716E+03  0.12509000000E+03 0.  0.
         25    1    4    4    0    0  0.55183061909E+01 -0.26819028001E+02 -0.83066153774E+02  0.15263422280E+03  0.12509000000E+03 0.  0.
<mgrwt>
<rscale>  2 0.45745347E+03</rscale>
<asrwt>0</asrwt>
<pdfrwt beam="1">  1       21 0.33739991E-01 0.45745347E+03</pdfrwt>
<pdfrwt beam="2">  1       21 0.33532898E-01 0.45745347E+03</pdfrwt>
<totfact> 0.67044152E+04</totfact>
</mgrwt>
</event>
<event>
 7    0  0.4685107E-002  0.4594816E+03  0.7546771E-02  0.1024932E+00
         21   -1    0    0  502  501  0.00000000000E+00  0.00000000000E+00  0.17680274705E+03  0.17680274705E+03  0.00000000000E+00 0.  1.
         21   -1    0    0  501  502 -0.00000000000E+00 -0.00000000000E+00 -0.29852945625E+03  0.29852945625E+03  0.00000000000E+00 0.  1.
      99926    2    1    2    0    0  0.00000000000E+00 -0.71054273576E-14 -0.12172670919E+03  0.47533220330E+03  0.45948156847E+03 0.  0.
      99925    2    3    3    0    0  0.79064597108E+02  0.42465754976E+02 -0.15384675586E+03  0.31806251023E+03  0.26351543648E+03 0.  0.
         25    1    4    4    0    0  0.10197784428E+02  0.39947423993E+02 -0.47547687412E+02  0.14002886191E+03  0.12509000000E+03 0.  0.
         25    1    4    4    0    0  0.68866812680E+02  0.25183309830E+01 -0.10629906844E+03  0.17803364831E+03  0.12509000000E+03 0.  0.
         25    1    3    3    0    0 -0.79064597108E+02 -0.42465754976E+02  0.32120046665E+02  0.15726969307E+03  0.12509000000E+03 0.  0.
<mgrwt>
<rscale>  2 0.45948157E+03</rscale>
<asrwt>0</asrwt>
<pdfrwt beam="1">  1       21 0.26000404E-01 0.45948157E+03</pdfrwt>
<pdfrwt beam="2">  1       21 0.43901390E-01 0.45948157E+03</pdfrwt>
<totfact> 0.64709649E+04</totfact>
</mgrwt>
</event>
<event>
 7    0  0.4685107E-002  0.4537470E+03  0.7546771E-02  0.1026610E+00
         21   -1    0    0  502  501  0.00000000000E+00  0.00000000000E+00  0.10460053202E+04  0.10460053202E+04  0.00000000000E+00 0. -1.
         21   -1    0    0  501  502 -0.00000000000E+00 -0.00000000000E+00 -0.49207776087E+02  0.49207776087E+02  0.00000000000E+00 0. -1.
      99926    2    1    2    0    0  0.35527136788E-14  0.00000000000E+00  0.99679754408E+03  0.10952130962E+04  0.45374704663E+03 0.  0.
      99925    2    3    3    0    0 -0.26230239364E+02 -0.93403703753E+02  0.76268132510E+03  0.81259995180E+03  0.26310378307E+03 0.  0.
         25    1    4    4    0    0 -0.40355615149E+02 -0.44417927600E+02  0.29857898036E+03  0.32923918901E+03  0.12509000000E+03 0.  0.
         25    1    4    4    0    0  0.14125375784E+02 -0.48985776153E+02  0.46410234475E+03  0.48336076279E+03  0.12509000000E+03 0.  0.
         25    1    3    3    0    0  0.26230239364E+02  0.93403703753E+02  0.23411621897E+03  0.28261314445E+03  0.12509000000E+03 0.  0.
<mgrwt>
<rscale>  2 0.45374705E+03</rscale>
<asrwt>0</asrwt>
<pdfrwt beam="1">  1       21 0.15382430E+00 0.45374705E+03</pdfrwt>
<pdfrwt beam="2">  1       21 0.72364383E-02 0.45374705E+03</pdfrwt>
<totfact> 0.36011413E+04</totfact>
</mgrwt>
</event>
<event>
 7    0  0.4685107E-002  0.4476979E+03  0.7546771E-02  0.1028411E+00
         21   -1    0    0  502  501  0.00000000000E+00  0.00000000000E+00  0.81853302989E+02  0.81853302989E+02  0.00000000000E+00 0. -1.
         21   -1    0    0  501  502 -0.00000000000E+00 -0.00000000000E+00 -0.61217258345E+03  0.61217258345E+03  0.00000000000E+00 0. -1.
      99926    2    1    2    0    0 -0.35527136788E-14  0.00000000000E+00 -0.53031928046E+03  0.69402588644E+03  0.44769788007E+03 0.  0.
      99925    2    3    3    0    0  0.30744468778E+02  0.98187271915E+02 -0.29857172094E+03  0.41128854867E+03  0.26349048369E+03 0.  0.
         25    1    3    3    0    0 -0.30744468778E+02 -0.98187271915E+02 -0.23174755952E+03  0.28273733777E+03  0.12509000000E+03 0.  0.
         25    1    4    4    0    0  0.78961800466E+01  0.56055506466E+02 -0.92682326737E+02  0.16565654606E+03  0.12509000000E+03 0.  0.
         25    1    4    4    0    0  0.22848288731E+02  0.42131765448E+02 -0.20588939421E+03  0.24563200261E+03  0.12509000000E+03 0.  0.
<mgrwt>
<rscale>  2 0.44769788E+03</rscale>
<asrwt>0</asrwt>
<pdfrwt beam="1">  1       21 0.12037251E-01 0.44769788E+03</pdfrwt>
<pdfrwt beam="2">  1       21 0.90025378E-01 0.44769788E+03</pdfrwt>
<totfact> 0.56400943E+04</totfact>
</mgrwt>
</event>
<event>
 7    0  0.4685107E-002  0.4583598E+03  0.7546771E-02  0.1025258E+00
         21   -1    0    0  502  501  0.00000000000E+00  0.00000000000E+00  0.24356655498E+03  0.24356655498E+03  0.00000000000E+00 0. -1.
         21   -1    0    0  501  502 -0.00000000000E+00 -0.00000000000E+00 -0.21564304591E+03  0.21564304591E+03  0.00000000000E+00 0. -1.
      99926    2    1    2    0    0  0.00000000000E+00  0.14210854715E-13  0.27923509066E+02  0.45920960089E+03  0.45835983156E+03 0.  0.
      99925    2    3    3    0    0  0.58814512367E+02 -0.93678976918E+02 -0.18325629299E+02  0.28594278791E+03  0.26304477126E+03 0.  0.
         25    1    4    4    0    0  0.25964151690E+02 -0.87864148135E+02 -0.20891565659E+02  0.15645514155E+03  0.12509000000E+03 0.  0.
         25    1    3    3    0    0 -0.58814512367E+02  0.93678976918E+02  0.46249138365E+02  0.17326681298E+03  0.12509000000E+03 0.  0.
         25    1    4    4    0    0  0.32850360677E+02 -0.58148287825E+01  0.25659363604E+01  0.12948764636E+03  0.12509000000E+03 0.  0.
<mgrwt>
<rscale>  2 0.45835983E+03</rscale>
<asrwt>0</asrwt>
<pdfrwt beam="1">  1       21 0.35818611E-01 0.45835983E+03</pdfrwt>
<pdfrwt beam="2">  1       21 0.31712213E-01 0.45835983E+03</pdfrwt>
<totfact> 0.66439511E+04</totfact>
</mgrwt>
</event>
<event>
 7    0  0.4685107E-002  0.4556007E+03  0.7546771E-02  0.1026065E+00
         21   -1    0    0  502  501  0.00000000000E+00  0.00000000000E+00  0.16254729781E+04  0.16254729781E+04  0.00000000000E+00 0. -1.
         21   -1    0    0  501  502 -0.00000000000E+00 -0.00000000000E+00 -0.31924867286E+02  0.31924867286E+02  0.00000000000E+00 0. -1.
      99926    2    1    2    0    0  0.00000000000E+00  0.00000000000E+00  0.15935481108E+04  0.16573978454E+04  0.45560074233E+03 0.  0.
      99925    2    3    3    0    0 -0.10136729689E+03 -0.48068143799E+02  0.93056562696E+03  0.97345401924E+03  0.26282021643E+03 0.  0.
         25    1    4    4    0    0 -0.92805823567E+02 -0.27789790874E+02  0.54554949933E+03  0.56802901131E+03  0.12509000000E+03 0.  0.
         25    1    4    4    0    0 -0.85614733240E+01 -0.20278352925E+02  0.38501612763E+03  0.40542500793E+03  0.12509000000E+03 0.  0.
         25    1    3    3    0    0  0.10136729689E+03  0.48068143799E+02  0.66298248385E+03  0.68394382614E+03  0.12509000000E+03 0.  0.
<mgrwt>
<rscale>  2 0.45560074E+03</rscale>
<asrwt>0</asrwt>
<pdfrwt beam="1">  1       21 0.23904009E+00 0.45560074E+03</pdfrwt>
<pdfrwt beam="2">  1       21 0.46948345E-02 0.45560074E+03</pdfrwt>
<totfact> 0.20069506E+04</totfact>
</mgrwt>
</event>
<event>
 7    0  0.4685107E-002  0.4522398E+03  0.7546771E-02  0.1027056E+00
         21   -1    0    0  502  501  0.00000000000E+00  0.00000000000E+00  0.23779070366E+03  0.23779070366E+03  0.00000000000E+00 0. -1.
         21   -1    0    0  501  502 -0.00000000000E+00 -0.00000000000E+00 -0.21502187456E+03  0.21502187456E+03  0.00000000000E+00 0. -1.
      99926    2    1    2    0    0  0.71054273576E-14  0.00000000000E+00  0.22768829109E+02  0.45281257822E+03  0.45223977204E+03 0.  0.
      99925    2    3    3    0    0  0.61577270537E+02 -0.90486292156E+02  0.29911084691E+02  0.28644536622E+03  0.26301472492E+03 0.  0.
         25    1    3    3    0    0 -0.61577270537E+02  0.90486292156E+02 -0.71422555825E+01  0.16636721200E+03  0.12509000000E+03 0.  0.
         25    1    4    4    0    0 -0.68022178957E+01 -0.41195748441E+02  0.31550412371E+02  0.13559607840E+03  0.12509000000E+03 0.  0.
         25    1    4    4    0    0  0.68379488433E+02 -0.49290543715E+02 -0.16393276793E+01  0.15084928781E+03  0.12509000000E+03 0.  0.
<mgrwt>
<rscale>  2 0.45223977E+03</rscale>
<asrwt>0</asrwt>
<pdfrwt beam="1">  1       21 0.34969221E-01 0.45223977E+03</pdfrwt>
<pdfrwt beam="2">  1       21 0.31620864E-01 0.45223977E+03</pdfrwt>
<totfact> 0.70240609E+04</totfact>
</mgrwt>
</event>
<event>
 7    0  0.4685107E-002  0.4290320E+03  0.7546771E-02  0.1034166E+00
         21   -1    0    0  502  501  0.00000000000E+00  0.00000000000E+00  0.11075372126E+03  0.11075372126E+03  0.00000000000E+00 0.  1.
         21   -1    0    0  501  502 -0.00000000000E+00 -0.00000000000E+00 -0.41549037717E+03  0.41549037717E+03  0.00000000000E+00 0.  1.
      99926    2    1    2    0    0  0.00000000000E+00  0.00000000000E+00 -0.30473665590E+03  0.52624409843E+03  0.42903195881E+03 0.  0.
      99925    2    3    3    0    0 -0.54656904700E+01 -0.39585174598E+02 -0.10242156454E+03  0.28504757251E+03  0.26299255102E+03 0.  0.
         25    1    4    4    0    0 -0.25150257861E+02 -0.34152275976E+02 -0.85095248275E+02  0.15712295441E+03  0.12509000000E+03 0.  0.
         25    1    4    4    0    0  0.19684567391E+02 -0.54328986216E+01 -0.17326316262E+02  0.12792461810E+03  0.12509000000E+03 0.  0.
         25    1    3    3    0    0  0.54656904700E+01  0.39585174598E+02 -0.20231509137E+03  0.24119652592E+03  0.12509000000E+03 0.  0.
<mgrwt>
<rscale>  2 0.42903196E+03</rscale>
<asrwt>0</asrwt>
<pdfrwt beam="1">  1       21 0.16287313E-01 0.42903196E+03</pdfrwt>
<pdfrwt beam="2">  1       21 0.61101524E-01 0.42903196E+03</pdfrwt>
<totfact> 0.78376186E+04</totfact>
</mgrwt>
</event>
<event>
 7    0  0.4685107E-002  0.4573494E+03  0.7546771E-02  0.1025553E+00
         21   -1    0    0  502  501  0.00000000000E+00  0.00000000000E+00  0.20529588883E+03  0.20529588883E+03  0.00000000000E+00 0. -1.
         21   -1    0    0  501  502 -0.00000000000E+00 -0.00000000000E+00 -0.25471586918E+03  0.25471586918E+03  0.00000000000E+00 0. -1.
      99926    2    1    2    0    0 -0.35527136788E-14  0.00000000000E+00 -0.49419980353E+02  0.46001175801E+03  0.45734941024E+03 0.  0.
      99925    2    3    3    0    0  0.31388576835E+02 -0.11078336175E+03 -0.26628360493E+02  0.28847411774E+03  0.26315404429E+03 0.  0.
         25    1    3    3    0    0 -0.31388576835E+02  0.11078336175E+03 -0.22791619860E+02  0.17153764028E+03  0.12509000000E+03 0.  0.
         25    1    4    4    0    0 -0.44868520008E+01 -0.60239620301E+02 -0.48566838370E+02  0.14715702356E+03  0.12509000000E+03 0.  0.
         25    1    4    4    0    0  0.35875428835E+02 -0.50543741447E+02  0.21938477877E+02  0.14131709417E+03  0.12509000000E+03 0.  0.
<mgrwt>
<rscale>  2 0.45734941E+03</rscale>
<asrwt>0</asrwt>
<pdfrwt beam="1">  1       21 0.30190572E-01 0.45734941E+03</pdfrwt>
<pdfrwt beam="2">  1       21 0.37458216E-01 0.45734941E+03</pdfrwt>
<totfact> 0.66916973E+04</totfact>
</mgrwt>
</event>
<event>
 7    0  0.4685107E-002  0.4560190E+03  0.7546771E-02  0.1025942E+00
         21   -1    0    0  502  501  0.00000000000E+00  0.00000000000E+00  0.77792527965E+02  0.77792527965E+02  0.00000000000E+00 0.  1.
         21   -1    0    0  501  502 -0.00000000000E+00 -0.00000000000E+00 -0.66829455109E+03  0.66829455109E+03  0.00000000000E+00 0.  1.
      99926    2    1    2    0    0  0.14210854715E-13  0.71054273576E-14 -0.59050202312E+03  0.74608707905E+03  0.45601895818E+03 0.  0.
      99925    2    3    3    0    0 -0.75033981195E+02 -0.23262564572E+02 -0.50741650030E+03  0.57661154263E+03  0.26237019851E+03 0.  0.
         25    1    4    4    0    0 -0.41393346728E+02 -0.34331268328E+02 -0.32716481540E+03  0.35436756295E+03  0.12509000000E+03 0.  0.
         25    1    3    3    0    0  0.75033981195E+02  0.23262564572E+02 -0.83085522819E+02  0.16947553642E+03  0.12509000000E+03 0.  0.
         25    1    4    4    0    0 -0.33640634467E+02  0.11068703757E+02 -0.18025168491E+03  0.22224397967E+03  0.12509000000E+03 0.  0.
<mgrwt>
<rscale>  2 0.45601896E+03</rscale>
<asrwt>0</asrwt>
<pdfrwt beam="1">  1       21 0.11440078E-01 0.45601896E+03</pdfrwt>
<pdfrwt beam="2">  1       21 0.98278609E-01 0.45601896E+03</pdfrwt>
<totfact> 0.50068896E+04</totfact>
</mgrwt>
</event>
<event>
 7    0  0.4685107E-002  0.4568539E+03  0.7546771E-02  0.1025698E+00
         21   -1    0    0  502  501  0.00000000000E+00  0.00000000000E+00  0.10962721725E+04  0.10962721725E+04  0.00000000000E+00 0.  1.
         21   -1    0    0  501  502 -0.00000000000E+00 -0.00000000000E+00 -0.47596647504E+02  0.47596647504E+02  0.00000000000E+00 0.  1.
      99926    2    1    2    0    0  0.00000000000E+00  0.00000000000E+00  0.10486755250E+04  0.11438688201E+04  0.45685393800E+03 0.  0.
      99925    2    3    3    0    0 -0.29816498333E+02 -0.48521214004E+02  0.40933437864E+03  0.48992085472E+03  0.26310545142E+03 0.  0.
         25    1    4    4    0    0 -0.29653232917E+02  0.12250329353E+02  0.17618485570E+03  0.21844449242E+03  0.12509000000E+03 0.  0.
         25    1    3    3    0    0  0.29816498333E+02  0.48521214004E+02  0.63934114641E+03  0.65394796534E+03  0.12509000000E+03 0.  0.
         25    1    4    4    0    0 -0.16326541554E+00 -0.60771543357E+02  0.23314952294E+03  0.27147636229E+03  0.12509000000E+03 0.  0.
<mgrwt>
<rscale>  2 0.45685394E+03</rscale>
<asrwt>0</asrwt>
<pdfrwt beam="1">  1       21 0.16121648E+00 0.45685394E+03</pdfrwt>
<pdfrwt beam="2">  1       21 0.69995077E-02 0.45685394E+03</pdfrwt>
<totfact> 0.33501027E+04</totfact>
</mgrwt>
</event>
<event>
 7    0  0.4685107E-002  0.4345463E+03  0.7546771E-02  0.1032433E+00
         21   -1    0    0  502  501  0.00000000000E+00  0.00000000000E+00  0.25376825873E+03  0.25376825873E+03  0.00000000000E+00 0.  1.
         21   -1    0    0  501  502 -0.00000000000E+00 -0.00000000000E+00 -0.18602654056E+03  0.18602654056E+03  0.00000000000E+00 0.  1.
      99926    2    1    2    0    0 -0.14210854715E-13  0.00000000000E+00  0.67741718176E+02  0.43979479929E+03  0.43454634402E+03 0.  0.
      99925    2    3    3    0    0  0.83857482772E+02  0.33315327503E+02  0.65077768024E+02  0.28553335500E+03  0.26296804457E+03 0.  0.
         25    1    4    4    0    0  0.24127144541E+01  0.25247482599E+02  0.18561405315E+02  0.12897786801E+03  0.12509000000E+03 0.  0.
         25    1    3    3    0    0 -0.83857482772E+02 -0.33315327503E+02  0.26639501514E+01  0.15426144429E+03  0.12509000000E+03 0.  0.
         25    1    4    4    0    0  0.81444768318E+02  0.80678449033E+01  0.46516362709E+02  0.15655548699E+03  0.12509000000E+03 0.  0.
<mgrwt>
<rscale>  2 0.43454634E+03</rscale>
<asrwt>0</asrwt>
<pdfrwt beam="1">  1       21 0.37318862E-01 0.43454634E+03</pdfrwt>
<pdfrwt beam="2">  1       21 0.27356844E-01 0.43454634E+03</pdfrwt>
<totfact> 0.82306542E+04</totfact>
</mgrwt>
</event>
<event>
 7    0  0.4685107E-002  0.4439743E+03  0.7546771E-02  0.1029534E+00
         21   -1    0    0  502  501  0.00000000000E+00  0.00000000000E+00  0.87608869495E+03  0.87608869495E+03  0.00000000000E+00 0.  1.
         21   -1    0    0  501  502 -0.00000000000E+00 -0.00000000000E+00 -0.56248067491E+02  0.56248067491E+02  0.00000000000E+00 0.  1.
      99926    2    1    2    0    0  0.00000000000E+00  0.00000000000E+00  0.81984062746E+03  0.93233676244E+03  0.44397430575E+03 0.  0.
      99925    2    3    3    0    0  0.33558011161E+02 -0.77821598275E+02  0.64197897938E+03  0.69896021000E+03  0.26310838818E+03 0.  0.
         25    1    4    4    0    0  0.41801894941E+02 -0.30612897176E+02  0.24409000383E+03  0.27912718600E+03  0.12509000000E+03 0.  0.
         25    1    3    3    0    0 -0.33558011161E+02  0.77821598275E+02  0.17786164808E+03  0.23337655244E+03  0.12509000000E+03 0.  0.
         25    1    4    4    0    0 -0.82438837796E+01 -0.47208701099E+02  0.39788897555E+03  0.41983302400E+03  0.12509000000E+03 0.  0.
<mgrwt>
<rscale>  2 0.44397431E+03</rscale>
<asrwt>0</asrwt>
<pdfrwt beam="1">  1       21 0.12883656E+00 0.44397431E+03</pdfrwt>
<pdfrwt beam="2">  1       21 0.82717752E-02 0.44397431E+03</pdfrwt>
<totfact> 0.45678071E+04</totfact>
</mgrwt>
</event>
<event>
 7    0  0.4685107E-002  0.4558363E+03  0.7546771E-02  0.1025996E+00
         21   -1    0    0  502  501  0.00000000000E+00  0.00000000000E+00  0.42476264634E+02  0.42476264634E+02  0.00000000000E+00 0. -1.
         21   -1    0    0  501  502 -0.00000000000E+00 -0.00000000000E+00 -0.12229577607E+04  0.12229577607E+04  0.00000000000E+00 0. -1.
      99926    2    1    2    0    0  0.00000000000E+00 -0.35527136788E-14 -0.11804814961E+04  0.12654340253E+04  0.45583627534E+03 0.  0.
      99925    2    3    3    0    0 -0.96686845450E+02 -0.30307999650E+02 -0.88705218504E+03  0.93074732169E+03  0.26298683793E+03 0.  0.
         25    1    4    4    0    0 -0.50243703897E+02  0.63844428378E+00 -0.31705823443E+03  0.34452615215E+03  0.12509000000E+03 0.  0.
         25    1    4    4    0    0 -0.46443141553E+02 -0.30946443934E+02 -0.56999395061E+03  0.58622116954E+03  0.12509000000E+03 0.  0.
         25    1    3    3    0    0  0.96686845450E+02  0.30307999650E+02 -0.29342931101E+03  0.33468670363E+03  0.12509000000E+03 0.  0.
<mgrwt>
<rscale>  2 0.45583628E+03</rscale>
<asrwt>0</asrwt>
<pdfrwt beam="1">  1       21 0.62465102E-02 0.45583628E+03</pdfrwt>
<pdfrwt beam="2">  1       21 0.17984671E+00 0.45583628E+03</pdfrwt>
<totfact> 0.29939967E+04</totfact>
</mgrwt>
</event>
<event>
 7    0  0.4685107E-002  0.4530809E+03  0.7546771E-02  0.1026807E+00
         21   -1    0    0  502  501  0.00000000000E+00  0.00000000000E+00  0.43454280852E+03  0.43454280852E+03  0.00000000000E+00 0.  1.
         21   -1    0    0  501  502 -0.00000000000E+00 -0.00000000000E+00 -0.11810248699E+03  0.11810248699E+03  0.00000000000E+00 0.  1.
      99926    2    1    2    0    0 -0.17763568394E-14  0.00000000000E+00  0.31644032153E+03  0.55264529551E+03  0.45308094813E+03 0.  0.
      99925    2    3    3    0    0  0.93336538004E+01  0.10496830622E+03  0.24338605395E+03  0.37350876513E+03  0.26299536873E+03 0.  0.
         25    1    4    4    0    0  0.35090220596E+02  0.38112359449E+02  0.14834939544E+03  0.20084552958E+03  0.12509000000E+03 0.  0.
         25    1    4    4    0    0 -0.25756566796E+02  0.66855946769E+02  0.95036658504E+02  0.17266323555E+03  0.12509000000E+03 0.  0.
         25    1    3    3    0    0 -0.93336538004E+01 -0.10496830622E+03  0.73054267578E+02  0.17913653038E+03  0.12509000000E+03 0.  0.
<mgrwt>
<rscale>  2 0.45308095E+03</rscale>
<asrwt>0</asrwt>
<pdfrwt beam="1">  1       21 0.63903353E-01 0.45308095E+03</pdfrwt>
<pdfrwt beam="2">  1       21 0.17368013E-01 0.45308095E+03</pdfrwt>
<totfact> 0.62637625E+04</totfact>
</mgrwt>
</event>
<event>
 7    0  0.4685107E-002  0.4611554E+03  0.7546771E-02  0.1024447E+00
         21   -1    0    0  502  501  0.00000000000E+00  0.00000000000E+00  0.90926273682E+02  0.90926273682E+02  0.00000000000E+00 0.  1.
         21   -1    0    0  501  502 -0.00000000000E+00 -0.00000000000E+00 -0.58471632927E+03  0.58471632927E+03  0.00000000000E+00 0.  1.
      99926    2    1    2    0    0  0.00000000000E+00 -0.35527136788E-14 -0.49379005559E+03  0.67564260296E+03  0.46115540540E+03 0.  0.
      99925    2    3    3    0    0 -0.57204176374E+02  0.31232348740E+02 -0.45464115043E+03  0.52925980930E+03  0.26300112676E+03 0.  0.
         25    1    4    4    0    0  0.10416893869E+02  0.66271789318E+01 -0.18969450037E+03  0.22756085504E+03  0.12509000000E+03 0.  0.
         25    1    4    4    0    0 -0.67621070243E+02  0.24605169808E+02 -0.26494665006E+03  0.30169895426E+03  0.12509000000E+03 0.  0.
         25    1    3    3    0    0  0.57204176374E+02 -0.31232348740E+02 -0.39148905164E+02  0.14638279365E+03  0.12509000000E+03 0.  0.
<mgrwt>
<rscale>  2 0.46115541E+03</rscale>
<asrwt>0</asrwt>
<pdfrwt beam="1">  1       21 0.13371510E-01 0.46115541E+03</pdfrwt>
<pdfrwt beam="2">  1       21 0.85987698E-01 0.46115541E+03</pdfrwt>
<totfact> 0.51691946E+04</totfact>
</mgrwt>
</event>
<event>
 7    0  0.4685107E-002  0.4537763E+03  0.7546771E-02  0.1026602E+00
         21   -1    0    0  502  501  0.00000000000E+00  0.00000000000E+00  0.17534265960E+03  0.17534265960E+03  0.00000000000E+00 0.  1.
         21   -1    0    0  501  502 -0.00000000000E+00 -0.00000000000E+00 -0.29358648482E+03  0.29358648482E+03  0.00000000000E+00 0.  1.
      99926    2    1    2    0    0  0.00000000000E+00  0.00000000000E+00 -0.11824382522E+03  0.46892914442E+03  0.45377631084E+03 0.  0.
      99925    2    3    3    0    0  0.30496327712E+02  0.59530839012E+02 -0.16734755360E+03  0.31882041370E+03  0.26299677888E+03 0.  0.
         25    1    4    4    0    0 -0.10827418085E+02  0.65428008893E+01 -0.10471811983E+03  0.16362589632E+03  0.12509000000E+03 0.  0.
         25    1    4    4    0    0  0.41323745797E+02  0.52988038122E+02 -0.62629433768E+02  0.15519451738E+03  0.12509000000E+03 0.  0.
         25    1    3    3    0    0 -0.30496327712E+02 -0.59530839012E+02  0.49103728378E+02  0.15010873072E+03  0.12509000000E+03 0.  0.
<mgrwt>
<rscale>  2 0.45377631E+03</rscale>
<asrwt>0</asrwt>
<pdfrwt beam="1">  1       21 0.25785686E-01 0.45377631E+03</pdfrwt>
<pdfrwt beam="2">  1       21 0.43174483E-01 0.45377631E+03</pdfrwt>
<totfact> 0.68174851E+04</totfact>
</mgrwt>
</event>
<event>
 7    0  0.4685107E-002  0.4525597E+03  0.7546771E-02  0.1026961E+00
         21   -1    0    0  502  501  0.00000000000E+00  0.00000000000E+00  0.35126615777E+02  0.35126615777E+02  0.00000000000E+00 0.  1.
         21   -1    0    0  501  502 -0.00000000000E+00 -0.00000000000E+00 -0.14576570915E+04  0.14576570915E+04  0.00000000000E+00 0.  1.
      99926    2    1    2    0    0  0.14210854715E-13  0.35527136788E-14 -0.14225304758E+04  0.14927837073E+04  0.45255965613E+03 0.  0.
      99925    2    3    3    0    0 -0.10159801247E+03 -0.18827020636E+02 -0.76298957106E+03  0.81357952158E+03  0.26283443372E+03 0.  0.
         25    1    3    3    0    0  0.10159801247E+03  0.18827020636E+02 -0.65954090469E+03  0.67920418572E+03  0.12509000000E+03 0.  0.
         25    1    4    4    0    0 -0.54793719073E+02  0.64295459225E+01 -0.27643568713E+03  0.30839566782E+03  0.12509000000E+03 0.  0.
         25    1    4    4    0    0 -0.46804293399E+02 -0.25256566558E+02 -0.48655388393E+03  0.50518385376E+03  0.12509000000E+03 0.  0.
<mgrwt>
<rscale>  2 0.45255966E+03</rscale>
<asrwt>0</asrwt>
<pdfrwt beam="1">  1       21 0.51656786E-02 0.45255966E+03</pdfrwt>
<pdfrwt beam="2">  1       21 0.21436135E+00 0.45255966E+03</pdfrwt>
<totfact> 0.24416085E+04</totfact>
</mgrwt>
</event>
<event>
 7    0  0.4685107E-002  0.4611350E+03  0.7546771E-02  0.1024453E+00
         21   -1    0    0  502  501  0.00000000000E+00  0.00000000000E+00  0.18617694209E+03  0.18617694209E+03  0.00000000000E+00 0. -1.
         21   -1    0    0  501  502 -0.00000000000E+00 -0.00000000000E+00 -0.28554214755E+03  0.28554214755E+03  0.00000000000E+00 0. -1.
      99926    2    1    2    0    0  0.00000000000E+00 -0.71054273576E-14 -0.99365205462E+02  0.47171908964E+03  0.46113496449E+03 0.  0.
      99925    2    3    3    0    0  0.96412261113E+02 -0.40464415456E+02 -0.44152819131E+01  0.28305089123E+03  0.26299357273E+03 0.  0.
         25    1    4    4    0    0  0.81839105680E+02 -0.17593774743E+02  0.22693019077E+02  0.15221583802E+03  0.12509000000E+03 0.  0.
         25    1    3    3    0    0 -0.96412261113E+02  0.40464415456E+02 -0.94949923549E+02  0.18866819841E+03  0.12509000000E+03 0.  0.
         25    1    4    4    0    0  0.14573155432E+02 -0.22870640713E+02 -0.27108300990E+02  0.13083505321E+03  0.12509000000E+03 0.  0.
<mgrwt>
<rscale>  2 0.46113496E+03</rscale>
<asrwt>0</asrwt>
<pdfrwt beam="1">  1       21 0.27378962E-01 0.46113496E+03</pdfrwt>
<pdfrwt beam="2">  1       21 0.41991492E-01 0.46113496E+03</pdfrwt>
<totfact> 0.64129538E+04</totfact>
</mgrwt>
</event>
<event>
 7    0  0.4685107E-002  0.4521342E+03  0.7546771E-02  0.1027088E+00
         21   -1    0    0  502  501  0.00000000000E+00  0.00000000000E+00  0.48468704493E+03  0.48468704493E+03  0.00000000000E+00 0.  1.
         21   -1    0    0  501  502 -0.00000000000E+00 -0.00000000000E+00 -0.10544190127E+03  0.10544190127E+03  0.00000000000E+00 0.  1.
      99926    2    1    2    0    0 -0.14210854715E-13  0.00000000000E+00  0.37924514366E+03  0.59012894620E+03  0.45213415505E+03 0.  0.
      99925    2    3    3    0    0  0.81866184970E+02  0.74139537189E+02  0.24048902046E+03  0.37310472396E+03  0.26300840835E+03 0.  0.
         25    1    4    4    0    0  0.13617444562E+01  0.22537912951E+02  0.12042118589E+03  0.17509592222E+03  0.12509000000E+03 0.  0.
         25    1    4    4    0    0  0.80504440514E+02  0.51601624238E+02  0.12006783457E+03  0.19800880174E+03  0.12509000000E+03 0.  0.
         25    1    3    3    0    0 -0.81866184970E+02 -0.74139537189E+02  0.13875612320E+03  0.21702422224E+03  0.12509000000E+03 0.  0.
<mgrwt>
<rscale>  2 0.45213416E+03</rscale>
<asrwt>0</asrwt>
<pdfrwt beam="1">  1       21 0.71277506E-01 0.45213416E+03</pdfrwt>
<pdfrwt beam="2">  1       21 0.15506162E-01 0.45213416E+03</pdfrwt>
<totfact> 0.60652142E+04</totfact>
</mgrwt>
</event>
<event>
 7    0  0.4685107E-002  0.4527734E+03  0.7546771E-02  0.1026898E+00
         21   -1    0    0  502  501  0.00000000000E+00  0.00000000000E+00  0.13341750739E+04  0.13341750739E+04  0.00000000000E+00 0.  1.
         21   -1    0    0  501  502 -0.00000000000E+00 -0.00000000000E+00 -0.38413958019E+02  0.38413958019E+02  0.00000000000E+00 0.  1.
      99926    2    1    2    0    0  0.00000000000E+00  0.00000000000E+00  0.12957611159E+04  0.13725890319E+04  0.45277343243E+03 0.  0.
      99925    2    3    3    0    0 -0.85440545976E+02  0.65135237375E+02  0.89865911375E+03  0.94261206249E+03  0.26341338534E+03 0.  0.
         25    1    3    3    0    0  0.85440545976E+02 -0.65135237375E+02  0.39710200210E+03  0.42997696941E+03  0.12509000000E+03 0.  0.
         25    1    4    4    0    0 -0.27468048012E+02 -0.81180189340E+01  0.39856086431E+03  0.41871071942E+03  0.12509000000E+03 0.  0.
         25    1    4    4    0    0 -0.57972497964E+02  0.73253256309E+02  0.50009824944E+03  0.52390134307E+03  0.12509000000E+03 0.  0.
<mgrwt>
<rscale>  2 0.45277343E+03</rscale>
<asrwt>0</asrwt>
<pdfrwt beam="1">  1       21 0.19620219E+00 0.45277343E+03</pdfrwt>
<pdfrwt beam="2">  1       21 0.56491124E-02 0.45277343E+03</pdfrwt>
<totfact> 0.27545326E+04</totfact>
</mgrwt>
</event>
<event>
 7    0  0.4685107E-002  0.3999023E+03  0.7546771E-02  0.1043814E+00
         21   -1    0    0  502  501  0.00000000000E+00  0.00000000000E+00  0.69219040146E+02  0.69219040146E+02  0.00000000000E+00 0. -1.
         21   -1    0    0  501  502 -0.00000000000E+00 -0.00000000000E+00 -0.57759343115E+03  0.57759343115E+03  0.00000000000E+00 0. -1.
      99926    2    1    2    0    0 -0.13322676296E-14  0.00000000000E+00 -0.50837439101E+03  0.64681247130E+03  0.39990230256E+03 0.  0.
      99925    2    3    3    0    0  0.15939142977E+01 -0.32982960394E+02 -0.38885163315E+03  0.47067725624E+03  0.26313698086E+03 0.  0.
         25    1    4    4    0    0 -0.81177246711E+01 -0.26550935652E+02 -0.12782256452E+03  0.18098885529E+03  0.12509000000E+03 0.  0.
         25    1    4    4    0    0  0.97116389688E+01 -0.64320247418E+01 -0.26102906863E+03  0.28968840095E+03  0.12509000000E+03 0.  0.
         25    1    3    3    0    0 -0.15939142977E+01  0.32982960394E+02 -0.11952275785E+03  0.17613521506E+03  0.12509000000E+03 0.  0.
<mgrwt>
<rscale>  2 0.39990230E+03</rscale>
<asrwt>0</asrwt>
<pdfrwt beam="1">  1       21 0.10179270E-01 0.39990230E+03</pdfrwt>
<pdfrwt beam="2">  1       21 0.84940212E-01 0.39990230E+03</pdfrwt>
<totfact> 0.88509845E+04</totfact>
</mgrwt>
</event>
<event>
 7    0  0.4685107E-002  0.4619975E+03  0.7546771E-02  0.1024203E+00
         21   -1    0    0  502  501  0.00000000000E+00  0.00000000000E+00  0.18779062663E+03  0.18779062663E+03  0.00000000000E+00 0.  1.
         21   -1    0    0  501  502 -0.00000000000E+00 -0.00000000000E+00 -0.28414852081E+03  0.28414852081E+03  0.00000000000E+00 0.  1.
      99926    2    1    2    0    0  0.00000000000E+00 -0.17763568394E-14 -0.96357894177E+02  0.47193914744E+03  0.46199752717E+03 0.  0.
      99925    2    3    3    0    0  0.93824134085E+02  0.11006395239E+02 -0.13522011554E+03  0.31044026440E+03  0.26299157637E+03 0.  0.
         25    1    3    3    0    0 -0.93824134085E+02 -0.11006395239E+02  0.38862221360E+02  0.16149888304E+03  0.12509000000E+03 0.  0.
         25    1    4    4    0    0  0.24692593702E+02  0.26750839226E+02 -0.34137019492E+02  0.13467804492E+03  0.12509000000E+03 0.  0.
         25    1    4    4    0    0  0.69131540382E+02 -0.15744443986E+02 -0.10108309604E+03  0.17576221948E+03  0.12509000000E+03 0.  0.
<mgrwt>
<rscale>  2 0.46199753E+03</rscale>
<asrwt>0</asrwt>
<pdfrwt beam="1">  1       21 0.27616269E-01 0.46199753E+03</pdfrwt>
<pdfrwt beam="2">  1       21 0.41786547E-01 0.46199753E+03</pdfrwt>
<totfact> 0.63681645E+04</totfact>
</mgrwt>
</event>
<event>
 7    0  0.4685107E-002  0.4538046E+03  0.7546771E-02  0.1026594E+00
         21   -1    0    0  502  501  0.00000000000E+00  0.00000000000E+00  0.48133191880E+03  0.48133191880E+03  0.00000000000E+00 0. -1.
         21   -1    0    0  501  502 -0.00000000000E+00 -0.00000000000E+00 -0.10696287748E+03  0.10696287748E+03  0.00000000000E+00 0. -1.
      99926    2    1    2    0    0  0.71054273576E-14 -0.71054273576E-14  0.37436904131E+03  0.58829479628E+03  0.45380457053E+03 0.  0.
      99925    2    3    3    0    0  0.60695042470E+02  0.44945176551E+02  0.12846885817E+03  0.30225569887E+03  0.26296445179E+03 0.  0.
         25    1    4    4    0    0 -0.58998601456E+01  0.12610823939E+01  0.55487925584E+02  0.13697743122E+03  0.12509000000E+03 0.  0.
         25    1    3    3    0    0 -0.60695042470E+02 -0.44945176551E+02  0.24590018314E+03  0.28603909741E+03  0.12509000000E+03 0.  0.
         25    1    4    4    0    0  0.66594902616E+02  0.43684094157E+02  0.72980932584E+02  0.16527826765E+03  0.12509000000E+03 0.  0.
<mgrwt>
<rscale>  2 0.45380457E+03</rscale>
<asrwt>0</asrwt>
<pdfrwt beam="1">  1       21 0.70784105E-01 0.45380457E+03</pdfrwt>
<pdfrwt beam="2">  1       21 0.15729835E-01 0.45380457E+03</pdfrwt>
<totfact> 0.59969212E+04</totfact>
</mgrwt>
</event>
<event>
 7    0  0.4685107E-002  0.4583282E+03  0.7546771E-02  0.1025267E+00
         21   -1    0    0  502  501  0.00000000000E+00  0.00000000000E+00  0.59432981913E+03  0.59432981913E+03  0.00000000000E+00 0.  1.
         21   -1    0    0  501  502 -0.00000000000E+00 -0.00000000000E+00 -0.88362041349E+02  0.88362041349E+02  0.00000000000E+00 0.  1.
      99926    2    1    2    0    0  0.14210854715E-13  0.17763568394E-14  0.50596777778E+03  0.68269186048E+03  0.45832824941E+03 0.  0.
      99925    2    3    3    0    0  0.67258261745E+02  0.80110789927E+01  0.45805289387E+03  0.53258791196E+03  0.26315314786E+03 0.  0.
         25    1    4    4    0    0  0.61081688056E+02  0.89600444225E+01  0.30065495237E+03  0.33143953219E+03  0.12509000000E+03 0.  0.
         25    1    4    4    0    0  0.61765736890E+01 -0.94896542974E+00  0.15739794149E+03  0.20114837977E+03  0.12509000000E+03 0.  0.
         25    1    3    3    0    0 -0.67258261745E+02 -0.80110789927E+01  0.47914883912E+02  0.15010394852E+03  0.12509000000E+03 0.  0.
<mgrwt>
<rscale>  2 0.45832825E+03</rscale>
<asrwt>0</asrwt>
<pdfrwt beam="1">  1       21 0.87401442E-01 0.45832825E+03</pdfrwt>
<pdfrwt beam="2">  1       21 0.12994418E-01 0.45832825E+03</pdfrwt>
<totfact> 0.52464257E+04</totfact>
</mgrwt>
</event>
<event>
 7    0  0.4685107E-002  0.4562907E+03  0.7546771E-02  0.1025863E+00
         21   -1    0    0  502  501  0.00000000000E+00  0.00000000000E+00  0.32678787483E+02  0.32678787483E+02  0.00000000000E+00 0. -1.
         21   -1    0    0  501  502 -0.00000000000E+00 -0.00000000000E+00 -0.15927857846E+04  0.15927857846E+04  0.00000000000E+00 0. -1.
      99926    2    1    2    0    0  0.00000000000E+00  0.00000000000E+00 -0.15601069971E+04  0.16254645721E+04  0.45629073258E+03 0.  0.
      99925    2    3    3    0    0  0.78212007694E+02  0.70718573423E+02 -0.82279335632E+03  0.87021815681E+03  0.26300665099E+03 0.  0.
         25    1    4    4    0    0  0.73292678398E+02  0.17348901583E+02 -0.38489447069E+03  0.41166013016E+03  0.12509000000E+03 0.  0.
         25    1    3    3    0    0 -0.78212007694E+02 -0.70718573423E+02 -0.73731364077E+03  0.75524641525E+03  0.12509000000E+03 0.  0.
         25    1    4    4    0    0  0.49193292958E+01  0.53369671840E+02 -0.43789888563E+03  0.45855802665E+03  0.12509000000E+03 0.  0.
<mgrwt>
<rscale>  2 0.45629073E+03</rscale>
<asrwt>0</asrwt>
<pdfrwt beam="1">  1       21 0.48057029E-02 0.45629073E+03</pdfrwt>
<pdfrwt beam="2">  1       21 0.23423326E+00 0.45629073E+03</pdfrwt>
<totfact> 0.20652642E+04</totfact>
</mgrwt>
</event>
<event>
 7    0  0.4685107E-002  0.4412473E+03  0.7546771E-02  0.1030365E+00
         21   -1    0    0  502  501  0.00000000000E+00  0.00000000000E+00  0.14087944474E+04  0.14087944474E+04  0.00000000000E+00 0. -1.
         21   -1    0    0  501  502 -0.00000000000E+00 -0.00000000000E+00 -0.34550677054E+02  0.34550677054E+02  0.00000000000E+00 0. -1.
      99926    2    1    2    0    0  0.00000000000E+00  0.16930901126E-14  0.13742437704E+04  0.14433451245E+04  0.44124733195E+03 0.  0.
      99925    2    3    3    0    0 -0.75498949477E+02  0.17061805076E+00  0.10887762644E+04  0.11226594130E+04  0.26311648217E+03 0.  0.
         25    1    3    3    0    0  0.75498949477E+02 -0.17061805076E+00  0.28546750596E+03  0.32068571147E+03  0.12509000000E+03 0.  0.
         25    1    4    4    0    0 -0.20573401000E+02  0.24585588751E+02  0.41054503437E+03  0.43037477778E+03  0.12509000000E+03 0.  0.
         25    1    4    4    0    0 -0.54925548477E+02 -0.24414970700E+02  0.67823123006E+03  0.69228463525E+03  0.12509000000E+03 0.  0.
<mgrwt>
<rscale>  2 0.44124733E+03</rscale>
<asrwt>0</asrwt>
<pdfrwt beam="1">  1       21 0.20717562E+00 0.44124733E+03</pdfrwt>
<pdfrwt beam="2">  1       21 0.50809829E-02 0.44124733E+03</pdfrwt>
<totfact> 0.28082591E+04</totfact>
</mgrwt>
</event>
<event>
 7    0  0.4685107E-002  0.4521384E+03  0.7546771E-02  0.1027086E+00
         21   -1    0    0  502  501  0.00000000000E+00  0.00000000000E+00  0.94146436546E+02  0.94146436546E+02  0.00000000000E+00 0. -1.
         21   -1    0    0  501  502 -0.00000000000E+00 -0.00000000000E+00 -0.54284872339E+03  0.54284872339E+03  0.00000000000E+00 0. -1.
      99926    2    1    2    0    0 -0.14210854715E-13  0.71054273576E-14 -0.44870228684E+03  0.63699515993E+03  0.45213835445E+03 0.  0.
      99925    2    3    3    0    0 -0.89658070937E+02  0.53098313919E+02 -0.23118295556E+03  0.36529648822E+03  0.26294099099E+03 0.  0.
         25    1    4    4    0    0 -0.42002852226E+02  0.51826116825E+02 -0.77795810568E+02  0.16170925212E+03  0.12509000000E+03 0.  0.
         25    1    4    4    0    0 -0.47655218711E+02  0.12721970940E+01 -0.15338714499E+03  0.20358723610E+03  0.12509000000E+03 0.  0.
         25    1    3    3    0    0  0.89658070937E+02 -0.53098313919E+02 -0.21751933128E+03  0.27169867171E+03  0.12509000000E+03 0.  0.
<mgrwt>
<rscale>  2 0.45213835E+03</rscale>
<asrwt>0</asrwt>
<pdfrwt beam="1">  1       21 0.13845065E-01 0.45213835E+03</pdfrwt>
<pdfrwt beam="2">  1       21 0.79830692E-01 0.45213835E+03</pdfrwt>
<totfact> 0.57750235E+04</totfact>
</mgrwt>
</event>
<event>
 7    0  0.4685107E-002  0.4458058E+03  0.7546771E-02  0.1028980E+00
         21   -1    0    0  502  501  0.00000000000E+00  0.00000000000E+00  0.10047380770E+03  0.10047380770E+03  0.00000000000E+00 0.  1.
         21   -1    0    0  501  502 -0.00000000000E+00 -0.00000000000E+00 -0.49451403607E+03  0.49451403607E+03  0.00000000000E+00 0.  1.
      99926    2    1    2    0    0 -0.14210854715E-13  0.00000000000E+00 -0.39404022838E+03  0.59498784377E+03  0.44580582394E+03 0.  0.
      99925    2    3    3    0    0 -0.76134814239E+02 -0.47801582482E+02 -0.17952553796E+03  0.33089399353E+03  0.26302075004E+03 0.  0.
         25    1    3    3    0    0  0.76134814239E+02  0.47801582482E+02 -0.21451469042E+03  0.26409385024E+03  0.12509000000E+03 0.  0.
         25    1    4    4    0    0 -0.33520840399E+02 -0.14513810165E+02 -0.13473601275E+03  0.18744492166E+03  0.12509000000E+03 0.  0.
         25    1    4    4    0    0 -0.42613973840E+02 -0.33287772317E+02 -0.44789525211E+02  0.14344907187E+03  0.12509000000E+03 0.  0.
<mgrwt>
<rscale>  2 0.44580582E+03</rscale>
<asrwt>0</asrwt>
<pdfrwt beam="1">  1       21 0.14775560E-01 0.44580582E+03</pdfrwt>
<pdfrwt beam="2">  1       21 0.72722652E-01 0.44580582E+03</pdfrwt>
<totfact> 0.63475343E+04</totfact>
</mgrwt>
</event>
<event>
 7    0  0.4685107E-002  0.4478282E+03  0.7546771E-02  0.1028372E+00
         21   -1    0    0  502  501  0.00000000000E+00  0.00000000000E+00  0.32109805002E+04  0.32109805002E+04  0.00000000000E+00 0. -1.
         21   -1    0    0  501  502 -0.00000000000E+00 -0.00000000000E+00 -0.15614399708E+02  0.15614399708E+02  0.00000000000E+00 0. -1.
      99926    2    1    2    0    0  0.14210854715E-13  0.00000000000E+00  0.31953661005E+04  0.32265948999E+04  0.44782823932E+03 0.  0.
      99925    2    3    3    0    0 -0.87584937879E+02  0.56906475306E+02  0.21714040238E+04  0.21897461593E+04  0.26283709663E+03 0.  0.
         25    1    4    4    0    0 -0.62074295797E+02  0.36959346540E+02  0.86627460088E+03  0.87823596130E+03  0.12509000000E+03 0.  0.
         25    1    3    3    0    0  0.87584937879E+02 -0.56906475306E+02  0.10239620767E+04  0.10368487406E+04  0.12509000000E+03 0.  0.
         25    1    4    4    0    0 -0.25510642082E+02  0.19947128766E+02  0.13051294229E+04  0.13115101980E+04  0.12509000000E+03 0.  0.
<mgrwt>
<rscale>  2 0.44782824E+03</rscale>
<asrwt>0</asrwt>
<pdfrwt beam="1">  1       21 0.47220256E+00 0.44782824E+03</pdfrwt>
<pdfrwt beam="2">  1       21 0.22962375E-02 0.44782824E+03</pdfrwt>
<totfact> 0.22966863E+03</totfact>
</mgrwt>
</event>
<event>
 7    0  0.4685107E-002  0.4515140E+03  0.7546771E-02  0.1027272E+00
         21   -1    0    0  502  501  0.00000000000E+00  0.00000000000E+00  0.29692063474E+03  0.29692063474E+03  0.00000000000E+00 0.  1.
         21   -1    0    0  501  502 -0.00000000000E+00 -0.00000000000E+00 -0.17164927595E+03  0.17164927595E+03  0.00000000000E+00 0.  1.
      99926    2    1    2    0    0 -0.14210854715E-13 -0.35527136788E-14  0.12527135880E+03  0.46856991069E+03  0.45151395092E+03 0.  0.
      99925    2    3    3    0    0  0.99357846273E+02  0.16270940385E+02  0.12485372899E+03  0.30799467091E+03  0.26293637738E+03 0.  0.
         25    1    3    3    0    0 -0.99357846273E+02 -0.16270940385E+02  0.41762980024E+00  0.16057523978E+03  0.12509000000E+03 0.  0.
         25    1    4    4    0    0  0.10227282563E+02  0.23914868022E+02  0.57173289203E+02  0.13997432379E+03  0.12509000000E+03 0.  0.
         25    1    4    4    0    0  0.89130563710E+02 -0.76439276369E+01  0.67680439792E+02  0.16802034712E+03  0.12509000000E+03 0.  0.
<mgrwt>
<rscale>  2 0.45151395E+03</rscale>
<asrwt>0</asrwt>
<pdfrwt beam="1">  1       21 0.43664799E-01 0.45151395E+03</pdfrwt>
<pdfrwt beam="2">  1       21 0.25242541E-01 0.45151395E+03</pdfrwt>
<totfact> 0.69442976E+04</totfact>
</mgrwt>
</event>
<event>
 7    0  0.4685107E-002  0.4643466E+03  0.7546771E-02  0.1023528E+00
         21   -1    0    0  502  501  0.00000000000E+00  0.00000000000E+00  0.10410178222E+03  0.10410178222E+03  0.00000000000E+00 0. -1.
         21   -1    0    0  501  502 -0.00000000000E+00 -0.00000000000E+00 -0.51780527979E+03  0.51780527979E+03  0.00000000000E+00 0. -1.
      99926    2    1    2    0    0  0.00000000000E+00  0.00000000000E+00 -0.41370349757E+03  0.62190706201E+03  0.46434664839E+03 0.  0.
      99925    2    3    3    0    0  0.11032804142E+03  0.51271525705E+02 -0.26437665130E+03  0.39223977834E+03  0.26297525338E+03 0.  0.
         25    1    4    4    0    0  0.98056145953E+02  0.28637975842E+02 -0.15946117877E+03  0.22695928501E+03  0.12509000000E+03 0.  0.
         25    1    4    4    0    0  0.12271895463E+02  0.22633549863E+02 -0.10491547253E+03  0.16528049333E+03  0.12509000000E+03 0.  0.
         25    1    3    3    0    0 -0.11032804142E+03 -0.51271525705E+02 -0.14932684627E+03  0.22966728367E+03  0.12509000000E+03 0.  0.
<mgrwt>
<rscale>  2 0.46434665E+03</rscale>
<asrwt>0</asrwt>
<pdfrwt beam="1">  1       21 0.15309086E-01 0.46434665E+03</pdfrwt>
<pdfrwt beam="2">  1       21 0.76147834E-01 0.46434665E+03</pdfrwt>
<totfact> 0.53305146E+04</totfact>
</mgrwt>
</event>
<event>
 7    0  0.4685107E-002  0.4588690E+03  0.7546771E-02  0.1025110E+00
         21   -1    0    0  502  501  0.00000000000E+00  0.00000000000E+00  0.70297599496E+03  0.70297599496E+03  0.00000000000E+00 0.  1.
         21   -1    0    0  501  502 -0.00000000000E+00 -0.00000000000E+00 -0.74881917605E+02  0.74881917605E+02  0.00000000000E+00 0.  1.
      99926    2    1    2    0    0  0.71054273576E-14  0.00000000000E+00  0.62809407736E+03  0.77785791257E+03  0.45886900324E+03 0.  0.
      99925    2    3    3    0    0 -0.57660824549E+02 -0.80622934252E+02  0.49847229591E+03  0.57225114580E+03  0.26300554341E+03 0.  0.
         25    1    4    4    0    0 -0.75674944304E+01 -0.21938117799E+02  0.16944573647E+03  0.21189127800E+03  0.12509000000E+03 0.  0.
         25    1    4    4    0    0 -0.50093330119E+02 -0.58684816454E+02  0.32902655944E+03  0.36035986780E+03  0.12509000000E+03 0.  0.
         25    1    3    3    0    0  0.57660824549E+02  0.80622934252E+02  0.12962178145E+03  0.20560676677E+03  0.12509000000E+03 0.  0.
<mgrwt>
<rscale>  2 0.45886900E+03</rscale>
<asrwt>0</asrwt>
<pdfrwt beam="1">  1       21 0.10337882E+00 0.45886900E+03</pdfrwt>
<pdfrwt beam="2">  1       21 0.11012047E-01 0.45886900E+03</pdfrwt>
<totfact> 0.47398549E+04</totfact>
</mgrwt>
</event>
<event>
 7    0  0.4685107E-002  0.4618304E+03  0.7546771E-02  0.1024252E+00
         21   -1    0    0  502  501  0.00000000000E+00  0.00000000000E+00  0.12892583205E+03  0.12892583205E+03  0.00000000000E+00 0. -1.
         21   -1    0    0  501  502 -0.00000000000E+00 -0.00000000000E+00 -0.41358533996E+03  0.41358533996E+03  0.00000000000E+00 0. -1.
      99926    2    1    2    0    0  0.00000000000E+00 -0.71054273576E-14 -0.28465950791E+03  0.54251117201E+03  0.46183041943E+03 0.  0.
      99925    2    3    3    0    0 -0.10546746766E+03 -0.52303042477E+02 -0.15390746898E+03  0.32663482135E+03  0.26295209169E+03 0.  0.
         25    1    4    4    0    0 -0.58588896820E+02  0.94626278028E+01 -0.95990377913E+02  0.16847510471E+03  0.12509000000E+03 0.  0.
         25    1    3    3    0    0  0.10546746766E+03  0.52303042477E+02 -0.13075203894E+03  0.21587635066E+03  0.12509000000E+03 0.  0.
         25    1    4    4    0    0 -0.46878570845E+02 -0.61765670280E+02 -0.57917091064E+02  0.15815971664E+03  0.12509000000E+03 0.  0.
<mgrwt>
<rscale>  2 0.46183042E+03</rscale>
<asrwt>0</asrwt>
<pdfrwt beam="1">  1       21 0.18959681E-01 0.46183042E+03</pdfrwt>
<pdfrwt beam="2">  1       21 0.60821374E-01 0.46183042E+03</pdfrwt>
<totfact> 0.59102927E+04</totfact>
</mgrwt>
</event>
<event>
 7    0  0.4685107E-002  0.4575942E+03  0.7546771E-02  0.1025481E+00
         21   -1    0    0  502  501  0.00000000000E+00  0.00000000000E+00  0.53002438257E+03  0.53002438257E+03  0.00000000000E+00 0.  1.
         21   -1    0    0  501  502 -0.00000000000E+00 -0.00000000000E+00 -0.98765467029E+02  0.98765467029E+02  0.00000000000E+00 0.  1.
      99926    2    1    2    0    0  0.00000000000E+00  0.00000000000E+00  0.43125891554E+03  0.62878984960E+03  0.45759416815E+03 0.  0.
      99925    2    3    3    0    0 -0.82440013807E+02 -0.28631233446E+02  0.37504138702E+03  0.46623517566E+03  0.26287467288E+03 0.  0.
         25    1    4    4    0    0 -0.82737841416E+02 -0.13090442421E+02  0.21629164608E+03  0.26352702774E+03  0.12509000000E+03 0.  0.
         25    1    3    3    0    0  0.82440013807E+02  0.28631233446E+02  0.56217528521E+02  0.16255467394E+03  0.12509000000E+03 0.  0.
         25    1    4    4    0    0  0.29782760829E+00 -0.15540791025E+02  0.15874974094E+03  0.20270814792E+03  0.12509000000E+03 0.  0.
<mgrwt>
<rscale>  2 0.45759417E+03</rscale>
<asrwt>0</asrwt>
<pdfrwt beam="1">  1       21 0.77944761E-01 0.45759417E+03</pdfrwt>
<pdfrwt beam="2">  1       21 0.14524334E-01 0.45759417E+03</pdfrwt>
<totfact> 0.55788917E+04</totfact>
</mgrwt>
</event>
<event>
 6    0  0.4685107E-002  0.4578131E+03  0.7546771E-02  0.1025417E+00
         21   -1    0    0  502  501  0.00000000000E+00  0.00000000000E+00  0.21814201403E+02  0.21814201403E+02  0.00000000000E+00 0.  1.
         21   -1    0    0  501  502 -0.00000000000E+00 -0.00000000000E+00 -0.24020225549E+04  0.24020225549E+04  0.00000000000E+00 0.  1.
      99926    2    1    2    0    0 -0.71054273576E-14  0.00000000000E+00 -0.23802083535E+04  0.24238367563E+04  0.45781307883E+03 0.  0.
         25    1    3    3    0    0 -0.57091130333E+02  0.82078502731E+02 -0.56563064573E+03  0.58786206993E+03  0.12509000000E+03 0.  0.
         25    1    3    3    0    0  0.51213828569E+02 -0.27770236291E+02 -0.10848283654E+04  0.10935694457E+04  0.12509000000E+03 0.  0.
         25    1    3    3    0    0  0.58773017634E+01 -0.54308266441E+02 -0.72974934238E+03  0.74240524061E+03  0.12509000000E+03 0.  0.
<mgrwt>
<rscale>  2 0.45781308E+03</rscale>
<asrwt>0</asrwt>
<pdfrwt beam="1">  1       21 0.32079728E-02 0.45781308E+03</pdfrwt>
<pdfrwt beam="2">  1       21 0.35323839E+00 0.45781308E+03</pdfrwt>
<totfact> 0.77714546E+03</totfact>
</mgrwt>
</event>
<event>
 7    0  0.4685107E-002  0.4418465E+03  0.7546771E-02  0.1030182E+00
         21   -1    0    0  502  501  0.00000000000E+00  0.00000000000E+00  0.80673389831E+02  0.80673389831E+02  0.00000000000E+00 0.  1.
         21   -1    0    0  501  502 -0.00000000000E+00 -0.00000000000E+00 -0.60499608840E+03  0.60499608840E+03  0.00000000000E+00 0.  1.
      99926    2    1    2    0    0  0.00000000000E+00  0.00000000000E+00 -0.52432269857E+03  0.68566947823E+03  0.44184651311E+03 0.  0.
      99925    2    3    3    0    0  0.29527974569E+01  0.83517406448E+02 -0.24823921430E+03  0.37125975418E+03  0.26311066372E+03 0.  0.
         25    1    4    4    0    0 -0.28171728325E+02  0.61553191024E+02 -0.10163781021E+03  0.17481474241E+03  0.12509000000E+03 0.  0.
         25    1    3    3    0    0 -0.29527974569E+01 -0.83517406448E+02 -0.27608348428E+03  0.31440972406E+03  0.12509000000E+03 0.  0.
         25    1    4    4    0    0  0.31124525782E+02  0.21964215424E+02 -0.14660140409E+03  0.19644501176E+03  0.12509000000E+03 0.  0.
<mgrwt>
<rscale>  2 0.44184651E+03</rscale>
<asrwt>0</asrwt>
<pdfrwt beam="1">  1       21 0.11863733E-01 0.44184651E+03</pdfrwt>
<pdfrwt beam="2">  1       21 0.88970016E-01 0.44184651E+03</pdfrwt>
<totfact> 0.59626939E+04</totfact>
</mgrwt>
</event>
<event>
 7    0  0.4685107E-002  0.4527088E+03  0.7546771E-02  0.1026917E+00
         21   -1    0    0  502  501  0.00000000000E+00  0.00000000000E+00  0.66827099536E+03  0.66827099536E+03  0.00000000000E+00 0.  1.
         21   -1    0    0  501  502 -0.00000000000E+00 -0.00000000000E+00 -0.76669952964E+02  0.76669952964E+02  0.00000000000E+00 0.  1.
      99926    2    1    2    0    0 -0.17763568394E-14  0.00000000000E+00  0.59160104240E+03  0.74494094832E+03  0.45270876193E+03 0.  0.
      99925    2    3    3    0    0 -0.82893210700E+01  0.68668639350E+02  0.51589024046E+03  0.58318888959E+03  0.26302556124E+03 0.  0.
         25    1    4    4    0    0  0.28416367232E+02  0.34620333946E+02  0.20417371495E+03  0.24359899718E+03  0.12509000000E+03 0.  0.
         25    1    4    4    0    0 -0.36705688302E+02  0.34048305405E+02  0.31171652551E+03  0.33958989242E+03  0.12509000000E+03 0.  0.
         25    1    3    3    0    0  0.82893210700E+01 -0.68668639350E+02  0.75710801933E+02  0.16175205873E+03  0.12509000000E+03 0.  0.
<mgrwt>
<rscale>  2 0.45270876E+03</rscale>
<asrwt>0</asrwt>
<pdfrwt beam="1">  1       21 0.98275143E-01 0.45270876E+03</pdfrwt>
<pdfrwt beam="2">  1       21 0.11274993E-01 0.45270876E+03</pdfrwt>
<totfact> 0.51450325E+04</totfact>
</mgrwt>
</event>
<event>
 7    0  0.4685107E-002  0.4374753E+03  0.7546771E-02  0.1031524E+00
         21   -1    0    0  502  501  0.00000000000E+00  0.00000000000E+00  0.29640961169E+03  0.29640961169E+03  0.00000000000E+00 0.  1.
         21   -1    0    0  501  502 -0.00000000000E+00 -0.00000000000E+00 -0.16141907316E+03  0.16141907316E+03  0.00000000000E+00 0.  1.
      99926    2    1    2    0    0  0.00000000000E+00 -0.35527136788E-14  0.13499053853E+03  0.45782868486E+03  0.43747532409E+03 0.  0.
      99925    2    3    3    0    0 -0.15252411391E+02  0.23236486009E+02 -0.94896175984E+01  0.26471060194E+03  0.26307618592E+03 0.  0.
         25    1    4    4    0    0 -0.27780257402E+02  0.46427624276E+02 -0.12296043342E+02  0.13684285798E+03  0.12509000000E+03 0.  0.
         25    1    4    4    0    0  0.12527846012E+02 -0.23191138267E+02  0.28064257434E+01  0.12786774396E+03  0.12509000000E+03 0.  0.
         25    1    3    3    0    0  0.15252411391E+02 -0.23236486009E+02  0.14448015613E+03  0.19311808292E+03  0.12509000000E+03 0.  0.
<mgrwt>
<rscale>  2 0.43747532E+03</rscale>
<asrwt>0</asrwt>
<pdfrwt beam="1">  1       21 0.43589649E-01 0.43747532E+03</pdfrwt>
<pdfrwt beam="2">  1       21 0.23738099E-01 0.43747532E+03</pdfrwt>
<totfact> 0.78743160E+04</totfact>
</mgrwt>
</event>
<event>
 7    0  0.4685107E-002  0.4653731E+03  0.7546771E-02  0.1023234E+00
         21   -1    0    0  502  501  0.00000000000E+00  0.00000000000E+00  0.38985186423E+03  0.38985186423E+03  0.00000000000E+00 0.  1.
         21   -1    0    0  501  502 -0.00000000000E+00 -0.00000000000E+00 -0.13888103671E+03  0.13888103671E+03  0.00000000000E+00 0.  1.
      99926    2    1    2    0    0  0.17763568394E-14  0.00000000000E+00  0.25097082752E+03  0.52873290095E+03  0.46537310223E+03 0.  0.
      99925    2    3    3    0    0 -0.38203636924E+01  0.11319945657E+03  0.10301659690E+03  0.30430769157E+03  0.26298676728E+03 0.  0.
         25    1    3    3    0    0  0.38203636924E+01 -0.11319945657E+03  0.14795423062E+03  0.22442520938E+03  0.12509000000E+03 0.  0.
         25    1    4    4    0    0 -0.29035330338E+02  0.67148229940E+02  0.83506209115E+02  0.16725050150E+03  0.12509000000E+03 0.  0.
         25    1    4    4    0    0  0.25214966645E+02  0.46051226634E+02  0.19510387786E+02  0.13705719007E+03  0.12509000000E+03 0.  0.
<mgrwt>
<rscale>  2 0.46537310E+03</rscale>
<asrwt>0</asrwt>
<pdfrwt beam="1">  1       21 0.57331156E-01 0.46537310E+03</pdfrwt>
<pdfrwt beam="2">  1       21 0.20423682E-01 0.46537310E+03</pdfrwt>
<totfact> 0.58344668E+04</totfact>
</mgrwt>
</event>
<event>
 7    0  0.4685107E-002  0.4512642E+03  0.7546771E-02  0.1027346E+00
         21   -1    0    0  502  501  0.00000000000E+00  0.00000000000E+00  0.11068005200E+04  0.11068005200E+04  0.00000000000E+00 0.  1.
         21   -1    0    0  501  502 -0.00000000000E+00 -0.00000000000E+00 -0.45997303267E+02  0.45997303267E+02  0.00000000000E+00 0.  1.
      99926    2    1    2    0    0  0.00000000000E+00  0.26645352591E-14  0.10608032167E+04  0.11527978232E+04  0.45126417616E+03 0.  0.
      99925    2    3    3    0    0 -0.91797674863E+02 -0.60619084648E+01  0.82178944787E+03  0.86777387751E+03  0.26311603146E+03 0.  0.
         25    1    3    3    0    0  0.91797674863E+02  0.60619084648E+01  0.23901376882E+03  0.28502394571E+03  0.12509000000E+03 0.  0.
         25    1    4    4    0    0 -0.52582497269E+02  0.31004069379E+02  0.34849686383E+03  0.37526489782E+03  0.12509000000E+03 0.  0.
         25    1    4    4    0    0 -0.39215177595E+02 -0.37065977844E+02  0.47329258404E+03  0.49250897969E+03  0.12509000000E+03 0.  0.
<mgrwt>
<rscale>  2 0.45126418E+03</rscale>
<asrwt>0</asrwt>
<pdfrwt beam="1">  1       21 0.16276477E+00 0.45126418E+03</pdfrwt>
<pdfrwt beam="2">  1       21 0.67643100E-02 0.45126418E+03</pdfrwt>
<totfact> 0.34688082E+04</totfact>
</mgrwt>
</event>
<event>
 7    0  0.4685107E-002  0.4564090E+03  0.7546771E-02  0.1025828E+00
         21   -1    0    0  502  501  0.00000000000E+00  0.00000000000E+00  0.10297332450E+03  0.10297332450E+03  0.00000000000E+00 0. -1.
         21   -1    0    0  501  502 -0.00000000000E+00 -0.00000000000E+00 -0.50573580371E+03  0.50573580371E+03  0.00000000000E+00 0. -1.
      99926    2    1    2    0    0  0.00000000000E+00  0.00000000000E+00 -0.40276247920E+03  0.60870912821E+03  0.45640901405E+03 0.  0.
      99925    2    3    3    0    0  0.44281240017E+02 -0.56156476648E+02 -0.13727583783E+03  0.30664118397E+03  0.26470697378E+03 0.  0.
         25    1    3    3    0    0 -0.44281240017E+02  0.56156476648E+02 -0.26548664137E+03  0.30206794424E+03  0.12509000000E+03 0.  0.
         25    1    4    4    0    0  0.55033742077E+02 -0.45924081377E+02 -0.99352073150E+02  0.17508876765E+03  0.12509000000E+03 0.  0.
         25    1    4    4    0    0 -0.10752502060E+02 -0.10232395272E+02 -0.37923764681E+02  0.13155241633E+03  0.12509000000E+03 0.  0.
<mgrwt>
<rscale>  2 0.45640901E+03</rscale>
<asrwt>0</asrwt>
<pdfrwt beam="1">  1       21 0.15143136E-01 0.45640901E+03</pdfrwt>
<pdfrwt beam="2">  1       21 0.74372914E-01 0.45640901E+03</pdfrwt>
<totfact> 0.57502682E+04</totfact>
</mgrwt>
</event>
<event>
 7    0  0.4685107E-002  0.4491309E+03  0.7546771E-02  0.1027982E+00
         21   -1    0    0  502  501  0.00000000000E+00  0.00000000000E+00  0.24865709442E+03  0.24865709442E+03  0.00000000000E+00 0.  1.
         21   -1    0    0  501  502 -0.00000000000E+00 -0.00000000000E+00 -0.20280798831E+03  0.20280798831E+03  0.00000000000E+00 0.  1.
      99926    2    1    2    0    0  0.00000000000E+00  0.00000000000E+00  0.45849106112E+02  0.45146508273E+03  0.44913091676E+03 0.  0.
      99925    2    3    3    0    0  0.38275328735E+02  0.89662821931E+02  0.75354316670E+02  0.29015021058E+03  0.26268697956E+03 0.  0.
         25    1    4    4    0    0  0.52341154324E+02  0.22306630576E+02  0.37945161591E+02  0.14256411046E+03  0.12509000000E+03 0.  0.
         25    1    4    4    0    0 -0.14065825589E+02  0.67356191355E+02  0.37409155079E+02  0.14758610011E+03  0.12509000000E+03 0.  0.
         25    1    3    3    0    0 -0.38275328735E+02 -0.89662821931E+02 -0.29505210559E+02  0.16131487215E+03  0.12509000000E+03 0.  0.
<mgrwt>
<rscale>  2 0.44913092E+03</rscale>
<asrwt>0</asrwt>
<pdfrwt beam="1">  1       21 0.36567220E-01 0.44913092E+03</pdfrwt>
<pdfrwt beam="2">  1       21 0.29824704E-01 0.44913092E+03</pdfrwt>
<totfact> 0.72124147E+04</totfact>
</mgrwt>
</event>
<event>
 7    0  0.4685107E-002  0.4557828E+03  0.7546771E-02  0.1026011E+00
         21   -1    0    0  502  501  0.00000000000E+00  0.00000000000E+00  0.20595978653E+03  0.20595978653E+03  0.00000000000E+00 0.  1.
         21   -1    0    0  501  502 -0.00000000000E+00 -0.00000000000E+00 -0.25215839494E+03  0.25215839494E+03  0.00000000000E+00 0.  1.
      99926    2    1    2    0    0  0.00000000000E+00 -0.14210854715E-13 -0.46198608405E+02  0.45811818147E+03  0.45578279561E+03 0.  0.
      99925    2    3    3    0    0 -0.35555720172E+02 -0.10776212959E+03 -0.22073728246E+02  0.28751219168E+03  0.26324726983E+03 0.  0.
         25    1    3    3    0    0  0.35555720172E+02  0.10776212959E+03 -0.24124880159E+02  0.17060598980E+03  0.12509000000E+03 0.  0.
         25    1    4    4    0    0  0.81549083559E+01 -0.54815544787E+02 -0.42723946834E+02  0.14333209764E+03  0.12509000000E+03 0.  0.
         25    1    4    4    0    0 -0.43710628528E+02 -0.52946584806E+02  0.20650218588E+02  0.14418009404E+03  0.12509000000E+03 0.  0.
<mgrwt>
<rscale>  2 0.45578280E+03</rscale>
<asrwt>0</asrwt>
<pdfrwt beam="1">  1       21 0.30288204E-01 0.45578280E+03</pdfrwt>
<pdfrwt beam="2">  1       21 0.37082117E-01 0.45578280E+03</pdfrwt>
<totfact> 0.67892922E+04</totfact>
</mgrwt>
</event>
<event>
 7    0  0.4685107E-002  0.4473508E+03  0.7546771E-02  0.1028515E+00
         21   -1    0    0  502  501  0.00000000000E+00  0.00000000000E+00  0.33642016792E+02  0.33642016792E+02  0.00000000000E+00 0. -1.
         21   -1    0    0  501  502 -0.00000000000E+00 -0.00000000000E+00 -0.14871486536E+04  0.14871486536E+04  0.00000000000E+00 0. -1.
      99926    2    1    2    0    0  0.00000000000E+00  0.00000000000E+00 -0.14535066368E+04  0.15207906704E+04  0.44735077949E+03 0.  0.
      99925    2    3    3    0    0 -0.36796596940E+02  0.84957416075E+02 -0.74705071534E+03  0.79739642853E+03  0.26302954366E+03 0.  0.
         25    1    3    3    0    0  0.36796596940E+02 -0.84957416075E+02 -0.70645592149E+03  0.72339424189E+03  0.12509000000E+03 0.  0.
         25    1    4    4    0    0 -0.52622143058E+02  0.67375024952E+02 -0.40024622390E+03  0.42796382064E+03  0.12509000000E+03 0.  0.
         25    1    4    4    0    0  0.15825546118E+02  0.17582391123E+02 -0.34680449144E+03  0.36943260789E+03  0.12509000000E+03 0.  0.
<mgrwt>
<rscale>  2 0.44735078E+03</rscale>
<asrwt>0</asrwt>
<pdfrwt beam="1">  1       21 0.49473559E-02 0.44735078E+03</pdfrwt>
<pdfrwt beam="2">  1       21 0.21869831E+00 0.44735078E+03</pdfrwt>
<totfact> 0.24709920E+04</totfact>
</mgrwt>
</event>
<event>
 7    0  0.4685107E-002  0.4560315E+03  0.7546771E-02  0.1025939E+00
         21   -1    0    0  502  501  0.00000000000E+00  0.00000000000E+00  0.28782490696E+03  0.28782490696E+03  0.00000000000E+00 0. -1.
         21   -1    0    0  501  502 -0.00000000000E+00 -0.00000000000E+00 -0.18063472200E+03  0.18063472200E+03  0.00000000000E+00 0. -1.
      99926    2    1    2    0    0  0.14210854715E-13  0.00000000000E+00  0.10719018496E+03  0.46845962896E+03  0.45603145529E+03 0.  0.
      99925    2    3    3    0    0 -0.72731699071E+02  0.43109277479E+02 -0.11747205229E+02  0.27625681748E+03  0.26273850597E+03 0.  0.
         25    1    4    4    0    0 -0.19475282858E+01  0.32062504748E+02  0.13708860009E+02  0.12987393126E+03  0.12509000000E+03 0.  0.
         25    1    3    3    0    0  0.72731699071E+02 -0.43109277479E+02  0.11893739019E+03  0.19220281148E+03  0.12509000000E+03 0.  0.
         25    1    4    4    0    0 -0.70784170785E+02  0.11046772731E+02 -0.25456065238E+02  0.14638288622E+03  0.12509000000E+03 0.  0.
<mgrwt>
<rscale>  2 0.45603146E+03</rscale>
<asrwt>0</asrwt>
<pdfrwt beam="1">  1       21 0.42327192E-01 0.45603146E+03</pdfrwt>
<pdfrwt beam="2">  1       21 0.26563930E-01 0.45603146E+03</pdfrwt>
<totfact> 0.67000753E+04</totfact>
</mgrwt>
</event>
<event>
 7    0  0.4685107E-002  0.4559342E+03  0.7546771E-02  0.1025967E+00
         21   -1    0    0  502  501  0.00000000000E+00  0.00000000000E+00  0.73454964926E+03  0.73454964926E+03  0.00000000000E+00 0.  1.
         21   -1    0    0  501  502 -0.00000000000E+00 -0.00000000000E+00 -0.70749466396E+02  0.70749466396E+02  0.00000000000E+00 0.  1.
      99926    2    1    2    0    0 -0.11102230246E-15 -0.14210854715E-13  0.66380018286E+03  0.80529911565E+03  0.45593418703E+03 0.  0.
      99925    2    3    3    0    0  0.40430624096E+00  0.78495834586E+02  0.56351931851E+03  0.62678995800E+03  0.26296362791E+03 0.  0.
         25    1    4    4    0    0  0.14357136345E+01  0.76951791672E+00  0.22101723361E+03  0.25396609830E+03  0.12509000000E+03 0.  0.
         25    1    4    4    0    0 -0.10314073935E+01  0.77726316669E+02  0.34250208489E+03  0.37282385970E+03  0.12509000000E+03 0.  0.
         25    1    3    3    0    0 -0.40430624096E+00 -0.78495834586E+02  0.10028086436E+03  0.17850915765E+03  0.12509000000E+03 0.  0.
<mgrwt>
<rscale>  2 0.45593419E+03</rscale>
<asrwt>0</asrwt>
<pdfrwt beam="1">  1       21 0.10802200E+00 0.45593419E+03</pdfrwt>
<pdfrwt beam="2">  1       21 0.10404334E-01 0.45593419E+03</pdfrwt>
<totfact> 0.47162860E+04</totfact>
</mgrwt>
</event>
<event>
 7    0  0.4685107E-002  0.4553847E+03  0.7546771E-02  0.1026128E+00
         21   -1    0    0  502  501  0.00000000000E+00  0.00000000000E+00  0.17846731319E+03  0.17846731319E+03  0.00000000000E+00 0. -1.
         21   -1    0    0  501  502 -0.00000000000E+00 -0.00000000000E+00 -0.29049468368E+03  0.29049468368E+03  0.00000000000E+00 0. -1.
      99926    2    1    2    0    0  0.35527136788E-14  0.00000000000E+00 -0.11202737048E+03  0.46896199687E+03  0.45538469756E+03 0.  0.
      99925    2    3    3    0    0  0.15614144996E+02  0.25922508953E+02  0.42365186359E+02  0.26796361951E+03  0.26285721289E+03 0.  0.
         25    1    4    4    0    0  0.37324412356E+02 -0.27737264777E+01 -0.15921149917E+01  0.13057889664E+03  0.12509000000E+03 0.  0.
         25    1    3    3    0    0 -0.15614144996E+02 -0.25922508953E+02 -0.15439255684E+03  0.20099837736E+03  0.12509000000E+03 0.  0.
         25    1    4    4    0    0 -0.21710267360E+02  0.28696235430E+02  0.43957301351E+02  0.13738472287E+03  0.12509000000E+03 0.  0.
<mgrwt>
<rscale>  2 0.45538470E+03</rscale>
<asrwt>0</asrwt>
<pdfrwt beam="1">  1       21 0.26245193E-01 0.45538470E+03</pdfrwt>
<pdfrwt beam="2">  1       21 0.42719806E-01 0.45538470E+03</pdfrwt>
<totfact> 0.67307424E+04</totfact>
</mgrwt>
</event>
<event>
 7    0  0.4685107E-002  0.4541684E+03  0.7546771E-02  0.1026486E+00
         21   -1    0    0  502  501  0.00000000000E+00  0.00000000000E+00  0.14758290683E+03  0.14758290683E+03  0.00000000000E+00 0.  1.
         21   -1    0    0  501  502 -0.00000000000E+00 -0.00000000000E+00 -0.34941195228E+03  0.34941195228E+03  0.00000000000E+00 0.  1.
      99926    2    1    2    0    0  0.71054273576E-14  0.00000000000E+00 -0.20182904546E+03  0.49699485911E+03  0.45416838991E+03 0.  0.
      99925    2    3    3    0    0  0.54005038035E+02  0.56789912639E+02 -0.21518478398E+03  0.34878041257E+03  0.26306205851E+03 0.  0.
         25    1    4    4    0    0  0.67652517237E+02  0.38399836612E+02 -0.11380701425E+03  0.18614767023E+03  0.12509000000E+03 0.  0.
         25    1    4    4    0    0 -0.13647479203E+02  0.18390076027E+02 -0.10137776973E+03  0.16263274234E+03  0.12509000000E+03 0.  0.
         25    1    3    3    0    0 -0.54005038035E+02 -0.56789912639E+02  0.13355738524E+02  0.14821444654E+03  0.12509000000E+03 0.  0.
<mgrwt>
<rscale>  2 0.45416839E+03</rscale>
<asrwt>0</asrwt>
<pdfrwt beam="1">  1       21 0.21703369E-01 0.45416839E+03</pdfrwt>
<pdfrwt beam="2">  1       21 0.51384110E-01 0.45416839E+03</pdfrwt>
<totfact> 0.65916378E+04</totfact>
</mgrwt>
</event>
<event>
 7    0  0.4685107E-002  0.4586374E+03  0.7546771E-02  0.1025177E+00
         21   -1    0    0  502  501  0.00000000000E+00  0.00000000000E+00  0.80168287059E+02  0.80168287059E+02  0.00000000000E+00 0. -1.
         21   -1    0    0  501  502 -0.00000000000E+00 -0.00000000000E+00 -0.65595842751E+03  0.65595842751E+03  0.00000000000E+00 0. -1.
      99926    2    1    2    0    0  0.00000000000E+00  0.00000000000E+00 -0.57579014045E+03  0.73612671457E+03  0.45863738843E+03 0.  0.
      99925    2    3    3    0    0  0.59347105392E+02  0.63662258196E+02 -0.48555525786E+03  0.55902560172E+03  0.26300333249E+03 0.  0.
         25    1    3    3    0    0 -0.59347105392E+02 -0.63662258196E+02 -0.90234882587E+02  0.17710111285E+03  0.12509000000E+03 0.  0.
         25    1    4    4    0    0  0.38023121869E+02  0.11615723389E+01 -0.18162007251E+03  0.22378665261E+03  0.12509000000E+03 0.  0.
         25    1    4    4    0    0  0.21323983523E+02  0.62500685857E+02 -0.30393518535E+03  0.33523894911E+03  0.12509000000E+03 0.  0.
<mgrwt>
<rscale>  2 0.45863739E+03</rscale>
<asrwt>0</asrwt>
<pdfrwt beam="1">  1       21 0.11789454E-01 0.45863739E+03</pdfrwt>
<pdfrwt beam="2">  1       21 0.96464472E-01 0.45863739E+03</pdfrwt>
<totfact> 0.49552630E+04</totfact>
</mgrwt>
</event>
<event>
 7    0  0.4685107E-002  0.4331950E+03  0.7546771E-02  0.1032855E+00
         21   -1    0    0  502  501  0.00000000000E+00  0.00000000000E+00  0.34745062089E+02  0.34745062089E+02  0.00000000000E+00 0.  1.
         21   -1    0    0  501  502 -0.00000000000E+00 -0.00000000000E+00 -0.13502490093E+04  0.13502490093E+04  0.00000000000E+00 0.  1.
      99926    2    1    2    0    0  0.14210854715E-13  0.00000000000E+00 -0.13155039472E+04  0.13849940713E+04  0.43319503996E+03 0.  0.
      99925    2    3    3    0    0  0.84290284603E+02  0.34643430299E+02 -0.83790656531E+03  0.88294647739E+03  0.26306282596E+03 0.  0.
         25    1    3    3    0    0 -0.84290284603E+02 -0.34643430299E+02 -0.47759738186E+03  0.50204759396E+03  0.12509000000E+03 0.  0.
         25    1    4    4    0    0  0.61140868328E+02  0.53515803209E+02 -0.42018175696E+03  0.44587258713E+03  0.12509000000E+03 0.  0.
         25    1    4    4    0    0  0.23149416275E+02 -0.18872372910E+02 -0.41772480835E+03  0.43707389026E+03  0.12509000000E+03 0.  0.
<mgrwt>
<rscale>  2 0.43319504E+03</rscale>
<asrwt>0</asrwt>
<pdfrwt beam="1">  1       21 0.51095679E-02 0.43319504E+03</pdfrwt>
<pdfrwt beam="2">  1       21 0.19856603E+00 0.43319504E+03</pdfrwt>
<totfact> 0.31790409E+04</totfact>
</mgrwt>
</event>
<event>
 7    0  0.4685107E-002  0.4538538E+03  0.7546771E-02  0.1026579E+00
         21   -1    0    0  502  501  0.00000000000E+00  0.00000000000E+00  0.52270525242E+03  0.52270525242E+03  0.00000000000E+00 0.  1.
         21   -1    0    0  501  502 -0.00000000000E+00 -0.00000000000E+00 -0.98517888284E+02  0.98517888284E+02  0.00000000000E+00 0.  1.
      99926    2    1    2    0    0 -0.35527136788E-14  0.14210854715E-13  0.42418736413E+03  0.62122314070E+03  0.45385379876E+03 0.  0.
      99925    2    3    3    0    0  0.24926583664E+02 -0.10422308212E+03  0.22250719090E+03  0.36082693144E+03  0.26306432490E+03 0.  0.
         25    1    3    3    0    0 -0.24926583664E+02  0.10422308212E+03  0.20168017324E+03  0.26039620926E+03  0.12509000000E+03 0.  0.
         25    1    4    4    0    0 -0.26641049548E+02 -0.52179806209E+02  0.93790359545E+02  0.16696292205E+03  0.12509000000E+03 0.  0.
         25    1    4    4    0    0  0.51567633212E+02 -0.52043275913E+02  0.12871683135E+03  0.19386400939E+03  0.12509000000E+03 0.  0.
<mgrwt>
<rscale>  2 0.45385380E+03</rscale>
<asrwt>0</asrwt>
<pdfrwt beam="1">  1       21 0.76868418E-01 0.45385380E+03</pdfrwt>
<pdfrwt beam="2">  1       21 0.14487925E-01 0.45385380E+03</pdfrwt>
<totfact> 0.57912953E+04</totfact>
</mgrwt>
</event>
<event>
 7    0  0.4685107E-002  0.4461529E+03  0.7546771E-02  0.1028876E+00
         21   -1    0    0  502  501  0.00000000000E+00  0.00000000000E+00  0.61289184672E+03  0.61289184672E+03  0.00000000000E+00 0. -1.
         21   -1    0    0  501  502 -0.00000000000E+00 -0.00000000000E+00 -0.81193946660E+02  0.81193946660E+02  0.00000000000E+00 0. -1.
      99926    2    1    2    0    0  0.17763568394E-14  0.00000000000E+00  0.53169790006E+03  0.69408579338E+03  0.44615292406E+03 0.  0.
      99925    2    3    3    0    0 -0.49434493317E+01 -0.10110057733E+03  0.37953220000E+03  0.47261870146E+03  0.26282690446E+03 0.  0.
         25    1    4    4    0    0  0.30766344201E+02 -0.39709596139E+02  0.21811475726E+03  0.25640783022E+03  0.12509000000E+03 0.  0.
         25    1    4    4    0    0 -0.35709793532E+02 -0.61390981190E+02  0.16141744274E+03  0.21621087125E+03  0.12509000000E+03 0.  0.
         25    1    3    3    0    0  0.49434493317E+01  0.10110057733E+03  0.15216570007E+03  0.22146709192E+03  0.12509000000E+03 0.  0.
<mgrwt>
<rscale>  2 0.44615292E+03</rscale>
<asrwt>0</asrwt>
<pdfrwt beam="1">  1       21 0.90131151E-01 0.44615292E+03</pdfrwt>
<pdfrwt beam="2">  1       21 0.11940287E-01 0.44615292E+03</pdfrwt>
<totfact> 0.57098642E+04</totfact>
</mgrwt>
</event>
<event>
 6    0  0.4685107E-002  0.4580077E+03  0.7546771E-02  0.1025361E+00
         21   -1    0    0  502  501  0.00000000000E+00  0.00000000000E+00  0.50312366494E+02  0.50312366494E+02  0.00000000000E+00 0. -1.
         21   -1    0    0  501  502 -0.00000000000E+00 -0.00000000000E+00 -0.10423433472E+04  0.10423433472E+04  0.00000000000E+00 0. -1.
      99926    2    1    2    0    0  0.00000000000E+00 -0.14210854715E-13 -0.99203098076E+03  0.10926557137E+04  0.45800768770E+03 0.  0.
         25    1    3    3    0    0 -0.97003217187E+01  0.11673289160E+03 -0.34951921084E+03  0.38927092245E+03  0.12509000000E+03 0.  0.
         25    1    3    3    0    0 -0.25295836124E+02 -0.79728647433E+02 -0.36291279129E+03  0.39287369310E+03  0.12509000000E+03 0.  0.
         25    1    3    3    0    0  0.34996157843E+02 -0.37004244169E+02 -0.27959897863E+03  0.31051109819E+03  0.12509000000E+03 0.  0.
<mgrwt>
<rscale>  2 0.45800769E+03</rscale>
<asrwt>0</asrwt>
<pdfrwt beam="1">  1       21 0.73988778E-02 0.45800769E+03</pdfrwt>
<pdfrwt beam="2">  1       21 0.15328578E+00 0.45800769E+03</pdfrwt>
<totfact> 0.34923271E+04</totfact>
</mgrwt>
</event>
<event>
 7    0  0.4685107E-002  0.4516732E+03  0.7546771E-02  0.1027224E+00
         21   -1    0    0  502  501  0.00000000000E+00  0.00000000000E+00  0.90899884575E+03  0.90899884575E+03  0.00000000000E+00 0. -1.
         21   -1    0    0  501  502 -0.00000000000E+00 -0.00000000000E+00 -0.56108059303E+02  0.56108059303E+02  0.00000000000E+00 0. -1.
      99926    2    1    2    0    0  0.00000000000E+00  0.14210854715E-13  0.85289078644E+03  0.96510690505E+03  0.45167316123E+03 0.  0.
      99925    2    3    3    0    0 -0.17484959016E+02 -0.74734890302E+02  0.37020650521E+03  0.46060452540E+03  0.26308296163E+03 0.  0.
         25    1    4    4    0    0 -0.24781360452E+02 -0.53267376011E+02  0.24993881293E+03  0.28560190385E+03  0.12509000000E+03 0.  0.
         25    1    4    4    0    0  0.72964014360E+01 -0.21467514291E+02  0.12026769227E+03  0.17500262155E+03  0.12509000000E+03 0.  0.
         25    1    3    3    0    0  0.17484959016E+02  0.74734890302E+02  0.48268428124E+03  0.50450237965E+03  0.12509000000E+03 0.  0.
<mgrwt>
<rscale>  2 0.45167316E+03</rscale>
<asrwt>0</asrwt>
<pdfrwt beam="1">  1       21 0.13367629E+00 0.45167316E+03</pdfrwt>
<pdfrwt beam="2">  1       21 0.82511858E-02 0.45167316E+03</pdfrwt>
<totfact> 0.41606810E+04</totfact>
</mgrwt>
</event>
<event>
 7    0  0.4685107E-002  0.4363722E+03  0.7546771E-02  0.1031866E+00
         21   -1    0    0  502  501  0.00000000000E+00  0.00000000000E+00  0.92129305073E+03  0.92129305073E+03  0.00000000000E+00 0. -1.
         21   -1    0    0  501  502 -0.00000000000E+00 -0.00000000000E+00 -0.51672123413E+02  0.51672123413E+02  0.00000000000E+00 0. -1.
      99926    2    1    2    0    0  0.00000000000E+00  0.00000000000E+00  0.86962092732E+03  0.97296517414E+03  0.43637217243E+03 0.  0.
      99925    2    3    3    0    0  0.80375730843E+02  0.42741222221E+02  0.49820614275E+03  0.57061766206E+03  0.26288416726E+03 0.  0.
         25    1    4    4    0    0  0.14965480241E+02  0.52418841481E+02  0.23234251898E+03  0.26944805578E+03  0.12509000000E+03 0.  0.
         25    1    3    3    0    0 -0.80375730843E+02 -0.42741222221E+02  0.37141478457E+03  0.40234751208E+03  0.12509000000E+03 0.  0.
         25    1    4    4    0    0  0.65410250602E+02 -0.96776192607E+01  0.26586362377E+03  0.30116960628E+03  0.12509000000E+03 0.  0.
<mgrwt>
<rscale>  2 0.43637217E+03</rscale>
<asrwt>0</asrwt>
<pdfrwt beam="1">  1       21 0.13548426E+00 0.43637217E+03</pdfrwt>
<pdfrwt beam="2">  1       21 0.75988422E-02 0.43637217E+03</pdfrwt>
<totfact> 0.46657398E+04</totfact>
</mgrwt>
</event>
<event>
 6    0  0.4685107E-002  0.4517213E+03  0.7546771E-02  0.1027210E+00
         21   -1    0    0  502  501  0.00000000000E+00  0.00000000000E+00  0.93524215009E+02  0.93524215009E+02  0.00000000000E+00 0. -1.
         21   -1    0    0  501  502 -0.00000000000E+00 -0.00000000000E+00 -0.54545259125E+03  0.54545259125E+03  0.00000000000E+00 0. -1.
      99926    2    1    2    0    0  0.00000000000E+00 -0.26645352591E-14 -0.45192837624E+03  0.63897680626E+03  0.45172126548E+03 0.  0.
         25    1    3    3    0    0 -0.81197094029E+02 -0.60383465896E+01 -0.24082139111E+03  0.28332292569E+03  0.12509000000E+03 0.  0.
         25    1    3    3    0    0  0.33162798631E+02  0.29991082879E+02 -0.16523529124E+03  0.21201284357E+03  0.12509000000E+03 0.  0.
         25    1    3    3    0    0  0.48034295398E+02 -0.23952736289E+02 -0.45871693893E+02  0.14364103700E+03  0.12509000000E+03 0.  0.
<mgrwt>
<rscale>  2 0.45172127E+03</rscale>
<asrwt>0</asrwt>
<pdfrwt beam="1">  1       21 0.13753561E-01 0.45172127E+03</pdfrwt>
<pdfrwt beam="2">  1       21 0.80213615E-01 0.45172127E+03</pdfrwt>
<totfact> 0.57822713E+04</totfact>
</mgrwt>
</event>
<event>
 7    0  0.4685107E-002  0.4552439E+03  0.7546771E-02  0.1026170E+00
         21   -1    0    0  502  501  0.00000000000E+00  0.00000000000E+00  0.23001741718E+03  0.23001741718E+03  0.00000000000E+00 0.  1.
         21   -1    0    0  501  502 -0.00000000000E+00 -0.00000000000E+00 -0.22525138891E+03  0.22525138891E+03  0.00000000000E+00 0.  1.
      99926    2    1    2    0    0  0.00000000000E+00 -0.71054273576E-14  0.47660282650E+01  0.45526880609E+03  0.45524385857E+03 0.  0.
      99925    2    3    3    0    0  0.71763445603E+02 -0.62708630020E+02 -0.58404334120E+02  0.28579796143E+03  0.26303430216E+03 0.  0.
         25    1    4    4    0    0  0.15318367696E+02 -0.56787973183E+02 -0.53887391899E+02  0.14836065986E+03  0.12509000000E+03 0.  0.
         25    1    3    3    0    0 -0.71763445603E+02  0.62708630020E+02  0.63170362385E+02  0.16947084465E+03  0.12509000000E+03 0.  0.
         25    1    4    4    0    0  0.56445077907E+02 -0.59206568370E+01 -0.45169422209E+01  0.13743730158E+03  0.12509000000E+03 0.  0.
<mgrwt>
<rscale>  2 0.45524386E+03</rscale>
<asrwt>0</asrwt>
<pdfrwt beam="1">  1       21 0.33826091E-01 0.45524386E+03</pdfrwt>
<pdfrwt beam="2">  1       21 0.33125204E-01 0.45524386E+03</pdfrwt>
<totfact> 0.68392931E+04</totfact>
</mgrwt>
</event>
<event>
 7    0  0.4685107E-002  0.4606499E+03  0.7546771E-02  0.1024593E+00
         21   -1    0    0  502  501  0.00000000000E+00  0.00000000000E+00  0.62425624003E+02  0.62425624003E+02  0.00000000000E+00 0. -1.
         21   -1    0    0  501  502 -0.00000000000E+00 -0.00000000000E+00 -0.84980464168E+03  0.84980464168E+03  0.00000000000E+00 0. -1.
      99926    2    1    2    0    0  0.00000000000E+00  0.00000000000E+00 -0.78737901768E+03  0.91223026568E+03  0.46064991062E+03 0.  0.
      99925    2    3    3    0    0  0.72950540736E+02  0.63783825918E+02 -0.35923271914E+03  0.45577991910E+03  0.26324329111E+03 0.  0.
         25    1    4    4    0    0  0.16230918570E+02  0.59894209012E+02 -0.14528225642E+03  0.20150732275E+03  0.12509000000E+03 0.  0.
         25    1    4    4    0    0  0.56719622166E+02  0.38896169061E+01 -0.21395046271E+03  0.25427259635E+03  0.12509000000E+03 0.  0.
         25    1    3    3    0    0 -0.72950540736E+02 -0.63783825918E+02 -0.42814629854E+03  0.45645034659E+03  0.12509000000E+03 0.  0.
<mgrwt>
<rscale>  2 0.46064991E+03</rscale>
<asrwt>0</asrwt>
<pdfrwt beam="1">  1       21 0.91802396E-02 0.46064991E+03</pdfrwt>
<pdfrwt beam="2">  1       21 0.12497126E+00 0.46064991E+03</pdfrwt>
<totfact> 0.40871295E+04</totfact>
</mgrwt>
</event>
<event>
 7    0  0.4685107E-002  0.4569399E+03  0.7546771E-02  0.1025672E+00
         21   -1    0    0  502  501  0.00000000000E+00  0.00000000000E+00  0.44511716293E+03  0.44511716293E+03  0.00000000000E+00 0. -1.
         21   -1    0    0  501  502 -0.00000000000E+00 -0.00000000000E+00 -0.11726915996E+03  0.11726915996E+03  0.00000000000E+00 0. -1.
      99926    2    1    2    0    0  0.00000000000E+00 -0.22204460493E-15  0.32784800297E+03  0.56238632289E+03  0.45693989006E+03 0.  0.
      99925    2    3    3    0    0 -0.69704533438E+02  0.11761999582E+01  0.31850831242E+03  0.41887728712E+03  0.26296488579E+03 0.  0.
         25    1    4    4    0    0 -0.53114611952E+02  0.15277693550E+02  0.21618155604E+03  0.25580567467E+03  0.12509000000E+03 0.  0.
         25    1    4    4    0    0 -0.16589921486E+02 -0.14101493591E+02  0.10232675638E+03  0.16307161245E+03  0.12509000000E+03 0.  0.
         25    1    3    3    0    0  0.69704533438E+02 -0.11761999582E+01  0.93396905501E+01  0.14350903577E+03  0.12509000000E+03 0.  0.
<mgrwt>
<rscale>  2 0.45693989E+03</rscale>
<asrwt>0</asrwt>
<pdfrwt beam="1">  1       21 0.65458406E-01 0.45693989E+03</pdfrwt>
<pdfrwt beam="2">  1       21 0.17245465E-01 0.45693989E+03</pdfrwt>
<totfact> 0.60127473E+04</totfact>
</mgrwt>
</event>
<event>
 7    0  0.4685107E-002  0.4544789E+03  0.7546771E-02  0.1026395E+00
         21   -1    0    0  502  501  0.00000000000E+00  0.00000000000E+00  0.63154685531E+02  0.63154685531E+02  0.00000000000E+00 0.  1.
         21   -1    0    0  501  502 -0.00000000000E+00 -0.00000000000E+00 -0.81763942019E+03  0.81763942019E+03  0.00000000000E+00 0.  1.
      99926    2    1    2    0    0  0.00000000000E+00  0.00000000000E+00 -0.75448473465E+03  0.88079410572E+03  0.45447886842E+03 0.  0.
      99925    2    3    3    0    0 -0.40232602533E+02 -0.92679894754E+02 -0.57171825519E+03  0.63736173458E+03  0.26298287435E+03 0.  0.
         25    1    3    3    0    0  0.40232602533E+02  0.92679894754E+02 -0.18276647947E+03  0.24343237113E+03  0.12509000000E+03 0.  0.
         25    1    4    4    0    0 -0.15892355754E+02 -0.87054413563E+02 -0.33766917141E+03  0.37080859660E+03  0.12509000000E+03 0.  0.
         25    1    4    4    0    0 -0.24340246779E+02 -0.56254811908E+01 -0.23404908378E+03  0.26655313798E+03  0.12509000000E+03 0.  0.
<mgrwt>
<rscale>  2 0.45447887E+03</rscale>
<asrwt>0</asrwt>
<pdfrwt beam="1">  1       21 0.92874544E-02 0.45447887E+03</pdfrwt>
<pdfrwt beam="2">  1       21 0.12024108E+00 0.45447887E+03</pdfrwt>
<totfact> 0.44254878E+04</totfact>
</mgrwt>
</event>
<event>
 7    0  0.4685107E-002  0.4527474E+03  0.7546771E-02  0.1026906E+00
         21   -1    0    0  502  501  0.00000000000E+00  0.00000000000E+00  0.82190805921E+03  0.82190805921E+03  0.00000000000E+00 0. -1.
         21   -1    0    0  501  502 -0.00000000000E+00 -0.00000000000E+00 -0.62348879549E+02  0.62348879549E+02  0.00000000000E+00 0. -1.
      99926    2    1    2    0    0  0.00000000000E+00  0.00000000000E+00  0.75955917966E+03  0.88425693876E+03  0.45274737585E+03 0.  0.
      99925    2    3    3    0    0 -0.29803697267E+02  0.10015968855E+03  0.55246190461E+03  0.62070995431E+03  0.26295715953E+03 0.  0.
         25    1    4    4    0    0 -0.81234820225E+01  0.64965221070E+02  0.20327130122E+03  0.24749384015E+03  0.12509000000E+03 0.  0.
         25    1    4    4    0    0 -0.21680215244E+02  0.35194467482E+02  0.34919060339E+03  0.37321611416E+03  0.12509000000E+03 0.  0.
         25    1    3    3    0    0  0.29803697267E+02 -0.10015968855E+03  0.20709727505E+03  0.26354698445E+03  0.12509000000E+03 0.  0.
<mgrwt>
<rscale>  2 0.45274738E+03</rscale>
<asrwt>0</asrwt>
<pdfrwt beam="1">  1       21 0.12086883E+00 0.45274738E+03</pdfrwt>
<pdfrwt beam="2">  1       21 0.91689533E-02 0.45274738E+03</pdfrwt>
<totfact> 0.44704821E+04</totfact>
</mgrwt>
</event>
<event>
 7    0  0.4685107E-002  0.4508943E+03  0.7546771E-02  0.1027456E+00
         21   -1    0    0  502  501  0.00000000000E+00  0.00000000000E+00  0.12874772897E+03  0.12874772897E+03  0.00000000000E+00 0.  1.
         21   -1    0    0  501  502 -0.00000000000E+00 -0.00000000000E+00 -0.39477527819E+03  0.39477527819E+03  0.00000000000E+00 0.  1.
      99926    2    1    2    0    0 -0.71054273576E-14  0.00000000000E+00 -0.26602754923E+03  0.52352300716E+03  0.45089431364E+03 0.  0.
      99925    2    3    3    0    0 -0.59778192861E+02 -0.91225660506E+02 -0.16051127959E+03  0.32685896689E+03  0.26301589284E+03 0.  0.
         25    1    4    4    0    0 -0.26950039334E+02 -0.34554090055E+01 -0.81217371966E+02  0.15159819946E+03  0.12509000000E+03 0.  0.
         25    1    4    4    0    0 -0.32828153527E+02 -0.87770251501E+02 -0.79293907622E+02  0.17526076743E+03  0.12509000000E+03 0.  0.
         25    1    3    3    0    0  0.59778192861E+02  0.91225660506E+02 -0.10551626964E+03  0.19666404027E+03  0.12509000000E+03 0.  0.
<mgrwt>
<rscale>  2 0.45089431E+03</rscale>
<asrwt>0</asrwt>
<pdfrwt beam="1">  1       21 0.18933490E-01 0.45089431E+03</pdfrwt>
<pdfrwt beam="2">  1       21 0.58055187E-01 0.45089431E+03</pdfrwt>
<totfact> 0.65761447E+04</totfact>
</mgrwt>
</event>
<event>
 7    0  0.4685107E-002  0.4564136E+03  0.7546771E-02  0.1025827E+00
         21   -1    0    0  502  501  0.00000000000E+00  0.00000000000E+00  0.50319152549E+03  0.50319152549E+03  0.00000000000E+00 0.  1.
         21   -1    0    0  501  502 -0.00000000000E+00 -0.00000000000E+00 -0.10349606703E+03  0.10349606703E+03  0.00000000000E+00 0.  1.
      99926    2    1    2    0    0  0.00000000000E+00  0.00000000000E+00  0.39969545846E+03  0.60668759251E+03  0.45641360124E+03 0.  0.
      99925    2    3    3    0    0 -0.78983964646E+02 -0.71703325265E+01  0.14211125005E+03  0.30955628675E+03  0.26332414803E+03 0.  0.
         25    1    4    4    0    0 -0.36087369374E+02 -0.48920070066E+01  0.11663595613E+03  0.17486476009E+03  0.12509000000E+03 0.  0.
         25    1    3    3    0    0  0.78983964646E+02  0.71703325265E+01  0.25758420841E+03  0.29713130576E+03  0.12509000000E+03 0.  0.
         25    1    4    4    0    0 -0.42896595273E+02 -0.22783255200E+01  0.25475293923E+02  0.13469152666E+03  0.12509000000E+03 0.  0.
<mgrwt>
<rscale>  2 0.45641360E+03</rscale>
<asrwt>0</asrwt>
<pdfrwt beam="1">  1       21 0.73998753E-01 0.45641360E+03</pdfrwt>
<pdfrwt beam="2">  1       21 0.15220010E-01 0.45641360E+03</pdfrwt>
<totfact> 0.57622331E+04</totfact>
</mgrwt>
</event>
<event>
 7    0  0.4685107E-002  0.4347820E+03  0.7546771E-02  0.1032360E+00
         21   -1    0    0  502  501  0.00000000000E+00  0.00000000000E+00  0.93205723897E+02  0.93205723897E+02  0.00000000000E+00 0. -1.
         21   -1    0    0  501  502 -0.00000000000E+00 -0.00000000000E+00 -0.50703803435E+03  0.50703803435E+03  0.00000000000E+00 0. -1.
      99926    2    1    2    0    0  0.00000000000E+00  0.00000000000E+00 -0.41383231046E+03  0.60024375825E+03  0.43478200071E+03 0.  0.
      99925    2    3    3    0    0  0.66165558869E+02 -0.50776028212E+02 -0.32209212361E+03  0.42411921083E+03  0.26301650648E+03 0.  0.
         25    1    3    3    0    0 -0.66165558869E+02  0.50776028212E+02 -0.91740186842E+02  0.17612454742E+03  0.12509000000E+03 0.  0.
         25    1    4    4    0    0  0.47989140289E+01 -0.39502795403E+02 -0.11651639753E+03  0.17551945594E+03  0.12509000000E+03 0.  0.
         25    1    4    4    0    0  0.61366644841E+02 -0.11273232809E+02 -0.20557572608E+03  0.24859975489E+03  0.12509000000E+03 0.  0.
<mgrwt>
<rscale>  2 0.43478200E+03</rscale>
<asrwt>0</asrwt>
<pdfrwt beam="1">  1       21 0.13706725E-01 0.43478200E+03</pdfrwt>
<pdfrwt beam="2">  1       21 0.74564414E-01 0.43478200E+03</pdfrwt>
<totfact> 0.69049081E+04</totfact>
</mgrwt>
</event>
<event>
 7    0  0.4685107E-002  0.4416263E+03  0.7546771E-02  0.1030249E+00
         21   -1    0    0  502  501  0.00000000000E+00  0.00000000000E+00  0.27063369809E+03  0.27063369809E+03  0.00000000000E+00 0.  1.
         21   -1    0    0  501  502 -0.00000000000E+00 -0.00000000000E+00 -0.18016397890E+03  0.18016397890E+03  0.00000000000E+00 0.  1.
      99926    2    1    2    0    0  0.00000000000E+00  0.35527136788E-14  0.90469719181E+02  0.45079767699E+03  0.44162628487E+03 0.  0.
      99925    2    3    3    0    0 -0.59731575079E+02 -0.26240818338E+02  0.13507595057E+03  0.30283259467E+03  0.26306962265E+03 0.  0.
         25    1    4    4    0    0 -0.10566011092E+02  0.42731933429E+01  0.28998070009E+02  0.12891197359E+03  0.12509000000E+03 0.  0.
         25    1    4    4    0    0 -0.49165563987E+02 -0.30514011681E+02  0.10607788056E+03  0.17392062107E+03  0.12509000000E+03 0.  0.
         25    1    3    3    0    0  0.59731575079E+02  0.26240818338E+02 -0.44606231384E+02  0.14796508232E+03  0.12509000000E+03 0.  0.
<mgrwt>
<rscale>  2 0.44162628E+03</rscale>
<asrwt>0</asrwt>
<pdfrwt beam="1">  1       21 0.39799074E-01 0.44162628E+03</pdfrwt>
<pdfrwt beam="2">  1       21 0.26494702E-01 0.44162628E+03</pdfrwt>
<totfact> 0.76711373E+04</totfact>
</mgrwt>
</event>
<event>
 7    0  0.4685107E-002  0.4528886E+03  0.7546771E-02  0.1026864E+00
         21   -1    0    0  502  501  0.00000000000E+00  0.00000000000E+00  0.17159117059E+02  0.17159117059E+02  0.00000000000E+00 0.  1.
         21   -1    0    0  501  502 -0.00000000000E+00 -0.00000000000E+00 -0.29883255245E+04  0.29883255245E+04  0.00000000000E+00 0.  1.
      99926    2    1    2    0    0  0.00000000000E+00 -0.15543122345E-14 -0.29711664074E+04  0.30054846415E+04  0.45288862863E+03 0.  0.
      99925    2    3    3    0    0  0.69889404809E+02 -0.18601659937E+01 -0.24447252672E+04  0.24598879302E+04  0.26358871053E+03 0.  0.
         25    1    4    4    0    0  0.67541388058E+02 -0.21707182650E+02 -0.14548120844E+04  0.14619024420E+04  0.12509000000E+03 0.  0.
         25    1    4    4    0    0  0.23480167511E+01  0.19847016657E+02 -0.98991318273E+03  0.99798548822E+03  0.12509000000E+03 0.  0.
         25    1    3    3    0    0 -0.69889404809E+02  0.18601659937E+01 -0.52644114023E+03  0.54559671127E+03  0.12509000000E+03 0.  0.
<mgrwt>
<rscale>  2 0.45288863E+03</rscale>
<asrwt>0</asrwt>
<pdfrwt beam="1">  1       21 0.25233985E-02 0.45288863E+03</pdfrwt>
<pdfrwt beam="2">  1       21 0.43945983E+00 0.45288863E+03</pdfrwt>
<totfact> 0.32702795E+03</totfact>
</mgrwt>
</event>
<event>
 7    0  0.4685107E-002  0.4526321E+03  0.7546771E-02  0.1026940E+00
         21   -1    0    0  502  501  0.00000000000E+00  0.00000000000E+00  0.13385173079E+03  0.13385173079E+03  0.00000000000E+00 0.  1.
         21   -1    0    0  501  502 -0.00000000000E+00 -0.00000000000E+00 -0.38265443292E+03  0.38265443292E+03  0.00000000000E+00 0.  1.
      99926    2    1    2    0    0  0.00000000000E+00  0.00000000000E+00 -0.24880270214E+03  0.51650616371E+03  0.45263211614E+03 0.  0.
      99925    2    3    3    0    0 -0.68047968829E+02  0.11101991588E+02 -0.57612536844E+02  0.27785376442E+03  0.26292533108E+03 0.  0.
         25    1    4    4    0    0 -0.68128194605E+02 -0.55424799474E+01 -0.97177115057E+01  0.14287796192E+03  0.12509000000E+03 0.  0.
         25    1    4    4    0    0  0.80225776334E-01  0.16644471536E+02 -0.47894825339E+02  0.13497580251E+03  0.12509000000E+03 0.  0.
         25    1    3    3    0    0  0.68047968829E+02 -0.11101991588E+02 -0.19119016529E+03  0.23865239928E+03  0.12509000000E+03 0.  0.
<mgrwt>
<rscale>  2 0.45263212E+03</rscale>
<asrwt>0</asrwt>
<pdfrwt beam="1">  1       21 0.19684078E-01 0.45263212E+03</pdfrwt>
<pdfrwt beam="2">  1       21 0.56272710E-01 0.45263212E+03</pdfrwt>
<totfact> 0.65345006E+04</totfact>
</mgrwt>
</event>
<event>
 7    0  0.4685107E-002  0.4559152E+03  0.7546771E-02  0.1025973E+00
         21   -1    0    0  502  501  0.00000000000E+00  0.00000000000E+00  0.19878886085E+03  0.19878886085E+03  0.00000000000E+00 0.  1.
         21   -1    0    0  501  502 -0.00000000000E+00 -0.00000000000E+00 -0.26140631901E+03  0.26140631901E+03  0.00000000000E+00 0.  1.
      99926    2    1    2    0    0  0.00000000000E+00  0.00000000000E+00 -0.62617458156E+02  0.46019517986E+03  0.45591518675E+03 0.  0.
      99925    2    3    3    0    0  0.59088438330E+02 -0.46399370061E+02 -0.12602712929E+03  0.30109571544E+03  0.26292859763E+03 0.  0.
         25    1    3    3    0    0 -0.59088438330E+02  0.46399370061E+02  0.63409671139E+02  0.15909946442E+03  0.12509000000E+03 0.  0.
         25    1    4    4    0    0  0.47413099713E+01 -0.45477883671E+02 -0.87547214681E+02  0.15938237300E+03  0.12509000000E+03 0.  0.
         25    1    4    4    0    0  0.54347128359E+02 -0.92148638990E+00 -0.38479914614E+02  0.14171334244E+03  0.12509000000E+03 0.  0.
<mgrwt>
<rscale>  2 0.45591519E+03</rscale>
<asrwt>0</asrwt>
<pdfrwt beam="1">  1       21 0.29233656E-01 0.45591519E+03</pdfrwt>
<pdfrwt beam="2">  1       21 0.38442106E-01 0.45591519E+03</pdfrwt>
<totfact> 0.67671108E+04</totfact>
</mgrwt>
</event>
<event>
 7    0  0.4685107E-002  0.4581446E+03  0.7546771E-02  0.1025321E+00
         21   -1    0    0  502  501  0.00000000000E+00  0.00000000000E+00  0.28851114917E+02  0.28851114917E+02  0.00000000000E+00 0.  1.
         21   -1    0    0  501  502 -0.00000000000E+00 -0.00000000000E+00 -0.18187902031E+04  0.18187902031E+04  0.00000000000E+00 0.  1.
      99926    2    1    2    0    0  0.00000000000E+00  0.00000000000E+00 -0.17899390882E+04  0.18476413180E+04  0.45814462851E+03 0.  0.
      99925    2    3    3    0    0 -0.10889540207E+03 -0.39198765589E+02 -0.10899115417E+04  0.11271686775E+04  0.26307281684E+03 0.  0.
         25    1    4    4    0    0 -0.95620706625E+02 -0.15262411393E+02 -0.55141060291E+03  0.57365270141E+03  0.12509000000E+03 0.  0.
         25    1    4    4    0    0 -0.13274695449E+02 -0.23936354195E+02 -0.53850093882E+03  0.55351597610E+03  0.12509000000E+03 0.  0.
         25    1    3    3    0    0  0.10889540207E+03  0.39198765589E+02 -0.70002754647E+03  0.72047264052E+03  0.12509000000E+03 0.  0.
<mgrwt>
<rscale>  2 0.45814463E+03</rscale>
<asrwt>0</asrwt>
<pdfrwt beam="1">  1       21 0.42428108E-02 0.45814463E+03</pdfrwt>
<pdfrwt beam="2">  1       21 0.26746916E+00 0.45814463E+03</pdfrwt>
<totfact> 0.15967791E+04</totfact>
</mgrwt>
</event>
<event>
 7    0  0.4685107E-002  0.4519503E+03  0.7546771E-02  0.1027142E+00
         21   -1    0    0  502  501  0.00000000000E+00  0.00000000000E+00  0.31953032446E+03  0.31953032446E+03  0.00000000000E+00 0.  1.
         21   -1    0    0  501  502 -0.00000000000E+00 -0.00000000000E+00 -0.15981199838E+03  0.15981199838E+03  0.00000000000E+00 0.  1.
      99926    2    1    2    0    0  0.00000000000E+00 -0.35527136788E-14  0.15971832608E+03  0.47934232284E+03  0.45195034991E+03 0.  0.
      99925    2    3    3    0    0  0.88012157350E+02 -0.29800608036E+02  0.16382577277E+03  0.32346225581E+03  0.26297287128E+03 0.  0.
         25    1    4    4    0    0  0.13886394953E+02 -0.41576531948E+02  0.68536956579E+02  0.14921884094E+03  0.12509000000E+03 0.  0.
         25    1    3    3    0    0 -0.88012157350E+02  0.29800608036E+02 -0.41074466838E+01  0.15588006704E+03  0.12509000000E+03 0.  0.
         25    1    4    4    0    0  0.74125762397E+02  0.11775923912E+02  0.95288816187E+02  0.17424341487E+03  0.12509000000E+03 0.  0.
<mgrwt>
<rscale>  2 0.45195035E+03</rscale>
<asrwt>0</asrwt>
<pdfrwt beam="1">  1       21 0.46989754E-01 0.45195035E+03</pdfrwt>
<pdfrwt beam="2">  1       21 0.23501765E-01 0.45195035E+03</pdfrwt>
<totfact> 0.68388566E+04</totfact>
</mgrwt>
</event>
<event>
 7    0  0.4685107E-002  0.4546576E+03  0.7546771E-02  0.1026342E+00
         21   -1    0    0  502  501  0.00000000000E+00  0.00000000000E+00  0.36093698203E+03  0.36093698203E+03  0.00000000000E+00 0. -1.
         21   -1    0    0  501  502 -0.00000000000E+00 -0.00000000000E+00 -0.14317840555E+03  0.14317840555E+03  0.00000000000E+00 0. -1.
      99926    2    1    2    0    0  0.00000000000E+00  0.00000000000E+00  0.21775857648E+03  0.50411538757E+03  0.45465759243E+03 0.  0.
      99925    2    3    3    0    0 -0.10043635462E+03  0.25407885280E+02  0.87463695683E+02  0.29589126307E+03  0.26299946680E+03 0.  0.
         25    1    3    3    0    0  0.10043635462E+03 -0.25407885280E+02  0.13029488080E+03  0.20822412450E+03  0.12509000000E+03 0.  0.
         25    1    4    4    0    0 -0.53760306911E+02  0.38725766755E+02  0.77411912778E+02  0.16133805487E+03  0.12509000000E+03 0.  0.
         25    1    4    4    0    0 -0.46676047708E+02 -0.13317881475E+02  0.10051782904E+02  0.13455320820E+03  0.12509000000E+03 0.  0.
<mgrwt>
<rscale>  2 0.45465759E+03</rscale>
<asrwt>0</asrwt>
<pdfrwt beam="1">  1       21 0.53078968E-01 0.45465759E+03</pdfrwt>
<pdfrwt beam="2">  1       21 0.21055648E-01 0.45465759E+03</pdfrwt>
<totfact> 0.65159413E+04</totfact>
</mgrwt>
</event>
<event>
 7    0  0.4685107E-002  0.4515913E+03  0.7546771E-02  0.1027249E+00
         21   -1    0    0  502  501  0.00000000000E+00  0.00000000000E+00  0.71848375881E+02  0.71848375881E+02  0.00000000000E+00 0.  1.
         21   -1    0    0  501  502 -0.00000000000E+00 -0.00000000000E+00 -0.70960091775E+03  0.70960091775E+03  0.00000000000E+00 0.  1.
      99926    2    1    2    0    0  0.00000000000E+00  0.00000000000E+00 -0.63775254187E+03  0.78144929363E+03  0.45159129072E+03 0.  0.
      99925    2    3    3    0    0  0.75162869932E+02  0.73277621096E+02 -0.34628408174E+03  0.44735284331E+03  0.26304530860E+03 0.  0.
         25    1    4    4    0    0  0.37138418011E+02  0.69661762208E+02 -0.14376755758E+03  0.20627322153E+03  0.12509000000E+03 0.  0.
         25    1    3    3    0    0 -0.75162869932E+02 -0.73277621096E+02 -0.29146846013E+03  0.33409645032E+03  0.12509000000E+03 0.  0.
         25    1    4    4    0    0  0.38024451921E+02  0.36158588878E+01 -0.20251652416E+03  0.24107962178E+03  0.12509000000E+03 0.  0.
<mgrwt>
<rscale>  2 0.45159129E+03</rscale>
<asrwt>0</asrwt>
<pdfrwt beam="1">  1       21 0.10565937E-01 0.45159129E+03</pdfrwt>
<pdfrwt beam="2">  1       21 0.10435308E+00 0.45159129E+03</pdfrwt>
<totfact> 0.49999608E+04</totfact>
</mgrwt>
</event>
<event>
 7    0  0.4685107E-002  0.4551020E+03  0.7546771E-02  0.1026211E+00
         21   -1    0    0  502  501  0.00000000000E+00  0.00000000000E+00  0.85854803877E+02  0.85854803877E+02  0.00000000000E+00 0.  1.
         21   -1    0    0  501  502 -0.00000000000E+00 -0.00000000000E+00 -0.60310486291E+03  0.60310486291E+03  0.00000000000E+00 0.  1.
      99926    2    1    2    0    0  0.00000000000E+00  0.00000000000E+00 -0.51725005903E+03  0.68895966678E+03  0.45510196538E+03 0.  0.
      99925    2    3    3    0    0 -0.73841924261E+02 -0.85685764130E+02 -0.31803396582E+03  0.42794388211E+03  0.26305072300E+03 0.  0.
         25    1    3    3    0    0  0.73841924261E+02  0.85685764130E+02 -0.19921609321E+03  0.26101578467E+03  0.12509000000E+03 0.  0.
         25    1    4    4    0    0 -0.30730552344E+02 -0.43717648216E+01 -0.11836059080E+03  0.17498633298E+03  0.12509000000E+03 0.  0.
         25    1    4    4    0    0 -0.43111371917E+02 -0.81313999308E+02 -0.19967337502E+03  0.25295754913E+03  0.12509000000E+03 0.  0.
<mgrwt>
<rscale>  2 0.45510197E+03</rscale>
<asrwt>0</asrwt>
<pdfrwt beam="1">  1       21 0.12625707E-01 0.45510197E+03</pdfrwt>
<pdfrwt beam="2">  1       21 0.88691890E-01 0.45510197E+03</pdfrwt>
<totfact> 0.53463683E+04</totfact>
</mgrwt>
</event>
<event>
 7    0  0.4685107E-002  0.4893148E+03  0.7546771E-02  0.1016606E+00
         21   -1    0    0  502  501  0.00000000000E+00  0.00000000000E+00  0.74942738654E+03  0.74942738654E+03  0.00000000000E+00 0.  1.
         21   -1    0    0  501  502 -0.00000000000E+00 -0.00000000000E+00 -0.79870638934E+02  0.79870638934E+02  0.00000000000E+00 0.  1.
      99926    2    1    2    0    0  0.00000000000E+00 -0.14210854715E-13  0.66955674761E+03  0.82929802548E+03  0.48931480336E+03 0.  0.
      99925    2    3    3    0    0 -0.11070377370E+03 -0.89637353870E+02  0.38893626146E+03  0.49064548073E+03  0.26300454665E+03 0.  0.
         25    1    4    4    0    0 -0.46596499510E+02 -0.58640232571E+02  0.13473641756E+03  0.19852284745E+03  0.12509000000E+03 0.  0.
         25    1    4    4    0    0 -0.64107274192E+02 -0.30997121299E+02  0.25419984390E+03  0.29212263328E+03  0.12509000000E+03 0.  0.
         25    1    3    3    0    0  0.11070377370E+03  0.89637353870E+02  0.28062048615E+03  0.33865254475E+03  0.12509000000E+03 0.  0.
<mgrwt>
<rscale>  2 0.48931480E+03</rscale>
<asrwt>0</asrwt>
<pdfrwt beam="1">  1       21 0.11020991E+00 0.48931480E+03</pdfrwt>
<pdfrwt beam="2">  1       21 0.11745683E-01 0.48931480E+03</pdfrwt>
<totfact> 0.35740494E+04</totfact>
</mgrwt>
</event>
<event>
 7    0  0.4685107E-002  0.3997191E+03  0.7546771E-02  0.1043877E+00
         21   -1    0    0  502  501  0.00000000000E+00  0.00000000000E+00  0.12213043238E+04  0.12213043238E+04  0.00000000000E+00 0.  1.
         21   -1    0    0  501  502 -0.00000000000E+00 -0.00000000000E+00 -0.32705889534E+02  0.32705889534E+02  0.00000000000E+00 0.  1.
      99926    2    1    2    0    0  0.17763568394E-14  0.00000000000E+00  0.11885984342E+04  0.12540102133E+04  0.39971912289E+03 0.  0.
      99925    2    3    3    0    0 -0.52742822204E+01  0.17278450573E+02  0.92210798146E+03  0.95906779108E+03  0.26306184730E+03 0.  0.
         25    1    4    4    0    0  0.23604869010E+02 -0.21233027733E+02  0.42024103139E+03  0.43961126449E+03  0.12509000000E+03 0.  0.
         25    1    4    4    0    0 -0.28879151230E+02  0.38511478305E+02  0.50186695007E+03  0.51945652659E+03  0.12509000000E+03 0.  0.
         25    1    3    3    0    0  0.52742822204E+01 -0.17278450573E+02  0.26649045276E+03  0.29494242221E+03  0.12509000000E+03 0.  0.
<mgrwt>
<rscale>  2 0.39971912E+03</rscale>
<asrwt>0</asrwt>
<pdfrwt beam="1">  1       21 0.17960355E+00 0.39971912E+03</pdfrwt>
<pdfrwt beam="2">  1       21 0.48096904E-02 0.39971912E+03</pdfrwt>
<totfact> 0.48065542E+04</totfact>
</mgrwt>
</event>
<event>
 7    0  0.4685107E-002  0.4616413E+03  0.7546771E-02  0.1024306E+00
         21   -1    0    0  502  501  0.00000000000E+00  0.00000000000E+00  0.11165483021E+03  0.11165483021E+03  0.00000000000E+00 0.  1.
         21   -1    0    0  501  502 -0.00000000000E+00 -0.00000000000E+00 -0.47716860085E+03  0.47716860085E+03  0.00000000000E+00 0.  1.
      99926    2    1    2    0    0  0.00000000000E+00 -0.35527136788E-14 -0.36551377065E+03  0.58882343106E+03  0.46164132878E+03 0.  0.
      99925    2    3    3    0    0  0.11498863400E+03  0.16696203806E+02 -0.26259856832E+03  0.38947399881E+03  0.26311753741E+03 0.  0.
         25    1    4    4    0    0  0.65989927104E+02  0.44889615185E+02 -0.11355004792E+03  0.18684450624E+03  0.12509000000E+03 0.  0.
         25    1    4    4    0    0  0.48998706896E+02 -0.28193411379E+02 -0.14904852040E+03  0.20262949257E+03  0.12509000000E+03 0.  0.
         25    1    3    3    0    0 -0.11498863400E+03 -0.16696203806E+02 -0.10291520232E+03  0.19934943225E+03  0.12509000000E+03 0.  0.
<mgrwt>
<rscale>  2 0.46164133E+03</rscale>
<asrwt>0</asrwt>
<pdfrwt beam="1">  1       21 0.16419828E-01 0.46164133E+03</pdfrwt>
<pdfrwt beam="2">  1       21 0.70171853E-01 0.46164133E+03</pdfrwt>
<totfact> 0.56354546E+04</totfact>
</mgrwt>
</event>
<event>
 7    0  0.4685107E-002  0.4499069E+03  0.7546771E-02  0.1027750E+00
         21   -1    0    0  502  501  0.00000000000E+00  0.00000000000E+00  0.95318961539E+02  0.95318961539E+02  0.00000000000E+00 0. -1.
         21   -1    0    0  501  502 -0.00000000000E+00 -0.00000000000E+00 -0.53089180104E+03  0.53089180104E+03  0.00000000000E+00 0. -1.
      99926    2    1    2    0    0 -0.14210854715E-13  0.88817841970E-15 -0.43557283951E+03  0.62621076258E+03  0.44990690221E+03 0.  0.
      99925    2    3    3    0    0  0.91099851672E+02 -0.77808037629E+01 -0.35612631368E+03  0.45208729361E+03  0.26305369388E+03 0.  0.
         25    1    4    4    0    0  0.10439961350E+02  0.12672582948E+02 -0.19031036594E+03  0.22833118630E+03  0.12509000000E+03 0.  0.
         25    1    3    3    0    0 -0.91099851672E+02  0.77808037629E+01 -0.79446525827E+02  0.17412346898E+03  0.12509000000E+03 0.  0.
         25    1    4    4    0    0  0.80659890323E+02 -0.20453386711E+02 -0.16581594774E+03  0.22375610731E+03  0.12509000000E+03 0.  0.
<mgrwt>
<rscale>  2 0.44990690E+03</rscale>
<asrwt>0</asrwt>
<pdfrwt beam="1">  1       21 0.14017495E-01 0.44990690E+03</pdfrwt>
<pdfrwt beam="2">  1       21 0.78072322E-01 0.44990690E+03</pdfrwt>
<totfact> 0.59447742E+04</totfact>
</mgrwt>
</event>
<event>
 7    0  0.4685107E-002  0.4570583E+03  0.7546771E-02  0.1025638E+00
         21   -1    0    0  502  501  0.00000000000E+00  0.00000000000E+00  0.39861133049E+03  0.39861133049E+03  0.00000000000E+00 0. -1.
         21   -1    0    0  501  502 -0.00000000000E+00 -0.00000000000E+00 -0.13101877632E+03  0.13101877632E+03  0.00000000000E+00 0. -1.
      99926    2    1    2    0    0 -0.14210854715E-13  0.35527136788E-14  0.26759255417E+03  0.52963010681E+03  0.45705828402E+03 0.  0.
      99925    2    3    3    0    0  0.10184852845E+03 -0.65038963693E+01  0.22960813094E+03  0.36378153756E+03  0.26306214068E+03 0.  0.
         25    1    4    4    0    0  0.69473880121E+02 -0.37072695929E+02  0.14004689259E+03  0.20362132753E+03  0.12509000000E+03 0.  0.
         25    1    3    3    0    0 -0.10184852845E+03  0.65038963693E+01  0.37984423230E+02  0.16584856925E+03  0.12509000000E+03 0.  0.
         25    1    4    4    0    0  0.32374648327E+02  0.30568799560E+02  0.89561238353E+02  0.16016021003E+03  0.12509000000E+03 0.  0.
<mgrwt>
<rscale>  2 0.45705828E+03</rscale>
<asrwt>0</asrwt>
<pdfrwt beam="1">  1       21 0.58619313E-01 0.45705828E+03</pdfrwt>
<pdfrwt beam="2">  1       21 0.19267467E-01 0.45705828E+03</pdfrwt>
<totfact> 0.62210425E+04</totfact>
</mgrwt>
</event>
<event>
 7    0  0.4685107E-002  0.4556915E+03  0.7546771E-02  0.1026038E+00
         21   -1    0    0  502  501  0.00000000000E+00  0.00000000000E+00  0.75060447741E+02  0.75060447741E+02  0.00000000000E+00 0.  1.
         21   -1    0    0  501  502 -0.00000000000E+00 -0.00000000000E+00 -0.69162517046E+03  0.69162517046E+03  0.00000000000E+00 0.  1.
      99926    2    1    2    0    0  0.71054273576E-14  0.14210854715E-13 -0.61656472272E+03  0.76668561820E+03  0.45569154025E+03 0.  0.
      99925    2    3    3    0    0 -0.49685417309E+02 -0.98820015670E+02 -0.43317020438E+03  0.51866325299E+03  0.26294696774E+03 0.  0.
         25    1    4    4    0    0 -0.57089201469E+02 -0.38166330018E+02 -0.25880387535E+03  0.29553815264E+03  0.12509000000E+03 0.  0.
         25    1    4    4    0    0  0.74037841608E+01 -0.60653685652E+02 -0.17436632903E+03  0.22312510035E+03  0.12509000000E+03 0.  0.
         25    1    3    3    0    0  0.49685417309E+02  0.98820015670E+02 -0.18339451833E+03  0.24802236521E+03  0.12509000000E+03 0.  0.
<mgrwt>
<rscale>  2 0.45569154E+03</rscale>
<asrwt>0</asrwt>
<pdfrwt beam="1">  1       21 0.11038302E-01 0.45569154E+03</pdfrwt>
<pdfrwt beam="2">  1       21 0.10170958E+00 0.45569154E+03</pdfrwt>
<totfact> 0.49150878E+04</totfact>
</mgrwt>
</event>
<event>
 7    0  0.4685107E-002  0.4556912E+03  0.7546771E-02  0.1026038E+00
         21   -1    0    0  502  501  0.00000000000E+00  0.00000000000E+00  0.46947019170E+03  0.46947019170E+03  0.00000000000E+00 0. -1.
         21   -1    0    0  501  502 -0.00000000000E+00 -0.00000000000E+00 -0.11057914978E+03  0.11057914978E+03  0.00000000000E+00 0. -1.
      99926    2    1    2    0    0  0.00000000000E+00  0.00000000000E+00  0.35889104192E+03  0.58004934149E+03  0.45569118775E+03 0.  0.
      99925    2    3    3    0    0  0.28923752204E+02  0.74157032757E+02  0.32929534987E+03  0.42885654392E+03  0.26295752294E+03 0.  0.
         25    1    4    4    0    0  0.26917135571E+02  0.85763409481E+01  0.19866086979E+03  0.23645662414E+03  0.12509000000E+03 0.  0.
         25    1    4    4    0    0  0.20066166323E+01  0.65580691809E+02  0.13063448007E+03  0.19239991978E+03  0.12509000000E+03 0.  0.
         25    1    3    3    0    0 -0.28923752204E+02 -0.74157032757E+02  0.29595692055E+02  0.15119279757E+03  0.12509000000E+03 0.  0.
<mgrwt>
<rscale>  2 0.45569119E+03</rscale>
<asrwt>0</asrwt>
<pdfrwt beam="1">  1       21 0.69039733E-01 0.45569119E+03</pdfrwt>
<pdfrwt beam="2">  1       21 0.16261640E-01 0.45569119E+03</pdfrwt>
<totfact> 0.59597073E+04</totfact>
</mgrwt>
</event>
<event>
 7    0  0.4685107E-002  0.4349255E+03  0.7546771E-02  0.1032315E+00
         21   -1    0    0  502  501  0.00000000000E+00  0.00000000000E+00  0.17464391777E+03  0.17464391777E+03  0.00000000000E+00 0.  1.
         21   -1    0    0  501  502 -0.00000000000E+00 -0.00000000000E+00 -0.27077987576E+03  0.27077987576E+03  0.00000000000E+00 0.  1.
      99926    2    1    2    0    0  0.00000000000E+00  0.00000000000E+00 -0.96135957994E+02  0.44542379353E+03  0.43492554929E+03 0.  0.
      99925    2    3    3    0    0  0.43576379285E+02  0.12795810896E+02  0.21507894468E+02  0.26779998395E+03  0.26304297799E+03 0.  0.
         25    1    3    3    0    0 -0.43576379285E+02 -0.12795810896E+02 -0.11764385246E+03  0.17762380958E+03  0.12509000000E+03 0.  0.
         25    1    4    4    0    0  0.62636871975E+02  0.11026698198E+02  0.85018599600E+01  0.14058718123E+03  0.12509000000E+03 0.  0.
         25    1    4    4    0    0 -0.19060492690E+02  0.17691126981E+01  0.13006034508E+02  0.12721280272E+03  0.12509000000E+03 0.  0.
<mgrwt>
<rscale>  2 0.43492555E+03</rscale>
<asrwt>0</asrwt>
<pdfrwt beam="1">  1       21 0.25682929E-01 0.43492555E+03</pdfrwt>
<pdfrwt beam="2">  1       21 0.39820570E-01 0.43492555E+03</pdfrwt>
<totfact> 0.81537614E+04</totfact>
</mgrwt>
</event>
<event>
 7    0  0.4685107E-002  0.4279031E+03  0.7546771E-02  0.1034524E+00
         21   -1    0    0  502  501  0.00000000000E+00  0.00000000000E+00  0.21606503435E+03  0.21606503435E+03  0.00000000000E+00 0. -1.
         21   -1    0    0  501  502 -0.00000000000E+00 -0.00000000000E+00 -0.21185875474E+03  0.21185875474E+03  0.00000000000E+00 0. -1.
      99926    2    1    2    0    0  0.71054273576E-14  0.88817841970E-15  0.42062796052E+01  0.42792378909E+03  0.42790311577E+03 0.  0.
      99925    2    3    3    0    0 -0.47520663737E+02 -0.41021549011E+01  0.73510463370E+02  0.27717360122E+03  0.26295698475E+03 0.  0.
         25    1    3    3    0    0  0.47520663737E+02  0.41021549011E+01 -0.69304183765E+02  0.15075018787E+03  0.12509000000E+03 0.  0.
         25    1    4    4    0    0  0.49757150460E+01 -0.23768442961E+02  0.15640597033E+02  0.12838159135E+03  0.12509000000E+03 0.  0.
         25    1    4    4    0    0 -0.52496378783E+02  0.19666288060E+02  0.57869866337E+02  0.14879200987E+03  0.12509000000E+03 0.  0.
<mgrwt>
<rscale>  2 0.42790312E+03</rscale>
<asrwt>0</asrwt>
<pdfrwt beam="1">  1       21 0.31774270E-01 0.42790312E+03</pdfrwt>
<pdfrwt beam="2">  1       21 0.31155699E-01 0.42790312E+03</pdfrwt>
<totfact> 0.88147999E+04</totfact>
</mgrwt>
</event>
<event>
 7    0  0.4685107E-002  0.4480186E+03  0.7546771E-02  0.1028315E+00
         21   -1    0    0  502  501  0.00000000000E+00  0.00000000000E+00  0.11276268032E+03  0.11276268032E+03  0.00000000000E+00 0. -1.
         21   -1    0    0  501  502 -0.00000000000E+00 -0.00000000000E+00 -0.44500686716E+03  0.44500686716E+03  0.00000000000E+00 0. -1.
      99926    2    1    2    0    0  0.00000000000E+00  0.00000000000E+00 -0.33224418683E+03  0.55776954748E+03  0.44801860275E+03 0.  0.
      99925    2    3    3    0    0 -0.49510736144E+02  0.26572452008E+02 -0.32293942410E+03  0.42032321283E+03  0.26310515655E+03 0.  0.
         25    1    4    4    0    0 -0.51774092544E+02  0.25926883961E+02 -0.21333157709E+03  0.25398942863E+03  0.12509000000E+03 0.  0.
         25    1    4    4    0    0  0.22633564005E+01  0.64556804657E+00 -0.10960784701E+03  0.16633378420E+03  0.12509000000E+03 0.  0.
         25    1    3    3    0    0  0.49510736144E+02 -0.26572452008E+02 -0.93047627302E+01  0.13744633465E+03  0.12509000000E+03 0.  0.
<mgrwt>
<rscale>  2 0.44801860E+03</rscale>
<asrwt>0</asrwt>
<pdfrwt beam="1">  1       21 0.16582747E-01 0.44801860E+03</pdfrwt>
<pdfrwt beam="2">  1       21 0.65442187E-01 0.44801860E+03</pdfrwt>
<totfact> 0.64864575E+04</totfact>
</mgrwt>
</event>
<event>
 7    0  0.4685107E-002  0.4442311E+03  0.7546771E-02  0.1029456E+00
         21   -1    0    0  502  501  0.00000000000E+00  0.00000000000E+00  0.70910437365E+03  0.70910437365E+03  0.00000000000E+00 0. -1.
         21   -1    0    0  501  502 -0.00000000000E+00 -0.00000000000E+00 -0.69574134758E+02  0.69574134758E+02  0.00000000000E+00 0. -1.
      99926    2    1    2    0    0  0.00000000000E+00  0.17763568394E-14  0.63953023890E+03  0.77867850841E+03  0.44423112565E+03 0.  0.
      99925    2    3    3    0    0  0.95378365108E+02 -0.30849685003E+01  0.34013065639E+03  0.44045643984E+03  0.26307121169E+03 0.  0.
         25    1    4    4    0    0  0.81510106492E+02  0.19545231215E+02  0.16192002674E+03  0.22111426160E+03  0.12509000000E+03 0.  0.
         25    1    3    3    0    0 -0.95378365108E+02  0.30849685003E+01  0.29939958251E+03  0.33822206857E+03  0.12509000000E+03 0.  0.
         25    1    4    4    0    0  0.13868258617E+02 -0.22630199716E+02  0.17821062965E+03  0.21934217824E+03  0.12509000000E+03 0.  0.
<mgrwt>
<rscale>  2 0.44423113E+03</rscale>
<asrwt>0</asrwt>
<pdfrwt beam="1">  1       21 0.10428005E+00 0.44423113E+03</pdfrwt>
<pdfrwt beam="2">  1       21 0.10231491E-01 0.44423113E+03</pdfrwt>
<totfact> 0.53167198E+04</totfact>
</mgrwt>
</event>
<event>
 7    0  0.4685107E-002  0.4302642E+03  0.7546771E-02  0.1033777E+00
         21   -1    0    0  502  501  0.00000000000E+00  0.00000000000E+00  0.13881139264E+04  0.13881139264E+04  0.00000000000E+00 0. -1.
         21   -1    0    0  501  502 -0.00000000000E+00 -0.00000000000E+00 -0.33341516703E+02  0.33341516703E+02  0.00000000000E+00 0. -1.
      99926    2    1    2    0    0  0.14210854715E-13 -0.71054273576E-14  0.13547724097E+04  0.14214554431E+04  0.43026421494E+03 0.  0.
      99925    2    3    3    0    0 -0.74014330374E+02  0.32039567753E+02  0.98930889117E+03  0.10268470974E+04  0.26301753621E+03 0.  0.
         25    1    3    3    0    0  0.74014330374E+02 -0.32039567753E+02  0.36546351856E+03  0.39460834571E+03  0.12509000000E+03 0.  0.
         25    1    4    4    0    0 -0.34281968388E+00  0.34819644822E+02  0.45634102217E+03  0.47445459404E+03  0.12509000000E+03 0.  0.
         25    1    4    4    0    0 -0.73671510690E+02 -0.27800770695E+01  0.53296786900E+03  0.55239250339E+03  0.12509000000E+03 0.  0.
<mgrwt>
<rscale>  2 0.43026421E+03</rscale>
<asrwt>0</asrwt>
<pdfrwt beam="1">  1       21 0.20413436E+00 0.43026421E+03</pdfrwt>
<pdfrwt beam="2">  1       21 0.49031651E-02 0.43026421E+03</pdfrwt>
<totfact> 0.31377570E+04</totfact>
</mgrwt>
</event>
<event>
 7    0  0.4685107E-002  0.4628481E+03  0.7546771E-02  0.1023958E+00
         21   -1    0    0  502  501  0.00000000000E+00  0.00000000000E+00  0.30827516206E+03  0.30827516206E+03  0.00000000000E+00 0. -1.
         21   -1    0    0  501  502 -0.00000000000E+00 -0.00000000000E+00 -0.17373143644E+03  0.17373143644E+03  0.00000000000E+00 0. -1.
      99926    2    1    2    0    0  0.71054273576E-14  0.00000000000E+00  0.13454372562E+03  0.48200659850E+03  0.46284808187E+03 0.  0.
      99925    2    3    3    0    0  0.41899700233E+02  0.88080741015E+02  0.10562506744E+02  0.28067937095E+03  0.26297441114E+03 0.  0.
         25    1    4    4    0    0  0.55613084907E+02  0.39985734004E+02 -0.15530400965E+02  0.14345861979E+03  0.12509000000E+03 0.  0.
         25    1    3    3    0    0 -0.41899700233E+02 -0.88080741015E+02  0.12398121887E+03  0.20132722754E+03  0.12509000000E+03 0.  0.
         25    1    4    4    0    0 -0.13713384674E+02  0.48095007011E+02  0.26092907709E+02  0.13722075117E+03  0.12509000000E+03 0.  0.
<mgrwt>
<rscale>  2 0.46284808E+03</rscale>
<asrwt>0</asrwt>
<pdfrwt beam="1">  1       21 0.45334583E-01 0.46284808E+03</pdfrwt>
<pdfrwt beam="2">  1       21 0.25548740E-01 0.46284808E+03</pdfrwt>
<totfact> 0.62565507E+04</totfact>
</mgrwt>
</event>
<event>
 7    0  0.4685107E-002  0.4118001E+03  0.7546771E-02  0.1039769E+00
         21   -1    0    0  502  501  0.00000000000E+00  0.00000000000E+00  0.24498130464E+03  0.24498130464E+03  0.00000000000E+00 0.  1.
         21   -1    0    0  501  502 -0.00000000000E+00 -0.00000000000E+00 -0.17305330049E+03  0.17305330049E+03  0.00000000000E+00 0.  1.
      99926    2    1    2    0    0  0.00000000000E+00  0.00000000000E+00  0.71928004146E+02  0.41803460513E+03  0.41180006472E+03 0.  0.
      99925    2    3    3    0    0 -0.52434219219E+02  0.32143942986E+02  0.26020688705E+02  0.27127776499E+03  0.26292958966E+03 0.  0.
         25    1    4    4    0    0 -0.65515350800E+02  0.88311225727E+01  0.44264366351E+01  0.14155335163E+03  0.12509000000E+03 0.  0.
         25    1    3    3    0    0  0.52434219219E+02 -0.32143942986E+02  0.45907315441E+02  0.14675684014E+03  0.12509000000E+03 0.  0.
         25    1    4    4    0    0  0.13081131581E+02  0.23312820414E+02  0.21594252070E+02  0.12972441336E+03  0.12509000000E+03 0.  0.
<mgrwt>
<rscale>  2 0.41180006E+03</rscale>
<asrwt>0</asrwt>
<pdfrwt beam="1">  1       21 0.36026662E-01 0.41180006E+03</pdfrwt>
<pdfrwt beam="2">  1       21 0.25449015E-01 0.41180006E+03</pdfrwt>
<totfact> 0.10230073E+05</totfact>
</mgrwt>
</event>
<event>
 7    0  0.4685107E-002  0.4555844E+03  0.7546771E-02  0.1026070E+00
         21   -1    0    0  502  501  0.00000000000E+00  0.00000000000E+00  0.45555974852E+03  0.45555974852E+03  0.00000000000E+00 0. -1.
         21   -1    0    0  501  502 -0.00000000000E+00 -0.00000000000E+00 -0.11390226849E+03  0.11390226849E+03  0.00000000000E+00 0. -1.
      99926    2    1    2    0    0  0.35527136788E-14 -0.26645352591E-14  0.34165748003E+03  0.56946201702E+03  0.45558441058E+03 0.  0.
      99925    2    3    3    0    0 -0.24028223724E+02  0.24146698929E+01  0.75819593389E+02  0.27467314979E+03  0.26289454598E+03 0.  0.
         25    1    4    4    0    0 -0.37390107486E+02  0.22406799626E+02  0.62890658226E+02  0.14663842538E+03  0.12509000000E+03 0.  0.
         25    1    3    3    0    0  0.24028223724E+02 -0.24146698929E+01  0.26583788664E+03  0.29478886723E+03  0.12509000000E+03 0.  0.
         25    1    4    4    0    0  0.13361883762E+02 -0.19992129733E+02  0.12928935163E+02  0.12803472440E+03  0.12509000000E+03 0.  0.
<mgrwt>
<rscale>  2 0.45558441E+03</rscale>
<asrwt>0</asrwt>
<pdfrwt beam="1">  1       21 0.66994080E-01 0.45558441E+03</pdfrwt>
<pdfrwt beam="2">  1       21 0.16750334E-01 0.45558441E+03</pdfrwt>
<totfact> 0.60319222E+04</totfact>
</mgrwt>
</event>
<event>
 7    0  0.4685107E-002  0.4912843E+03  0.7546771E-02  0.1016079E+00
         21   -1    0    0  502  501  0.00000000000E+00  0.00000000000E+00  0.38820897810E+02  0.38820897810E+02  0.00000000000E+00 0.  1.
         21   -1    0    0  501  502 -0.00000000000E+00 -0.00000000000E+00 -0.15543192838E+04  0.15543192838E+04  0.00000000000E+00 0.  1.
      99926    2    1    2    0    0  0.14210854715E-13  0.00000000000E+00 -0.15154983860E+04  0.15931401816E+04  0.49128431719E+03 0.  0.
      99925    2    3    3    0    0 -0.11300201254E+03 -0.32277508402E+02 -0.65255238849E+03  0.71329099278E+03  0.26296031690E+03 0.  0.
         25    1    4    4    0    0 -0.47381383564E+02 -0.21365884090E+02 -0.41661753696E+03  0.43808580976E+03  0.12509000000E+03 0.  0.
         25    1    4    4    0    0 -0.65620628979E+02 -0.10911624312E+02 -0.23593485154E+03  0.27520518302E+03  0.12509000000E+03 0.  0.
         25    1    3    3    0    0  0.11300201254E+03  0.32277508402E+02 -0.86294599748E+03  0.87984918881E+03  0.12509000000E+03 0.  0.
<mgrwt>
<rscale>  2 0.49128432E+03</rscale>
<asrwt>0</asrwt>
<pdfrwt beam="1">  1       21 0.57089549E-02 0.49128432E+03</pdfrwt>
<pdfrwt beam="2">  1       21 0.22857639E+00 0.49128432E+03</pdfrwt>
<totfact> 0.16441822E+04</totfact>
</mgrwt>
</event>
<event>
 7    0  0.4685107E-002  0.4526233E+03  0.7546771E-02  0.1026943E+00
         21   -1    0    0  502  501  0.00000000000E+00  0.00000000000E+00  0.11224195275E+03  0.11224195275E+03  0.00000000000E+00 0. -1.
         21   -1    0    0  501  502 -0.00000000000E+00 -0.00000000000E+00 -0.45630855392E+03  0.45630855392E+03  0.00000000000E+00 0. -1.
      99926    2    1    2    0    0  0.00000000000E+00  0.00000000000E+00 -0.34406660116E+03  0.56855050667E+03  0.45262330099E+03 0.  0.
      99925    2    3    3    0    0 -0.83277947703E+02  0.71491442025E+01 -0.30864700156E+03  0.41399183505E+03  0.26294474911E+03 0.  0.
         25    1    4    4    0    0 -0.24233583727E+02  0.13487049267E+00 -0.20350276694E+03  0.24010033116E+03  0.12509000000E+03 0.  0.
         25    1    3    3    0    0  0.83277947703E+02 -0.71491442025E+01 -0.35419599604E+02  0.15455867162E+03  0.12509000000E+03 0.  0.
         25    1    4    4    0    0 -0.59044363976E+02  0.70142737098E+01 -0.10514423462E+03  0.17389150389E+03  0.12509000000E+03 0.  0.
<mgrwt>
<rscale>  2 0.45262330E+03</rscale>
<asrwt>0</asrwt>
<pdfrwt beam="1">  1       21 0.16506170E-01 0.45262330E+03</pdfrwt>
<pdfrwt beam="2">  1       21 0.67104199E-01 0.45262330E+03</pdfrwt>
<totfact> 0.61810640E+04</totfact>
</mgrwt>
</event>
<event>
 7    0  0.4685107E-002  0.4502963E+03  0.7546771E-02  0.1027634E+00
         21   -1    0    0  502  501  0.00000000000E+00  0.00000000000E+00  0.19166615719E+02  0.19166615719E+02  0.00000000000E+00 0.  1.
         21   -1    0    0  501  502 -0.00000000000E+00 -0.00000000000E+00 -0.26447912693E+04  0.26447912693E+04  0.00000000000E+00 0.  1.
      99926    2    1    2    0    0  0.00000000000E+00  0.00000000000E+00 -0.26256246536E+04  0.26639578850E+04  0.45029633760E+03 0.  0.
      99925    2    3    3    0    0  0.34864295144E+02  0.37844445672E+02 -0.10912703760E+04  0.11236532793E+04  0.26282682020E+03 0.  0.
         25    1    4    4    0    0  0.28807901076E+02 -0.46427089548E+01 -0.66678261095E+03  0.67904197829E+03  0.12509000000E+03 0.  0.
         25    1    4    4    0    0  0.60563940679E+01  0.42487154627E+02 -0.42448776504E+03  0.44461130101E+03  0.12509000000E+03 0.  0.
         25    1    3    3    0    0 -0.34864295144E+02 -0.37844445672E+02 -0.15343542776E+04  0.15403046057E+04  0.12509000000E+03 0.  0.
<mgrwt>
<rscale>  2 0.45029634E+03</rscale>
<asrwt>0</asrwt>
<pdfrwt beam="1">  1       21 0.28186200E-02 0.45029634E+03</pdfrwt>
<pdfrwt beam="2">  1       21 0.38893988E+00 0.45029634E+03</pdfrwt>
<totfact> 0.58049939E+03</totfact>
</mgrwt>
</event>
<event>
 7    0  0.4685107E-002  0.4552326E+03  0.7546771E-02  0.1026173E+00
         21   -1    0    0  502  501  0.00000000000E+00  0.00000000000E+00  0.53462275954E+02  0.53462275954E+02  0.00000000000E+00 0.  1.
         21   -1    0    0  501  502 -0.00000000000E+00 -0.00000000000E+00 -0.96907935864E+03  0.96907935864E+03  0.00000000000E+00 0.  1.
      99926    2    1    2    0    0 -0.35527136788E-14  0.00000000000E+00 -0.91561708269E+03  0.10225416346E+04  0.45523263544E+03 0.  0.
      99925    2    3    3    0    0 -0.17234983398E+02  0.11071966061E+03 -0.61446128222E+03  0.67772543406E+03  0.26304602016E+03 0.  0.
         25    1    4    4    0    0 -0.45416677326E+02  0.56749238603E+02 -0.27194269224E+03  0.30803163250E+03  0.12509000000E+03 0.  0.
         25    1    4    4    0    0  0.28181693928E+02  0.53970422005E+02 -0.34251858999E+03  0.36969380156E+03  0.12509000000E+03 0.  0.
         25    1    3    3    0    0  0.17234983398E+02 -0.11071966061E+03 -0.30115580046E+03  0.34481620053E+03  0.12509000000E+03 0.  0.
<mgrwt>
<rscale>  2 0.45523264E+03</rscale>
<asrwt>0</asrwt>
<pdfrwt beam="1">  1       21 0.78620995E-02 0.45523264E+03</pdfrwt>
<pdfrwt beam="2">  1       21 0.14251167E+00 0.45523264E+03</pdfrwt>
<totfact> 0.38231833E+04</totfact>
</mgrwt>
</event>
<event>
 7    0  0.4685107E-002  0.4499738E+03  0.7546771E-02  0.1027730E+00
         21   -1    0    0  502  501  0.00000000000E+00  0.00000000000E+00  0.22204223248E+03  0.22204223248E+03  0.00000000000E+00 0. -1.
         21   -1    0    0  501  502 -0.00000000000E+00 -0.00000000000E+00 -0.22797058936E+03  0.22797058936E+03  0.00000000000E+00 0. -1.
      99926    2    1    2    0    0  0.00000000000E+00  0.00000000000E+00 -0.59283568830E+01  0.45001282183E+03  0.44997377079E+03 0.  0.
      99925    2    3    3    0    0 -0.27047927369E+02 -0.84680877295E+02 -0.65828925274E+02  0.28527658554E+03  0.26295787020E+03 0.  0.
         25    1    3    3    0    0  0.27047927369E+02  0.84680877295E+02  0.59900568391E+02  0.16473623629E+03  0.12509000000E+03 0.  0.
         25    1    4    4    0    0 -0.20669253852E+02 -0.72285276510E+02 -0.63940505196E+01  0.14608480837E+03  0.12509000000E+03 0.  0.
         25    1    4    4    0    0 -0.63786735168E+01 -0.12395600786E+02 -0.59434874755E+02  0.13919177717E+03  0.12509000000E+03 0.  0.
<mgrwt>
<rscale>  2 0.44997377E+03</rscale>
<asrwt>0</asrwt>
<pdfrwt beam="1">  1       21 0.32653270E-01 0.44997377E+03</pdfrwt>
<pdfrwt beam="2">  1       21 0.33525087E-01 0.44997377E+03</pdfrwt>
<totfact> 0.71747172E+04</totfact>
</mgrwt>
</event>
<event>
 7    0  0.5300412E-002  0.4075510E+03  0.7546771E-02  0.1041196E+00
         21   -1    0    0  502  501  0.00000000000E+00  0.00000000000E+00  0.37911897433E+03  0.37911897433E+03  0.00000000000E+00 0. -1.
         21   -1    0    0  501  502 -0.00000000000E+00 -0.00000000000E+00 -0.10952880927E+03  0.10952880927E+03  0.00000000000E+00 0. -1.
      99926    2    1    2    0    0  0.26645352591E-14  0.00000000000E+00  0.26959016506E+03  0.48864778360E+03  0.40755097757E+03 0.  0.
      99925    2    3    3    0    0 -0.72113521946E+01 -0.83606246246E+01  0.24722492963E+03  0.36109538065E+03  0.26295970118E+03 0.  0.
         25    1    4    4    0    0  0.25453886860E+02  0.13280204921E+02  0.15277384410E+03  0.19952849355E+03  0.12509000000E+03 0.  0.
         25    1    3    3    0    0  0.72113521946E+01  0.83606246246E+01  0.22365235428E+02  0.12755240296E+03  0.12509000000E+03 0.  0.
         25    1    4    4    0    0 -0.32665239054E+02 -0.21640829546E+02  0.94451085539E+02  0.16156688709E+03  0.12509000000E+03 0.  0.
<mgrwt>
<rscale>  2 0.40755098E+03</rscale>
<asrwt>0</asrwt>
<pdfrwt beam="1">  1       21 0.55752790E-01 0.40755098E+03</pdfrwt>
<pdfrwt beam="2">  1       21 0.16107178E-01 0.40755098E+03</pdfrwt>
<totfact> 0.98118724E+04</totfact>
</mgrwt>
</event>
<event>
 7    0  0.4685107E-002  0.4491953E+03  0.7546771E-02  0.1027962E+00
         21   -1    0    0  502  501  0.00000000000E+00  0.00000000000E+00  0.13478211337E+03  0.13478211337E+03  0.00000000000E+00 0. -1.
         21   -1    0    0  501  502 -0.00000000000E+00 -0.00000000000E+00 -0.37426400611E+03  0.37426400611E+03  0.00000000000E+00 0. -1.
      99926    2    1    2    0    0  0.00000000000E+00  0.00000000000E+00 -0.23948189274E+03  0.50904611947E+03  0.44919525243E+03 0.  0.
      99925    2    3    3    0    0 -0.59141882829E+02  0.48792251251E+02 -0.65889507635E+02  0.28175716164E+03  0.26299662514E+03 0.  0.
         25    1    3    3    0    0  0.59141882829E+02 -0.48792251251E+02 -0.17359238510E+03  0.22728895783E+03  0.12509000000E+03 0.  0.
         25    1    4    4    0    0  0.11257512955E+02  0.19032944294E+02 -0.37418789925E+02  0.13242604920E+03  0.12509000000E+03 0.  0.
         25    1    4    4    0    0 -0.70399395783E+02  0.29759306957E+02 -0.28470717710E+02  0.14933111245E+03  0.12509000000E+03 0.  0.
<mgrwt>
<rscale>  2 0.44919525E+03</rscale>
<asrwt>0</asrwt>
<pdfrwt beam="1">  1       21 0.19820900E-01 0.44919525E+03</pdfrwt>
<pdfrwt beam="2">  1       21 0.55038823E-01 0.44919525E+03</pdfrwt>
<totfact> 0.67705190E+04</totfact>
</mgrwt>
</event>
<event>
 7    0  0.4685107E-002  0.4548097E+03  0.7546771E-02  0.1026297E+00
         21   -1    0    0  502  501  0.00000000000E+00  0.00000000000E+00  0.11668527315E+03  0.11668527315E+03  0.00000000000E+00 0. -1.
         21   -1    0    0  501  502 -0.00000000000E+00 -0.00000000000E+00 -0.44318327338E+03  0.44318327338E+03  0.00000000000E+00 0. -1.
      99926    2    1    2    0    0 -0.17763568394E-14  0.00000000000E+00 -0.32649800023E+03  0.55986854653E+03  0.45480968024E+03 0.  0.
      99925    2    3    3    0    0  0.45148938307E+01  0.39318265652E+02 -0.33589376905E+03  0.42833110375E+03  0.26282427604E+03 0.  0.
         25    1    3    3    0    0 -0.45148938307E+01 -0.39318265652E+02  0.93957688183E+01  0.13153744278E+03  0.12509000000E+03 0.  0.
         25    1    4    4    0    0  0.17680565632E+02 -0.95714173326E+01 -0.20046460508E+03  0.23714506198E+03  0.12509000000E+03 0.  0.
         25    1    4    4    0    0 -0.13165671801E+02  0.48889682984E+02 -0.13542916397E+03  0.19118604177E+03  0.12509000000E+03 0.  0.
<mgrwt>
<rscale>  2 0.45480968E+03</rscale>
<asrwt>0</asrwt>
<pdfrwt beam="1">  1       21 0.17159599E-01 0.45480968E+03</pdfrwt>
<pdfrwt beam="2">  1       21 0.65174010E-01 0.45480968E+03</pdfrwt>
<totfact> 0.61311310E+04</totfact>
</mgrwt>
</event>
<event>
 7    0  0.4685107E-002  0.4639224E+03  0.7546771E-02  0.1023650E+00
         21   -1    0    0  502  501  0.00000000000E+00  0.00000000000E+00  0.17256300044E+02  0.17256300044E+02  0.00000000000E+00 0. -1.
         21   -1    0    0  501  502 -0.00000000000E+00 -0.00000000000E+00 -0.31180493940E+04  0.31180493940E+04  0.00000000000E+00 0. -1.
      99926    2    1    2    0    0  0.00000000000E+00  0.17763568394E-14 -0.31007930940E+04  0.31353056940E+04  0.46392238961E+03 0.  0.
      99925    2    3    3    0    0 -0.10235679288E+03 -0.12705985026E+02 -0.15244423851E+04  0.15506393504E+04  0.26442287075E+03 0.  0.
         25    1    3    3    0    0  0.10235679288E+03  0.12705985026E+02 -0.15763507089E+04  0.15846663436E+04  0.12509000000E+03 0.  0.
         25    1    4    4    0    0 -0.86783145006E+02  0.15590816647E+02 -0.90762892289E+03  0.92044128416E+03  0.12509000000E+03 0.  0.
         25    1    4    4    0    0 -0.15573647875E+02 -0.28296801673E+02 -0.61681346221E+03  0.63019806629E+03  0.12509000000E+03 0.  0.
<mgrwt>
<rscale>  2 0.46392239E+03</rscale>
<asrwt>0</asrwt>
<pdfrwt beam="1">  1       21 0.25376924E-02 0.46392239E+03</pdfrwt>
<pdfrwt beam="2">  1       21 0.45853645E+00 0.46392239E+03</pdfrwt>
<totfact> 0.23918689E+03</totfact>
</mgrwt>
</event>
<event>
 7    0  0.4685107E-002  0.4382710E+03  0.7546771E-02  0.1031279E+00
         21   -1    0    0  502  501  0.00000000000E+00  0.00000000000E+00  0.14863725717E+04  0.14863725717E+04  0.00000000000E+00 0.  1.
         21   -1    0    0  501  502 -0.00000000000E+00 -0.00000000000E+00 -0.32307093778E+02  0.32307093778E+02  0.00000000000E+00 0.  1.
      99926    2    1    2    0    0  0.00000000000E+00  0.00000000000E+00  0.14540654779E+04  0.15186796655E+04  0.43827104884E+03 0.  0.
      99925    2    3    3    0    0 -0.68509216213E+01 -0.86898566130E+02  0.78608180388E+03  0.83351691634E+03  0.26311129111E+03 0.  0.
         25    1    3    3    0    0  0.68509216213E+01  0.86898566130E+02  0.66798367405E+03  0.68516274915E+03  0.12509000000E+03 0.  0.
         25    1    4    4    0    0  0.40235272195E+01 -0.71359365184E+02  0.32720453403E+03  0.35751736037E+03  0.12509000000E+03 0.  0.
         25    1    4    4    0    0 -0.10874448841E+02 -0.15539200946E+02  0.45887726985E+03  0.47599955597E+03  0.12509000000E+03 0.  0.
<mgrwt>
<rscale>  2 0.43827105E+03</rscale>
<asrwt>0</asrwt>
<pdfrwt beam="1">  1       21 0.21858416E+00 0.43827105E+03</pdfrwt>
<pdfrwt beam="2">  1       21 0.47510442E-02 0.43827105E+03</pdfrwt>
<totfact> 0.26619507E+04</totfact>
</mgrwt>
</event>
<event>
 7    0  0.4685107E-002  0.4425303E+03  0.7546771E-02  0.1029973E+00
         21   -1    0    0  502  501  0.00000000000E+00  0.00000000000E+00  0.14885911785E+03  0.14885911785E+03  0.00000000000E+00 0.  1.
         21   -1    0    0  501  502 -0.00000000000E+00 -0.00000000000E+00 -0.32888998519E+03  0.32888998519E+03  0.00000000000E+00 0.  1.
      99926    2    1    2    0    0  0.35527136788E-14  0.14210854715E-13 -0.18003086735E+03  0.47774910304E+03  0.44253032919E+03 0.  0.
      99925    2    3    3    0    0 -0.11561814404E+02 -0.76362606774E+02 -0.18485412800E+03  0.33065833103E+03  0.26305695196E+03 0.  0.
         25    1    4    4    0    0  0.15167682466E+02 -0.39981013832E+02 -0.13412795163E+03  0.18832513260E+03  0.12509000000E+03 0.  0.
         25    1    3    3    0    0  0.11561814404E+02  0.76362606774E+02  0.48232606569E+01  0.14709077200E+03  0.12509000000E+03 0.  0.
         25    1    4    4    0    0 -0.26729496871E+02 -0.36381592941E+02 -0.50726176371E+02  0.14233319844E+03  0.12509000000E+03 0.  0.
<mgrwt>
<rscale>  2 0.44253033E+03</rscale>
<asrwt>0</asrwt>
<pdfrwt beam="1">  1       21 0.21891047E-01 0.44253033E+03</pdfrwt>
<pdfrwt beam="2">  1       21 0.48366173E-01 0.44253033E+03</pdfrwt>
<totfact> 0.73914371E+04</totfact>
</mgrwt>
</event>
<event>
 7    0  0.4685107E-002  0.4645853E+03  0.7546771E-02  0.1023460E+00
         21   -1    0    0  502  501  0.00000000000E+00  0.00000000000E+00  0.42933673683E+03  0.42933673683E+03  0.00000000000E+00 0. -1.
         21   -1    0    0  501  502 -0.00000000000E+00 -0.00000000000E+00 -0.12568195633E+03  0.12568195633E+03  0.00000000000E+00 0. -1.
      99926    2    1    2    0    0 -0.71054273576E-14  0.14210854715E-13  0.30365478050E+03  0.55501869316E+03  0.46458532481E+03 0.  0.
      99925    2    3    3    0    0  0.51843105740E+02  0.82587802564E+02  0.27710042371E+03  0.39420484204E+03  0.26287708140E+03 0.  0.
         25    1    3    3    0    0 -0.51843105740E+02 -0.82587802564E+02  0.26554356790E+02  0.16081385111E+03  0.12509000000E+03 0.  0.
         25    1    4    4    0    0  0.38128899150E+01  0.66641969950E+01  0.14134328826E+03  0.18890310449E+03  0.12509000000E+03 0.  0.
         25    1    4    4    0    0  0.48030215825E+02  0.75923605569E+02  0.13575713545E+03  0.20530173755E+03  0.12509000000E+03 0.  0.
<mgrwt>
<rscale>  2 0.46458532E+03</rscale>
<asrwt>0</asrwt>
<pdfrwt beam="1">  1       21 0.63137755E-01 0.46458532E+03</pdfrwt>
<pdfrwt beam="2">  1       21 0.18482641E-01 0.46458532E+03</pdfrwt>
<totfact> 0.57082747E+04</totfact>
</mgrwt>
</event>
<event>
 7    0  0.4685107E-002  0.4579922E+03  0.7546771E-02  0.1025365E+00
         21   -1    0    0  502  501  0.00000000000E+00  0.00000000000E+00  0.10188261429E+03  0.10188261429E+03  0.00000000000E+00 0.  1.
         21   -1    0    0  501  502 -0.00000000000E+00 -0.00000000000E+00 -0.51470236533E+03  0.51470236533E+03  0.00000000000E+00 0.  1.
      99926    2    1    2    0    0 -0.14210854715E-13  0.00000000000E+00 -0.41281975104E+03  0.61658497962E+03  0.45799223819E+03 0.  0.
      99925    2    3    3    0    0  0.95240436811E+02 -0.38592026309E+02 -0.18721768023E+03  0.33890911147E+03  0.26315174472E+03 0.  0.
         25    1    4    4    0    0  0.48854402109E+02  0.21442710162E+02 -0.83620384421E+02  0.15964466548E+03  0.12509000000E+03 0.  0.
         25    1    4    4    0    0  0.46386034701E+02 -0.60034736470E+02 -0.10359729581E+03  0.17926444599E+03  0.12509000000E+03 0.  0.
         25    1    3    3    0    0 -0.95240436811E+02  0.38592026309E+02 -0.22560207081E+03  0.27767586815E+03  0.12509000000E+03 0.  0.
<mgrwt>
<rscale>  2 0.45799224E+03</rscale>
<asrwt>0</asrwt>
<pdfrwt beam="1">  1       21 0.14982737E-01 0.45799224E+03</pdfrwt>
<pdfrwt beam="2">  1       21 0.75691524E-01 0.45799224E+03</pdfrwt>
<totfact> 0.56325963E+04</totfact>
</mgrwt>
</event>
<event>
 7    0  0.4685107E-002  0.4554425E+03  0.7546771E-02  0.1026111E+00
         21   -1    0    0  502  501  0.00000000000E+00  0.00000000000E+00  0.19320887622E+03  0.19320887622E+03  0.00000000000E+00 0.  1.
         21   -1    0    0  501  502 -0.00000000000E+00 -0.00000000000E+00 -0.26839851432E+03  0.26839851432E+03  0.00000000000E+00 0.  1.
      99926    2    1    2    0    0  0.00000000000E+00  0.00000000000E+00 -0.75189638105E+02  0.46160739054E+03  0.45544253350E+03 0.  0.
      99925    2    3    3    0    0 -0.48528122820E+02  0.67507301812E+02 -0.12569559565E+03  0.30314422653E+03  0.26303008347E+03 0.  0.
         25    1    4    4    0    0 -0.42574956985E+02  0.61845653713E+02 -0.94946784250E+02  0.17406869846E+03  0.12509000000E+03 0.  0.
         25    1    3    3    0    0  0.48528122820E+02 -0.67507301812E+02  0.50505957541E+02  0.15846316401E+03  0.12509000000E+03 0.  0.
         25    1    4    4    0    0 -0.59531658341E+01  0.56616480991E+01 -0.30748811397E+02  0.12907552806E+03  0.12509000000E+03 0.  0.
<mgrwt>
<rscale>  2 0.45544253E+03</rscale>
<asrwt>0</asrwt>
<pdfrwt beam="1">  1       21 0.28413070E-01 0.45544253E+03</pdfrwt>
<pdfrwt beam="2">  1       21 0.39470370E-01 0.45544253E+03</pdfrwt>
<totfact> 0.67823748E+04</totfact>
</mgrwt>
</event>
<event>
 7    0  0.4685107E-002  0.4579272E+03  0.7546771E-02  0.1025384E+00
         21   -1    0    0  502  501  0.00000000000E+00  0.00000000000E+00  0.40325331723E+02  0.40325331723E+02  0.00000000000E+00 0.  1.
         21   -1    0    0  501  502 -0.00000000000E+00 -0.00000000000E+00 -0.13000345004E+04  0.13000345004E+04  0.00000000000E+00 0.  1.
      99926    2    1    2    0    0  0.35527136788E-14  0.00000000000E+00 -0.12597091687E+04  0.13403598321E+04  0.45792716661E+03 0.  0.
      99925    2    3    3    0    0  0.26520050300E+02  0.66439384694E+02 -0.10575240768E+04  0.10920780882E+04  0.26298264720E+03 0.  0.
         25    1    3    3    0    0 -0.26520050300E+02 -0.66439384694E+02 -0.20218509188E+03  0.24828174396E+03  0.12509000000E+03 0.  0.
         25    1    4    4    0    0  0.32932530982E+02  0.12697914027E+02 -0.40037656285E+03  0.42094499498E+03  0.12509000000E+03 0.  0.
         25    1    4    4    0    0 -0.64124806825E+01  0.53741470667E+02 -0.65714751395E+03  0.67113309319E+03  0.12509000000E+03 0.  0.
<mgrwt>
<rscale>  2 0.45792717E+03</rscale>
<asrwt>0</asrwt>
<pdfrwt beam="1">  1       21 0.59301960E-02 0.45792717E+03</pdfrwt>
<pdfrwt beam="2">  1       21 0.19118154E+00 0.45792717E+03</pdfrwt>
<totfact> 0.27337299E+04</totfact>
</mgrwt>
</event>
<event>
 7    0  0.4685107E-002  0.4585095E+03  0.7546771E-02  0.1025214E+00
         21   -1    0    0  502  501  0.00000000000E+00  0.00000000000E+00  0.13984768339E+03  0.13984768339E+03  0.00000000000E+00 0.  1.
         21   -1    0    0  501  502 -0.00000000000E+00 -0.00000000000E+00 -0.37582127036E+03  0.37582127036E+03  0.00000000000E+00 0.  1.
      99926    2    1    2    0    0  0.71054273576E-14  0.71054273576E-14 -0.23597358697E+03  0.51566895375E+03  0.45850947222E+03 0.  0.
      99925    2    3    3    0    0  0.55058152049E+02  0.53920330627E+02 -0.24607551092E+03  0.36839927211E+03  0.26310846519E+03 0.  0.
         25    1    4    4    0    0  0.68463485191E+02  0.35206053303E+02 -0.13657654924E+03  0.20056763671E+03  0.12509000000E+03 0.  0.
         25    1    3    3    0    0 -0.55058152049E+02 -0.53920330627E+02  0.10101923947E+02  0.14726968164E+03  0.12509000000E+03 0.  0.
         25    1    4    4    0    0 -0.13405333142E+02  0.18714277324E+02 -0.10949896168E+03  0.16783163540E+03  0.12509000000E+03 0.  0.
<mgrwt>
<rscale>  2 0.45850947E+03</rscale>
<asrwt>0</asrwt>
<pdfrwt beam="1">  1       21 0.20565836E-01 0.45850947E+03</pdfrwt>
<pdfrwt beam="2">  1       21 0.55267833E-01 0.45850947E+03</pdfrwt>
<totfact> 0.62426580E+04</totfact>
</mgrwt>
</event>
<event>
 7    0  0.4685107E-002  0.4585779E+03  0.7546771E-02  0.1025194E+00
         21   -1    0    0  502  501  0.00000000000E+00  0.00000000000E+00  0.55554719481E+02  0.55554719481E+02  0.00000000000E+00 0. -1.
         21   -1    0    0  501  502 -0.00000000000E+00 -0.00000000000E+00 -0.94633589151E+03  0.94633589151E+03  0.00000000000E+00 0. -1.
      99926    2    1    2    0    0  0.00000000000E+00  0.53290705182E-14 -0.89078117203E+03  0.10018906110E+04  0.45857791045E+03 0.  0.
      99925    2    3    3    0    0 -0.59518696910E+02  0.11221158613E+02 -0.77624306086E+03  0.82179375735E+03  0.26291310427E+03 0.  0.
         25    1    4    4    0    0 -0.47111100099E+02 -0.30923342789E+02 -0.38963451584E+03  0.41308385700E+03  0.12509000000E+03 0.  0.
         25    1    3    3    0    0  0.59518696910E+02 -0.11221158613E+02 -0.11453811117E+03  0.18009685365E+03  0.12509000000E+03 0.  0.
         25    1    4    4    0    0 -0.12407596812E+02  0.42144501402E+02 -0.38660854503E+03  0.40870990035E+03  0.12509000000E+03 0.  0.
<mgrwt>
<rscale>  2 0.45857791E+03</rscale>
<asrwt>0</asrwt>
<pdfrwt beam="1">  1       21 0.81698119E-02 0.45857791E+03</pdfrwt>
<pdfrwt beam="2">  1       21 0.13916704E+00 0.45857791E+03</pdfrwt>
<totfact> 0.38019825E+04</totfact>
</mgrwt>
</event>
<event>
 7    0  0.4685107E-002  0.4542943E+03  0.7546771E-02  0.1026449E+00
         21   -1    0    0  502  501  0.00000000000E+00  0.00000000000E+00  0.11383410493E+03  0.11383410493E+03  0.00000000000E+00 0. -1.
         21   -1    0    0  501  502 -0.00000000000E+00 -0.00000000000E+00 -0.45325450646E+03  0.45325450646E+03  0.00000000000E+00 0. -1.
      99926    2    1    2    0    0  0.71054273576E-14  0.00000000000E+00 -0.33942040153E+03  0.56708861138E+03  0.45429427047E+03 0.  0.
      99925    2    3    3    0    0  0.47747596704E+02 -0.10037491551E+03 -0.19210432571E+03  0.34414357119E+03  0.26301286846E+03 0.  0.
         25    1    4    4    0    0  0.46604398800E+02 -0.20951779478E+02 -0.70237081516E+02  0.15228822269E+03  0.12509000000E+03 0.  0.
         25    1    3    3    0    0 -0.47747596704E+02  0.10037491551E+03 -0.14731607582E+03  0.22294504020E+03  0.12509000000E+03 0.  0.
         25    1    4    4    0    0  0.11431979040E+01 -0.79423136027E+02 -0.12186724420E+03  0.19185534849E+03  0.12509000000E+03 0.  0.
<mgrwt>
<rscale>  2 0.45429427E+03</rscale>
<asrwt>0</asrwt>
<pdfrwt beam="1">  1       21 0.16740310E-01 0.45429427E+03</pdfrwt>
<pdfrwt beam="2">  1       21 0.66655074E-01 0.45429427E+03</pdfrwt>
<totfact> 0.61091458E+04</totfact>
</mgrwt>
</event>
<event>
 7    0  0.4685107E-002  0.4537744E+03  0.7546771E-02  0.1026602E+00
         21   -1    0    0  502  501  0.00000000000E+00  0.00000000000E+00  0.49350085110E+02  0.49350085110E+02  0.00000000000E+00 0.  1.
         21   -1    0    0  501  502 -0.00000000000E+00 -0.00000000000E+00 -0.10431149059E+04  0.10431149059E+04  0.00000000000E+00 0.  1.
      99926    2    1    2    0    0  0.00000000000E+00  0.00000000000E+00 -0.99376482083E+03  0.10924649910E+04  0.45377443466E+03 0.  0.
      99925    2    3    3    0    0 -0.98397706561E+02  0.35707721543E+02 -0.72238863689E+03  0.77584267449E+03  0.26292463334E+03 0.  0.
         25    1    4    4    0    0 -0.28154318898E+02  0.15473677403E+02 -0.43845698438E+03  0.45708219787E+03  0.12509000000E+03 0.  0.
         25    1    4    4    0    0 -0.70243387663E+02  0.20234044141E+02 -0.28393165252E+03  0.31876047662E+03  0.12509000000E+03 0.  0.
         25    1    3    3    0    0  0.98397706561E+02 -0.35707721543E+02 -0.27137618393E+03  0.31662231655E+03  0.12509000000E+03 0.  0.
<mgrwt>
<rscale>  2 0.45377443E+03</rscale>
<asrwt>0</asrwt>
<pdfrwt beam="1">  1       21 0.72573656E-02 0.45377443E+03</pdfrwt>
<pdfrwt beam="2">  1       21 0.15339925E+00 0.45377443E+03</pdfrwt>
<totfact> 0.36100580E+04</totfact>
</mgrwt>
</event>
<event>
 7    0  0.4685107E-002  0.4376145E+03  0.7546771E-02  0.1031481E+00
         21   -1    0    0  502  501  0.00000000000E+00  0.00000000000E+00  0.27008582977E+03  0.27008582977E+03  0.00000000000E+00 0.  1.
         21   -1    0    0  501  502 -0.00000000000E+00 -0.00000000000E+00 -0.17726444782E+03  0.17726444782E+03  0.00000000000E+00 0.  1.
      99926    2    1    2    0    0  0.00000000000E+00  0.00000000000E+00  0.92821381946E+02  0.44735027759E+03  0.43761451292E+03 0.  0.
      99925    2    3    3    0    0  0.87072452232E+02  0.35620602928E+02  0.39788050447E+02  0.28209144533E+03  0.26294876931E+03 0.  0.
         25    1    3    3    0    0 -0.87072452232E+02 -0.35620602928E+02  0.53033331499E+02  0.16525883226E+03  0.12509000000E+03 0.  0.
         25    1    4    4    0    0  0.75788361706E+02  0.37551700165E+02  0.23563352177E+01  0.15102008599E+03  0.12509000000E+03 0.  0.
         25    1    4    4    0    0  0.11284090526E+02 -0.19310972370E+01  0.37431715229E+02  0.13107135935E+03  0.12509000000E+03 0.  0.
<mgrwt>
<rscale>  2 0.43761451E+03</rscale>
<asrwt>0</asrwt>
<pdfrwt beam="1">  1       21 0.39718505E-01 0.43761451E+03</pdfrwt>
<pdfrwt beam="2">  1       21 0.26068301E-01 0.43761451E+03</pdfrwt>
<totfact> 0.79578420E+04</totfact>
</mgrwt>
</event>
<event>
 7    0  0.4685107E-002  0.4531903E+03  0.7546771E-02  0.1026775E+00
         21   -1    0    0  502  501  0.00000000000E+00  0.00000000000E+00  0.30912697549E+03  0.30912697549E+03  0.00000000000E+00 0.  1.
         21   -1    0    0  501  502 -0.00000000000E+00 -0.00000000000E+00 -0.16609793834E+03  0.16609793834E+03  0.00000000000E+00 0.  1.
      99926    2    1    2    0    0  0.00000000000E+00  0.00000000000E+00  0.14302903715E+03  0.47522491383E+03  0.45319026165E+03 0.  0.
      99925    2    3    3    0    0  0.31127906872E+02  0.10148812963E+03  0.12645502020E+03  0.31032799700E+03  0.26276188183E+03 0.  0.
         25    1    4    4    0    0  0.32711768545E+02  0.47843715307E+02  0.10326388092E+03  0.17224987111E+03  0.12509000000E+03 0.  0.
         25    1    3    3    0    0 -0.31127906872E+02 -0.10148812963E+03  0.16574016946E+02  0.16489691683E+03  0.12509000000E+03 0.  0.
         25    1    4    4    0    0 -0.15838616733E+01  0.53644414327E+02  0.23191139281E+02  0.13807812588E+03  0.12509000000E+03 0.  0.
<mgrwt>
<rscale>  2 0.45319026E+03</rscale>
<asrwt>0</asrwt>
<pdfrwt beam="1">  1       21 0.45459850E-01 0.45319026E+03</pdfrwt>
<pdfrwt beam="2">  1       21 0.24426167E-01 0.45319026E+03</pdfrwt>
<totfact> 0.68021091E+04</totfact>
</mgrwt>
</event>
<event>
 7    0  0.4685107E-002  0.4572036E+03  0.7546771E-02  0.1025595E+00
         21   -1    0    0  502  501  0.00000000000E+00  0.00000000000E+00  0.52171792592E+03  0.52171792592E+03  0.00000000000E+00 0.  1.
         21   -1    0    0  501  502 -0.00000000000E+00 -0.00000000000E+00 -0.10016674674E+03  0.10016674674E+03  0.00000000000E+00 0.  1.
      99926    2    1    2    0    0  0.00000000000E+00  0.00000000000E+00  0.42155117918E+03  0.62188467266E+03  0.45720361922E+03 0.  0.
      99925    2    3    3    0    0  0.10986319654E+02 -0.99238804227E+02  0.34299123806E+03  0.44359218283E+03  0.26298668368E+03 0.  0.
         25    1    4    4    0    0  0.14925801574E+01 -0.35998571546E+02  0.10506677213E+03  0.16728616098E+03  0.12509000000E+03 0.  0.
         25    1    4    4    0    0  0.94937394962E+01 -0.63240232681E+02  0.23792446594E+03  0.27630602185E+03  0.12509000000E+03 0.  0.
         25    1    3    3    0    0 -0.10986319654E+02  0.99238804227E+02  0.78559941120E+02  0.17829248984E+03  0.12509000000E+03 0.  0.
<mgrwt>
<rscale>  2 0.45720362E+03</rscale>
<asrwt>0</asrwt>
<pdfrwt beam="1">  1       21 0.76723223E-01 0.45720362E+03</pdfrwt>
<pdfrwt beam="2">  1       21 0.14730404E-01 0.45720362E+03</pdfrwt>
<totfact> 0.56363870E+04</totfact>
</mgrwt>
</event>
<event>
 7    0  0.4685107E-002  0.4620327E+03  0.7546771E-02  0.1024193E+00
         21   -1    0    0  502  501  0.00000000000E+00  0.00000000000E+00  0.40149748276E+03  0.40149748276E+03  0.00000000000E+00 0.  1.
         21   -1    0    0  501  502 -0.00000000000E+00 -0.00000000000E+00 -0.13292377564E+03  0.13292377564E+03  0.00000000000E+00 0.  1.
      99926    2    1    2    0    0  0.14210854715E-13  0.88817841970E-15  0.26857370712E+03  0.53442125841E+03  0.46203273183E+03 0.  0.
      99925    2    3    3    0    0  0.11573669715E+03 -0.79869208709E+00  0.13279039143E+03  0.31652165332E+03  0.26297727656E+03 0.  0.
         25    1    4    4    0    0  0.64790250035E+02 -0.39690341440E+02  0.76156904656E+02  0.16498630831E+03  0.12509000000E+03 0.  0.
         25    1    3    3    0    0 -0.11573669715E+03  0.79869208709E+00  0.13578331569E+03  0.21789960508E+03  0.12509000000E+03 0.  0.
         25    1    4    4    0    0  0.50946447119E+02  0.38891649353E+02  0.56633486774E+02  0.15153534501E+03  0.12509000000E+03 0.  0.
<mgrwt>
<rscale>  2 0.46203273E+03</rscale>
<asrwt>0</asrwt>
<pdfrwt beam="1">  1       21 0.59043747E-01 0.46203273E+03</pdfrwt>
<pdfrwt beam="2">  1       21 0.19547614E-01 0.46203273E+03</pdfrwt>
<totfact> 0.59520626E+04</totfact>
</mgrwt>
</event>
<event>
 7    0  0.4685107E-002  0.4795134E+03  0.7546771E-02  0.1019269E+00
         21   -1    0    0  502  501  0.00000000000E+00  0.00000000000E+00  0.11951234585E+03  0.11951234585E+03  0.00000000000E+00 0. -1.
         21   -1    0    0  501  502 -0.00000000000E+00 -0.00000000000E+00 -0.48098193928E+03  0.48098193928E+03  0.00000000000E+00 0. -1.
      99926    2    1    2    0    0  0.00000000000E+00  0.14210854715E-13 -0.36146959343E+03  0.60049428513E+03  0.47951341952E+03 0.  0.
      99925    2    3    3    0    0 -0.62293148575E+02  0.80131664301E+02 -0.11159498163E+03  0.30319586652E+03  0.26300717399E+03 0.  0.
         25    1    4    4    0    0 -0.23461527970E+02  0.81109320394E+02 -0.58460595923E+02  0.16184657712E+03  0.12509000000E+03 0.  0.
         25    1    3    3    0    0  0.62293148575E+02 -0.80131664301E+02 -0.24987461180E+03  0.29729841861E+03  0.12509000000E+03 0.  0.
         25    1    4    4    0    0 -0.38831620605E+02 -0.97765609322E+00 -0.53134385708E+02  0.14134928940E+03  0.12509000000E+03 0.  0.
<mgrwt>
<rscale>  2 0.47951342E+03</rscale>
<asrwt>0</asrwt>
<pdfrwt beam="1">  1       21 0.17575345E-01 0.47951342E+03</pdfrwt>
<pdfrwt beam="2">  1       21 0.70732637E-01 0.47951342E+03</pdfrwt>
<totfact> 0.48539508E+04</totfact>
</mgrwt>
</event>
<event>
 7    0  0.4685107E-002  0.4529996E+03  0.7546771E-02  0.1026831E+00
         21   -1    0    0  502  501  0.00000000000E+00  0.00000000000E+00  0.11897293101E+03  0.11897293101E+03  0.00000000000E+00 0.  1.
         21   -1    0    0  501  502 -0.00000000000E+00 -0.00000000000E+00 -0.43120868369E+03  0.43120868369E+03  0.00000000000E+00 0.  1.
      99926    2    1    2    0    0  0.00000000000E+00  0.00000000000E+00 -0.31223575268E+03  0.55018161471E+03  0.45299960696E+03 0.  0.
      99925    2    3    3    0    0 -0.61406113305E+02  0.82656297386E+02 -0.24804369830E+03  0.37590912062E+03  0.26301942219E+03 0.  0.
         25    1    4    4    0    0  0.51247294756E+01  0.55587537687E+02 -0.10332074337E+03  0.17157774130E+03  0.12509000000E+03 0.  0.
         25    1    3    3    0    0  0.61406113305E+02 -0.82656297386E+02 -0.64192054380E+02  0.17427249408E+03  0.12509000000E+03 0.  0.
         25    1    4    4    0    0 -0.66530842781E+02  0.27068759699E+02 -0.14472295493E+03  0.20433137932E+03  0.12509000000E+03 0.  0.
<mgrwt>
<rscale>  2 0.45299961E+03</rscale>
<asrwt>0</asrwt>
<pdfrwt beam="1">  1       21 0.17496019E-01 0.45299961E+03</pdfrwt>
<pdfrwt beam="2">  1       21 0.63413042E-01 0.45299961E+03</pdfrwt>
<totfact> 0.62843228E+04</totfact>
</mgrwt>
</event>
<event>
 7    0  0.4685107E-002  0.4571511E+03  0.7546771E-02  0.1025611E+00
         21   -1    0    0  502  501  0.00000000000E+00  0.00000000000E+00  0.60834610479E+03  0.60834610479E+03  0.00000000000E+00 0. -1.
         21   -1    0    0  501  502 -0.00000000000E+00 -0.00000000000E+00 -0.85883321468E+02  0.85883321468E+02  0.00000000000E+00 0. -1.
      99926    2    1    2    0    0 -0.71054273576E-14  0.71054273576E-14  0.52246278333E+03  0.69422942626E+03  0.45715110886E+03 0.  0.
      99925    2    3    3    0    0  0.59022421283E+02 -0.45675602674E+02  0.19495740698E+03  0.33579228180E+03  0.26301741214E+03 0.  0.
         25    1    4    4    0    0  0.53240426788E+02 -0.34728754695E+02  0.14125327402E+03  0.19909953533E+03  0.12509000000E+03 0.  0.
         25    1    4    4    0    0  0.57819944955E+01 -0.10946847978E+02  0.53704132962E+02  0.13669274647E+03  0.12509000000E+03 0.  0.
         25    1    3    3    0    0 -0.59022421283E+02  0.45675602674E+02  0.32750537635E+03  0.35843714446E+03  0.12509000000E+03 0.  0.
<mgrwt>
<rscale>  2 0.45715111E+03</rscale>
<asrwt>0</asrwt>
<pdfrwt beam="1">  1       21 0.89462660E-01 0.45715111E+03</pdfrwt>
<pdfrwt beam="2">  1       21 0.12629901E-01 0.45715111E+03</pdfrwt>
<totfact> 0.52325819E+04</totfact>
</mgrwt>
</event>
<event>
 7    0  0.4685107E-002  0.4556552E+03  0.7546771E-02  0.1026049E+00
         21   -1    0    0  502  501  0.00000000000E+00  0.00000000000E+00  0.47681689574E+03  0.47681689574E+03  0.00000000000E+00 0.  1.
         21   -1    0    0  501  502 -0.00000000000E+00 -0.00000000000E+00 -0.10885817989E+03  0.10885817989E+03  0.00000000000E+00 0.  1.
      99926    2    1    2    0    0  0.00000000000E+00  0.00000000000E+00  0.36795871585E+03  0.58567507563E+03  0.45565521796E+03 0.  0.
      99925    2    3    3    0    0 -0.20181123229E+02  0.11091023219E+03  0.21275455901E+03  0.35666809815E+03  0.26313356402E+03 0.  0.
         25    1    3    3    0    0  0.20181123229E+02 -0.11091023219E+03  0.15520415683E+03  0.22900697749E+03  0.12509000000E+03 0.  0.
         25    1    4    4    0    0 -0.12795351971E+02  0.91164571057E+02  0.86884562812E+02  0.17796385982E+03  0.12509000000E+03 0.  0.
         25    1    4    4    0    0 -0.73857712575E+01  0.19745661134E+02  0.12586999620E+03  0.17870423832E+03  0.12509000000E+03 0.  0.
<mgrwt>
<rscale>  2 0.45565522E+03</rscale>
<asrwt>0</asrwt>
<pdfrwt beam="1">  1       21 0.70120131E-01 0.45565522E+03</pdfrwt>
<pdfrwt beam="2">  1       21 0.16008556E-01 0.45565522E+03</pdfrwt>
<totfact> 0.59261260E+04</totfact>
</mgrwt>
</event>
<event>
 7    0  0.4685107E-002  0.4527800E+03  0.7546771E-02  0.1026896E+00
         21   -1    0    0  502  501  0.00000000000E+00  0.00000000000E+00  0.13545368283E+03  0.13545368283E+03  0.00000000000E+00 0. -1.
         21   -1    0    0  501  502 -0.00000000000E+00 -0.00000000000E+00 -0.37837601421E+03  0.37837601421E+03  0.00000000000E+00 0. -1.
      99926    2    1    2    0    0  0.00000000000E+00  0.00000000000E+00 -0.24292233138E+03  0.51382969704E+03  0.45277996696E+03 0.  0.
      99925    2    3    3    0    0  0.82278610350E+02 -0.74456852540E+02 -0.16082490551E+03  0.32754741650E+03  0.26288603464E+03 0.  0.
         25    1    3    3    0    0 -0.82278610350E+02  0.74456852540E+02 -0.82097425873E+02  0.18628228055E+03  0.12509000000E+03 0.  0.
         25    1    4    4    0    0  0.22317811713E+02  0.15775400435E+01 -0.67753784867E+02  0.14400922476E+03  0.12509000000E+03 0.  0.
         25    1    4    4    0    0  0.59960798637E+02 -0.76034392583E+02 -0.93071120639E+02  0.18353819174E+03  0.12509000000E+03 0.  0.
<mgrwt>
<rscale>  2 0.45277997E+03</rscale>
<asrwt>0</asrwt>
<pdfrwt beam="1">  1       21 0.19919659E-01 0.45277997E+03</pdfrwt>
<pdfrwt beam="2">  1       21 0.55643531E-01 0.45277997E+03</pdfrwt>
<totfact> 0.65455087E+04</totfact>
</mgrwt>
</event>
<event>
 7    0  0.4685107E-002  0.4527018E+03  0.7546771E-02  0.1026919E+00
         21   -1    0    0  502  501  0.00000000000E+00  0.00000000000E+00  0.44362005846E+02  0.44362005846E+02  0.00000000000E+00 0.  1.
         21   -1    0    0  501  502 -0.00000000000E+00 -0.00000000000E+00 -0.11549235210E+04  0.11549235210E+04  0.00000000000E+00 0.  1.
      99926    2    1    2    0    0  0.71054273576E-14 -0.14210854715E-13 -0.11105615151E+04  0.11992855268E+04  0.45270177374E+03 0.  0.
      99925    2    3    3    0    0 -0.49370597751E+02  0.78231982367E+02 -0.86280343810E+03  0.90672908470E+03  0.26300220773E+03 0.  0.
         25    1    3    3    0    0  0.49370597751E+02 -0.78231982367E+02 -0.24775807701E+03  0.29255644210E+03  0.12509000000E+03 0.  0.
         25    1    4    4    0    0 -0.18746468004E+01  0.72870623726E+02 -0.46074256752E+03  0.48295430812E+03  0.12509000000E+03 0.  0.
         25    1    4    4    0    0 -0.47495950951E+02  0.53613586403E+01 -0.40206087057E+03  0.42377477658E+03  0.12509000000E+03 0.  0.
<mgrwt>
<rscale>  2 0.45270177E+03</rscale>
<asrwt>0</asrwt>
<pdfrwt beam="1">  1       21 0.65238239E-02 0.45270177E+03</pdfrwt>
<pdfrwt beam="2">  1       21 0.16984171E+00 0.45270177E+03</pdfrwt>
<totfact> 0.32761204E+04</totfact>
</mgrwt>
</event>
<event>
 7    0  0.4685107E-002  0.4636645E+03  0.7546771E-02  0.1023724E+00
         21   -1    0    0  502  501  0.00000000000E+00  0.00000000000E+00  0.28357764777E+03  0.28357764777E+03  0.00000000000E+00 0. -1.
         21   -1    0    0  501  502 -0.00000000000E+00 -0.00000000000E+00 -0.18952905088E+03  0.18952905088E+03  0.00000000000E+00 0. -1.
      99926    2    1    2    0    0  0.00000000000E+00  0.00000000000E+00  0.94048596890E+02  0.47310669865E+03  0.46366454440E+03 0.  0.
      99925    2    3    3    0    0  0.18458812030E+02 -0.84718863061E+02  0.14498350170E+03  0.31260783221E+03  0.26303122912E+03 0.  0.
         25    1    4    4    0    0 -0.17785727936E+02 -0.35218915199E+02  0.10396401327E+03  0.16737003394E+03  0.12509000000E+03 0.  0.
         25    1    4    4    0    0  0.36244539966E+02 -0.49499947863E+02  0.41019488436E+02  0.14523779827E+03  0.12509000000E+03 0.  0.
         25    1    3    3    0    0 -0.18458812030E+02  0.84718863061E+02 -0.50934904814E+02  0.16049886644E+03  0.12509000000E+03 0.  0.
<mgrwt>
<rscale>  2 0.46366454E+03</rscale>
<asrwt>0</asrwt>
<pdfrwt beam="1">  1       21 0.41702595E-01 0.46366454E+03</pdfrwt>
<pdfrwt beam="2">  1       21 0.27871919E-01 0.46366454E+03</pdfrwt>
<totfact> 0.62776229E+04</totfact>
</mgrwt>
</event>
<event>
 7    0  0.4685107E-002  0.4409038E+03  0.7546771E-02  0.1030470E+00
         21   -1    0    0  502  501  0.00000000000E+00  0.00000000000E+00  0.16497309143E+03  0.16497309143E+03  0.00000000000E+00 0. -1.
         21   -1    0    0  501  502 -0.00000000000E+00 -0.00000000000E+00 -0.29458766227E+03  0.29458766227E+03  0.00000000000E+00 0. -1.
      99926    2    1    2    0    0 -0.14210854715E-13  0.00000000000E+00 -0.12961457084E+03  0.45956075369E+03  0.44090378696E+03 0.  0.
      99925    2    3    3    0    0 -0.76848276402E+02  0.69552857568E+01 -0.17120884527E+02  0.27447598623E+03  0.26284959339E+03 0.  0.
         25    1    4    4    0    0 -0.67218538045E+02 -0.54996400757E+01 -0.36977948065E+02  0.14684500210E+03  0.12509000000E+03 0.  0.
         25    1    4    4    0    0 -0.96297383574E+01  0.12454925833E+02  0.19857063538E+02  0.12763098413E+03  0.12509000000E+03 0.  0.
         25    1    3    3    0    0  0.76848276402E+02 -0.69552857568E+01 -0.11249368631E+03  0.18508476746E+03  0.12509000000E+03 0.  0.
<mgrwt>
<rscale>  2 0.44090379E+03</rscale>
<asrwt>0</asrwt>
<pdfrwt beam="1">  1       21 0.24260749E-01 0.44090379E+03</pdfrwt>
<pdfrwt beam="2">  1       21 0.43321715E-01 0.44090379E+03</pdfrwt>
<totfact> 0.76414422E+04</totfact>
</mgrwt>
</event>
<event>
 7    0  0.4685107E-002  0.4579376E+03  0.7546771E-02  0.1025381E+00
         21   -1    0    0  502  501  0.00000000000E+00  0.00000000000E+00  0.36192134727E+03  0.36192134727E+03  0.00000000000E+00 0.  1.
         21   -1    0    0  501  502 -0.00000000000E+00 -0.00000000000E+00 -0.14485661509E+03  0.14485661509E+03  0.00000000000E+00 0.  1.
      99926    2    1    2    0    0 -0.14210854715E-13  0.00000000000E+00  0.21706473217E+03  0.50677796236E+03  0.45793755599E+03 0.  0.
      99925    2    3    3    0    0 -0.91462909769E+02  0.46808834581E+01  0.58074814955E+02  0.28471338525E+03  0.26325207135E+03 0.  0.
         25    1    4    4    0    0 -0.79498703899E+02  0.13151853249E+02  0.55287925382E+02  0.15873650481E+03  0.12509000000E+03 0.  0.
         25    1    3    3    0    0  0.91462909769E+02 -0.46808834581E+01  0.15898991722E+03  0.22206457712E+03  0.12509000000E+03 0.  0.
         25    1    4    4    0    0 -0.11964205870E+02 -0.84709697908E+01  0.27868895735E+01  0.12597688044E+03  0.12509000000E+03 0.  0.
<mgrwt>
<rscale>  2 0.45793756E+03</rscale>
<asrwt>0</asrwt>
<pdfrwt beam="1">  1       21 0.53223727E-01 0.45793756E+03</pdfrwt>
<pdfrwt beam="2">  1       21 0.21302443E-01 0.45793756E+03</pdfrwt>
<totfact> 0.63308037E+04</totfact>
</mgrwt>
</event>
<event>
 7    0  0.4685107E-002  0.4539473E+03  0.7546771E-02  0.1026551E+00
         21   -1    0    0  502  501  0.00000000000E+00  0.00000000000E+00  0.15909938311E+03  0.15909938311E+03  0.00000000000E+00 0.  1.
         21   -1    0    0  501  502 -0.00000000000E+00 -0.00000000000E+00 -0.32380413632E+03  0.32380413632E+03  0.00000000000E+00 0.  1.
      99926    2    1    2    0    0 -0.17763568394E-14  0.00000000000E+00 -0.16470475321E+03  0.48290351944E+03  0.45394730240E+03 0.  0.
      99925    2    3    3    0    0  0.82757279636E+01 -0.99479734503E+02 -0.49622358690E+02  0.28578383275E+03  0.26314504618E+03 0.  0.
         25    1    4    4    0    0  0.23308749186E+01 -0.12297640756E+02 -0.43651497263E+02  0.13307751974E+03  0.12509000000E+03 0.  0.
         25    1    4    4    0    0  0.59448530450E+01 -0.87182093747E+02 -0.59708614269E+01  0.15270631301E+03  0.12509000000E+03 0.  0.
         25    1    3    3    0    0 -0.82757279636E+01  0.99479734503E+02 -0.11508239452E+03  0.19711968669E+03  0.12509000000E+03 0.  0.
<mgrwt>
<rscale>  2 0.45394730E+03</rscale>
<asrwt>0</asrwt>
<pdfrwt beam="1">  1       21 0.23396968E-01 0.45394730E+03</pdfrwt>
<pdfrwt beam="2">  1       21 0.47618255E-01 0.45394730E+03</pdfrwt>
<totfact> 0.67047883E+04</totfact>
</mgrwt>
</event>
<event>
 7    0  0.4685107E-002  0.4304931E+03  0.7546771E-02  0.1033704E+00
         21   -1    0    0  502  501  0.00000000000E+00  0.00000000000E+00  0.39247000789E+02  0.39247000789E+02  0.00000000000E+00 0. -1.
         21   -1    0    0  501  502 -0.00000000000E+00 -0.00000000000E+00 -0.11805000281E+04  0.11805000281E+04  0.00000000000E+00 0. -1.
      99926    2    1    2    0    0  0.00000000000E+00 -0.17763568394E-14 -0.11412530273E+04  0.12197470288E+04  0.43049313831E+03 0.  0.
      99925    2    3    3    0    0 -0.86982647179E+02  0.12848260518E+02 -0.72487278423E+03  0.77618071632E+03  0.26322023549E+03 0.  0.
         25    1    4    4    0    0 -0.54095610026E+02  0.13349825377E+02 -0.48123330174E+03  0.50033743780E+03  0.12509000000E+03 0.  0.
         25    1    3    3    0    0  0.86982647179E+02 -0.12848260518E+02 -0.41638024304E+03  0.44356631252E+03  0.12509000000E+03 0.  0.
         25    1    4    4    0    0 -0.32887037152E+02 -0.50156485908E+00 -0.24363948249E+03  0.27584327852E+03  0.12509000000E+03 0.  0.
<mgrwt>
<rscale>  2 0.43049314E+03</rscale>
<asrwt>0</asrwt>
<pdfrwt beam="1">  1       21 0.57716185E-02 0.43049314E+03</pdfrwt>
<pdfrwt beam="2">  1       21 0.17360292E+00 0.43049314E+03</pdfrwt>
<totfact> 0.38347232E+04</totfact>
</mgrwt>
</event>
<event>
 7    0  0.4685107E-002  0.4545077E+03  0.7546771E-02  0.1026386E+00
         21   -1    0    0  502  501  0.00000000000E+00  0.00000000000E+00  0.17405002292E+03  0.17405002292E+03  0.00000000000E+00 0. -1.
         21   -1    0    0  501  502 -0.00000000000E+00 -0.00000000000E+00 -0.29672102680E+03  0.29672102680E+03  0.00000000000E+00 0. -1.
      99926    2    1    2    0    0 -0.71054273576E-14 -0.14210854715E-13 -0.12267100388E+03  0.47077104972E+03  0.45450765236E+03 0.  0.
      99925    2    3    3    0    0  0.43929621243E+02  0.96139588429E+02 -0.36666840900E+02  0.28579306120E+03  0.26298400051E+03 0.  0.
         25    1    4    4    0    0  0.30618413337E+02  0.37549412819E+02 -0.56600493021E+02  0.14559728551E+03  0.12509000000E+03 0.  0.
         25    1    4    4    0    0  0.13311207906E+02  0.58590175610E+02  0.19933652120E+02  0.14019577569E+03  0.12509000000E+03 0.  0.
         25    1    3    3    0    0 -0.43929621243E+02 -0.96139588429E+02 -0.86004162977E+02  0.18497798852E+03  0.12509000000E+03 0.  0.
<mgrwt>
<rscale>  2 0.45450765E+03</rscale>
<asrwt>0</asrwt>
<pdfrwt beam="1">  1       21 0.25595592E-01 0.45450765E+03</pdfrwt>
<pdfrwt beam="2">  1       21 0.43635445E-01 0.45450765E+03</pdfrwt>
<totfact> 0.67642235E+04</totfact>
</mgrwt>
</event>
<event>
 7    0  0.4685107E-002  0.4631640E+03  0.7546771E-02  0.1023868E+00
         21   -1    0    0  502  501  0.00000000000E+00  0.00000000000E+00  0.19415682025E+04  0.19415682025E+04  0.00000000000E+00 0.  1.
         21   -1    0    0  501  502 -0.00000000000E+00 -0.00000000000E+00 -0.27622119723E+02  0.27622119723E+02  0.00000000000E+00 0.  1.
      99926    2    1    2    0    0 -0.71054273576E-14  0.00000000000E+00  0.19139460827E+04  0.19691903222E+04  0.46316402857E+03 0.  0.
      99925    2    3    3    0    0  0.42018366732E+02 -0.10677791990E+03  0.13547406933E+04  0.13847887112E+04  0.26296456240E+03 0.  0.
         25    1    3    3    0    0 -0.42018366732E+02  0.10677791990E+03  0.55920538941E+03  0.58440161103E+03  0.12509000000E+03 0.  0.
         25    1    4    4    0    0 -0.14576193623E+02 -0.51619505628E+02  0.74679633243E+03  0.75909769399E+03  0.12509000000E+03 0.  0.
         25    1    4    4    0    0  0.56594560355E+02 -0.55158414277E+02  0.60794436089E+03  0.62569101717E+03  0.12509000000E+03 0.  0.
<mgrwt>
<rscale>  2 0.46316403E+03</rscale>
<asrwt>0</asrwt>
<pdfrwt beam="1">  1       21 0.28552464E+00 0.46316403E+03</pdfrwt>
<pdfrwt beam="2">  1       21 0.40620777E-02 0.46316403E+03</pdfrwt>
<totfact> 0.13353132E+04</totfact>
</mgrwt>
</event>
<event>
 7    0  0.4685107E-002  0.4406717E+03  0.7546771E-02  0.1030541E+00
         21   -1    0    0  502  501  0.00000000000E+00  0.00000000000E+00  0.30050722356E+03  0.30050722356E+03  0.00000000000E+00 0. -1.
         21   -1    0    0  501  502 -0.00000000000E+00 -0.00000000000E+00 -0.16155317079E+03  0.16155317079E+03  0.00000000000E+00 0. -1.
      99926    2    1    2    0    0  0.00000000000E+00  0.00000000000E+00  0.13895405277E+03  0.46206039434E+03  0.44067173637E+03 0.  0.
      99925    2    3    3    0    0  0.38962376297E+02  0.50310312333E+02  0.90341051436E+01  0.27081213897E+03  0.26307490428E+03 0.  0.
         25    1    4    4    0    0  0.15612797096E+02  0.60705672505E+02  0.25038145578E+02  0.14213850619E+03  0.12509000000E+03 0.  0.
         25    1    4    4    0    0  0.23349579201E+02 -0.10395360172E+02 -0.16004040435E+02  0.12867363278E+03  0.12509000000E+03 0.  0.
         25    1    3    3    0    0 -0.38962376297E+02 -0.50310312333E+02  0.12991994763E+03  0.19124825538E+03  0.12509000000E+03 0.  0.
<mgrwt>
<rscale>  2 0.44067174E+03</rscale>
<asrwt>0</asrwt>
<pdfrwt beam="1">  1       21 0.44192239E-01 0.44067174E+03</pdfrwt>
<pdfrwt beam="2">  1       21 0.23757819E-01 0.44067174E+03</pdfrwt>
<totfact> 0.76347847E+04</totfact>
</mgrwt>
</event>
<event>
 7    0  0.4685107E-002  0.4619382E+03  0.7546771E-02  0.1024221E+00
         21   -1    0    0  502  501  0.00000000000E+00  0.00000000000E+00  0.53220122843E+02  0.53220122843E+02  0.00000000000E+00 0.  1.
         21   -1    0    0  501  502 -0.00000000000E+00 -0.00000000000E+00 -0.10023787320E+04  0.10023787320E+04  0.00000000000E+00 0.  1.
      99926    2    1    2    0    0  0.00000000000E+00 -0.71054273576E-14 -0.94915860917E+03  0.10555988549E+04  0.46193817445E+03 0.  0.
      99925    2    3    3    0    0  0.66242227736E+01 -0.38739963444E+02 -0.33551955379E+03  0.42810776848E+03  0.26297951510E+03 0.  0.
         25    1    3    3    0    0 -0.66242227736E+01  0.38739963444E+02 -0.61363905538E+03  0.62749108638E+03  0.12509000000E+03 0.  0.
         25    1    4    4    0    0 -0.71565899704E+01 -0.46037828831E+02 -0.21884115921E+03  0.25633895437E+03  0.12509000000E+03 0.  0.
         25    1    4    4    0    0  0.13780812744E+02  0.72978653870E+01 -0.11667839459E+03  0.17176881412E+03  0.12509000000E+03 0.  0.
<mgrwt>
<rscale>  2 0.46193817E+03</rscale>
<asrwt>0</asrwt>
<pdfrwt beam="1">  1       21 0.78264882E-02 0.46193817E+03</pdfrwt>
<pdfrwt beam="2">  1       21 0.14740865E+00 0.46193817E+03</pdfrwt>
<totfact> 0.35131296E+04</totfact>
</mgrwt>
</event>
<event>
 7    0  0.4685107E-002  0.4616603E+03  0.7546771E-02  0.1024301E+00
         21   -1    0    0  502  501  0.00000000000E+00  0.00000000000E+00  0.76029850030E+02  0.76029850030E+02  0.00000000000E+00 0.  1.
         21   -1    0    0  501  502 -0.00000000000E+00 -0.00000000000E+00 -0.70081101550E+03  0.70081101550E+03  0.00000000000E+00 0.  1.
      99926    2    1    2    0    0 -0.14210854715E-13  0.00000000000E+00 -0.62478116547E+03  0.77684086553E+03  0.46166029246E+03 0.  0.
      99925    2    3    3    0    0  0.89122565549E+02 -0.39295808837E+02 -0.50674525075E+03  0.57918718470E+03  0.26302101338E+03 0.  0.
         25    1    3    3    0    0 -0.89122565549E+02  0.39295808837E+02 -0.11803591473E+03  0.19765368083E+03  0.12509000000E+03 0.  0.
         25    1    4    4    0    0  0.77256277980E+02 -0.45758305314E+02 -0.25871909938E+03  0.30107380404E+03  0.12509000000E+03 0.  0.
         25    1    4    4    0    0  0.11866287569E+02  0.64624964769E+01 -0.24802615136E+03  0.27811338066E+03  0.12509000000E+03 0.  0.
<mgrwt>
<rscale>  2 0.46166029E+03</rscale>
<asrwt>0</asrwt>
<pdfrwt beam="1">  1       21 0.11180860E-01 0.46166029E+03</pdfrwt>
<pdfrwt beam="2">  1       21 0.10306044E+00 0.46166029E+03</pdfrwt>
<totfact> 0.46430080E+04</totfact>
</mgrwt>
</event>
<event>
 7    0  0.4685107E-002  0.4670212E+03  0.7546771E-02  0.1022764E+00
         21   -1    0    0  502  501  0.00000000000E+00  0.00000000000E+00  0.20464342319E+03  0.20464342319E+03  0.00000000000E+00 0.  1.
         21   -1    0    0  501  502 -0.00000000000E+00 -0.00000000000E+00 -0.26644985100E+03  0.26644985100E+03  0.00000000000E+00 0.  1.
      99926    2    1    2    0    0  0.22204460493E-14 -0.35527136788E-14 -0.61806427810E+02  0.47109327419E+03  0.46702123984E+03 0.  0.
      99925    2    3    3    0    0 -0.10348681676E+01 -0.31089253688E+02  0.82536143240E+02  0.27757351146E+03  0.26318667648E+03 0.  0.
         25    1    4    4    0    0  0.22613493027E+02 -0.23472918562E+02  0.72354018540E+01  0.12946894266E+03  0.12509000000E+03 0.  0.
         25    1    3    3    0    0  0.10348681676E+01  0.31089253688E+02 -0.14434257105E+03  0.19351976272E+03  0.12509000000E+03 0.  0.
         25    1    4    4    0    0 -0.23648361194E+02 -0.76163351264E+01  0.75300741386E+02  0.14810456881E+03  0.12509000000E+03 0.  0.
<mgrwt>
<rscale>  2 0.46702124E+03</rscale>
<asrwt>0</asrwt>
<pdfrwt beam="1">  1       21 0.30094621E-01 0.46702124E+03</pdfrwt>
<pdfrwt beam="2">  1       21 0.39183801E-01 0.46702124E+03</pdfrwt>
<totfact> 0.61289717E+04</totfact>
</mgrwt>
</event>
<event>
 7    0  0.4685107E-002  0.4579734E+03  0.7546771E-02  0.1025371E+00
         21   -1    0    0  502  501  0.00000000000E+00  0.00000000000E+00  0.13917221468E+03  0.13917221468E+03  0.00000000000E+00 0. -1.
         21   -1    0    0  501  502 -0.00000000000E+00 -0.00000000000E+00 -0.37676272655E+03  0.37676272655E+03  0.00000000000E+00 0. -1.
      99926    2    1    2    0    0  0.00000000000E+00  0.17763568394E-14 -0.23759051187E+03  0.51593494123E+03  0.45797337504E+03 0.  0.
      99925    2    3    3    0    0 -0.98437921525E+02  0.25111972416E+01 -0.80045481309E+02  0.29196111405E+03  0.26294045435E+03 0.  0.
         25    1    4    4    0    0 -0.14263326450E+02 -0.19855259744E+02 -0.48063758744E+02  0.13621786530E+03  0.12509000000E+03 0.  0.
         25    1    4    4    0    0 -0.84174595075E+02  0.22366456986E+02 -0.31981722565E+02  0.15574324875E+03  0.12509000000E+03 0.  0.
         25    1    3    3    0    0  0.98437921525E+02 -0.25111972416E+01 -0.15754503056E+03  0.22397382718E+03  0.12509000000E+03 0.  0.
<mgrwt>
<rscale>  2 0.45797338E+03</rscale>
<asrwt>0</asrwt>
<pdfrwt beam="1">  1       21 0.20466502E-01 0.45797338E+03</pdfrwt>
<pdfrwt beam="2">  1       21 0.55406283E-01 0.45797338E+03</pdfrwt>
<totfact> 0.62673218E+04</totfact>
</mgrwt>
</event>
<event>
 7    0  0.4685107E-002  0.4561306E+03  0.7546771E-02  0.1025909E+00
         21   -1    0    0  502  501  0.00000000000E+00  0.00000000000E+00  0.34384203894E+03  0.34384203894E+03  0.00000000000E+00 0.  1.
         21   -1    0    0  501  502 -0.00000000000E+00 -0.00000000000E+00 -0.15127228322E+03  0.15127228322E+03  0.00000000000E+00 0.  1.
      99926    2    1    2    0    0  0.14210854715E-13  0.14210854715E-13  0.19256975572E+03  0.49511432216E+03  0.45613055280E+03 0.  0.
      99925    2    3    3    0    0  0.85741259129E+02  0.74095456015E+02  0.10706281383E+03  0.30590373755E+03  0.26319755018E+03 0.  0.
         25    1    4    4    0    0  0.11515123346E+02  0.24882438288E+02  0.77024149601E+02  0.14943882201E+03  0.12509000000E+03 0.  0.
         25    1    4    4    0    0  0.74226135782E+02  0.49213017727E+02  0.30038664226E+02  0.15646491554E+03  0.12509000000E+03 0.  0.
         25    1    3    3    0    0 -0.85741259129E+02 -0.74095456015E+02  0.85506941889E+02  0.18921058461E+03  0.12509000000E+03 0.  0.
<mgrwt>
<rscale>  2 0.45613055E+03</rscale>
<asrwt>0</asrwt>
<pdfrwt beam="1">  1       21 0.50565006E-01 0.45613055E+03</pdfrwt>
<pdfrwt beam="2">  1       21 0.22245924E-01 0.45613055E+03</pdfrwt>
<totfact> 0.65029669E+04</totfact>
</mgrwt>
</event>
<event>
 7    0  0.4685107E-002  0.4186897E+03  0.7546771E-02  0.1037494E+00
         21   -1    0    0  502  501  0.00000000000E+00  0.00000000000E+00  0.68833707305E+02  0.68833707305E+02  0.00000000000E+00 0.  1.
         21   -1    0    0  501  502 -0.00000000000E+00 -0.00000000000E+00 -0.63668331162E+03  0.63668331162E+03  0.00000000000E+00 0.  1.
      99926    2    1    2    0    0  0.71054273576E-14  0.00000000000E+00 -0.56784960431E+03  0.70551701893E+03  0.41868973103E+03 0.  0.
      99925    2    3    3    0    0 -0.46007102890E+02  0.34287389459E+02 -0.44972507441E+03  0.52415221733E+03  0.26304111045E+03 0.  0.
         25    1    4    4    0    0 -0.55081100646E+01  0.15340235254E+02 -0.14792072101E+03  0.19440604388E+03  0.12509000000E+03 0.  0.
         25    1    4    4    0    0 -0.40498992826E+02  0.18947154205E+02 -0.30180435340E+03  0.32974617345E+03  0.12509000000E+03 0.  0.
         25    1    3    3    0    0  0.46007102890E+02 -0.34287389459E+02 -0.11812452991E+03  0.18136480160E+03  0.12509000000E+03 0.  0.
<mgrwt>
<rscale>  2 0.41868973E+03</rscale>
<asrwt>0</asrwt>
<pdfrwt beam="1">  1       21 0.10122604E-01 0.41868973E+03</pdfrwt>
<pdfrwt beam="2">  1       21 0.93629899E-01 0.41868973E+03</pdfrwt>
<totfact> 0.70754840E+04</totfact>
</mgrwt>
</event>
<event>
 7    0  0.4685107E-002  0.4678085E+03  0.7546771E-02  0.1022541E+00
         21   -1    0    0  502  501  0.00000000000E+00  0.00000000000E+00  0.12442733383E+03  0.12442733383E+03  0.00000000000E+00 0.  1.
         21   -1    0    0  501  502 -0.00000000000E+00 -0.00000000000E+00 -0.43970397606E+03  0.43970397606E+03  0.00000000000E+00 0.  1.
      99926    2    1    2    0    0  0.00000000000E+00  0.00000000000E+00 -0.31527664223E+03  0.56413130989E+03  0.46780847969E+03 0.  0.
      99925    2    3    3    0    0 -0.95467832567E+02  0.54555794654E+02 -0.12513000329E+03  0.31135928971E+03  0.26305255707E+03 0.  0.
         25    1    4    4    0    0 -0.22472201682E+02  0.50202757020E+02 -0.36247917661E+02  0.14137445418E+03  0.12509000000E+03 0.  0.
         25    1    4    4    0    0 -0.72995630885E+02  0.43530376336E+01 -0.88882085629E+02  0.16998483553E+03  0.12509000000E+03 0.  0.
         25    1    3    3    0    0  0.95467832567E+02 -0.54555794654E+02 -0.19014663894E+03  0.25277202018E+03  0.12509000000E+03 0.  0.
<mgrwt>
<rscale>  2 0.46780848E+03</rscale>
<asrwt>0</asrwt>
<pdfrwt beam="1">  1       21 0.18298138E-01 0.46780848E+03</pdfrwt>
<pdfrwt beam="2">  1       21 0.64662348E-01 0.46780848E+03</pdfrwt>
<totfact> 0.55140223E+04</totfact>
</mgrwt>
</event>
<event>
 7    0  0.4685107E-002  0.4541923E+03  0.7546771E-02  0.1026479E+00
         21   -1    0    0  502  501  0.00000000000E+00  0.00000000000E+00  0.25848555087E+03  0.25848555087E+03  0.00000000000E+00 0. -1.
         21   -1    0    0  501  502 -0.00000000000E+00 -0.00000000000E+00 -0.19951854475E+03  0.19951854475E+03  0.00000000000E+00 0. -1.
      99926    2    1    2    0    0  0.00000000000E+00  0.00000000000E+00  0.58967006124E+02  0.45800409561E+03  0.45419229825E+03 0.  0.
      99925    2    3    3    0    0 -0.16109408743E+02  0.28921645252E+02 -0.71284583409E+02  0.27440409755E+03  0.26290709824E+03 0.  0.
         25    1    4    4    0    0 -0.14778114977E+02  0.23619286242E+02  0.41581406854E+01  0.12822270313E+03  0.12509000000E+03 0.  0.
         25    1    4    4    0    0 -0.13312937666E+01  0.53023590099E+01 -0.75442724095E+02  0.14618139441E+03  0.12509000000E+03 0.  0.
         25    1    3    3    0    0  0.16109408743E+02 -0.28921645252E+02  0.13025158953E+03  0.18359999807E+03  0.12509000000E+03 0.  0.
<mgrwt>
<rscale>  2 0.45419230E+03</rscale>
<asrwt>0</asrwt>
<pdfrwt beam="1">  1       21 0.38012581E-01 0.45419230E+03</pdfrwt>
<pdfrwt beam="2">  1       21 0.29340962E-01 0.45419230E+03</pdfrwt>
<totfact> 0.68768145E+04</totfact>
</mgrwt>
</event>
<event>
 7    0  0.4685107E-002  0.4387083E+03  0.7546771E-02  0.1031144E+00
         21   -1    0    0  502  501  0.00000000000E+00  0.00000000000E+00  0.41938526984E+03  0.41938526984E+03  0.00000000000E+00 0. -1.
         21   -1    0    0  501  502 -0.00000000000E+00 -0.00000000000E+00 -0.11473043294E+03  0.11473043294E+03  0.00000000000E+00 0. -1.
      99926    2    1    2    0    0  0.00000000000E+00  0.00000000000E+00  0.30465483690E+03  0.53411570278E+03  0.43870834766E+03 0.  0.
      99925    2    3    3    0    0  0.68147672265E+02  0.43727143490E+02  0.13118340351E+03  0.30543248386E+03  0.26367356433E+03 0.  0.
         25    1    4    4    0    0  0.46677901667E+02 -0.40039333657E+01  0.31784119702E+02  0.13730475721E+03  0.12509000000E+03 0.  0.
         25    1    4    4    0    0  0.21469770598E+02  0.47731076856E+02  0.99399283811E+02  0.16812772665E+03  0.12509000000E+03 0.  0.
         25    1    3    3    0    0 -0.68147672265E+02 -0.43727143490E+02  0.17347143339E+03  0.22868321892E+03  0.12509000000E+03 0.  0.
<mgrwt>
<rscale>  2 0.43870835E+03</rscale>
<asrwt>0</asrwt>
<pdfrwt beam="1">  1       21 0.61674304E-01 0.43870835E+03</pdfrwt>
<pdfrwt beam="2">  1       21 0.16872123E-01 0.43870835E+03</pdfrwt>
<totfact> 0.71741492E+04</totfact>
</mgrwt>
</event>
<event>
 7    0  0.4685107E-002  0.4498222E+03  0.7546771E-02  0.1027775E+00
         21   -1    0    0  502  501  0.00000000000E+00  0.00000000000E+00  0.32872948219E+03  0.32872948219E+03  0.00000000000E+00 0. -1.
         21   -1    0    0  501  502 -0.00000000000E+00 -0.00000000000E+00 -0.15388032249E+03  0.15388032249E+03  0.00000000000E+00 0. -1.
      99926    2    1    2    0    0 -0.71054273576E-14 -0.71054273576E-14  0.17484915970E+03  0.48260980468E+03  0.44982218145E+03 0.  0.
      99925    2    3    3    0    0 -0.59388539605E+02 -0.50450582702E+02  0.29879527746E+02  0.27588302310E+03  0.26295702373E+03 0.  0.
         25    1    3    3    0    0  0.59388539605E+02  0.50450582702E+02  0.14496963196E+03  0.20672678158E+03  0.12509000000E+03 0.  0.
         25    1    4    4    0    0 -0.71159925352E+02 -0.28126534670E+02  0.14639897601E+02  0.14736577496E+03  0.12509000000E+03 0.  0.
         25    1    4    4    0    0  0.11771385747E+02 -0.22324048032E+02  0.15239630144E+02  0.12851724814E+03  0.12509000000E+03 0.  0.
<mgrwt>
<rscale>  2 0.44982218E+03</rscale>
<asrwt>0</asrwt>
<pdfrwt beam="1">  1       21 0.48342571E-01 0.44982218E+03</pdfrwt>
<pdfrwt beam="2">  1       21 0.22629459E-01 0.44982218E+03</pdfrwt>
<totfact> 0.69316249E+04</totfact>
</mgrwt>
</event>
<event>
 7    0  0.4685107E-002  0.4517870E+03  0.7546771E-02  0.1027190E+00
         21   -1    0    0  502  501  0.00000000000E+00  0.00000000000E+00  0.30508501619E+02  0.30508501619E+02  0.00000000000E+00 0.  1.
         21   -1    0    0  501  502 -0.00000000000E+00 -0.00000000000E+00 -0.16725785580E+04  0.16725785580E+04  0.00000000000E+00 0.  1.
      99926    2    1    2    0    0  0.71054273576E-14  0.00000000000E+00 -0.16420700564E+04  0.17030870596E+04  0.45178696592E+03 0.  0.
      99925    2    3    3    0    0  0.61250354113E+02 -0.37232644842E+02 -0.72148679261E+03  0.77128293355E+03  0.26305188834E+03 0.  0.
         25    1    4    4    0    0  0.71829674486E+02 -0.17105556832E+02 -0.36834831490E+03  0.39595465826E+03  0.12509000000E+03 0.  0.
         25    1    3    3    0    0 -0.61250354113E+02  0.37232644842E+02 -0.92058326376E+03  0.93180412606E+03  0.12509000000E+03 0.  0.
         25    1    4    4    0    0 -0.10579320373E+02 -0.20127088010E+02 -0.35313847771E+03  0.37532827529E+03  0.12509000000E+03 0.  0.
<mgrwt>
<rscale>  2 0.45178697E+03</rscale>
<asrwt>0</asrwt>
<pdfrwt beam="1">  1       21 0.44865437E-02 0.45178697E+03</pdfrwt>
<pdfrwt beam="2">  1       21 0.24596747E+00 0.45178697E+03</pdfrwt>
<totfact> 0.19684018E+04</totfact>
</mgrwt>
</event>
<event>
 7    0  0.4685107E-002  0.4546796E+03  0.7546771E-02  0.1026336E+00
         21   -1    0    0  502  501  0.00000000000E+00  0.00000000000E+00  0.35752013109E+03  0.35752013109E+03  0.00000000000E+00 0. -1.
         21   -1    0    0  501  502 -0.00000000000E+00 -0.00000000000E+00 -0.14456078833E+03  0.14456078833E+03  0.00000000000E+00 0. -1.
      99926    2    1    2    0    0  0.00000000000E+00 -0.17763568394E-14  0.21295934277E+03  0.50208091942E+03  0.45467963224E+03 0.  0.
      99925    2    3    3    0    0  0.45480207063E+02 -0.12672991725E+02  0.20746330665E+02  0.26793907336E+03  0.26292942560E+03 0.  0.
         25    1    4    4    0    0 -0.11839615897E+02 -0.19659001603E+02  0.27040806483E+02  0.13002063745E+03  0.12509000000E+03 0.  0.
         25    1    4    4    0    0  0.57319822960E+02  0.69860098784E+01 -0.62944758186E+01  0.13791843591E+03  0.12509000000E+03 0.  0.
         25    1    3    3    0    0 -0.45480207063E+02  0.12672991725E+02  0.19221301210E+03  0.23414184606E+03  0.12509000000E+03 0.  0.
<mgrwt>
<rscale>  2 0.45467963E+03</rscale>
<asrwt>0</asrwt>
<pdfrwt beam="1">  1       21 0.52576490E-01 0.45467963E+03</pdfrwt>
<pdfrwt beam="2">  1       21 0.21258940E-01 0.45467963E+03</pdfrwt>
<totfact> 0.65290593E+04</totfact>
</mgrwt>
</event>
<event>
 7    0  0.4685107E-002  0.4545049E+03  0.7546771E-02  0.1026387E+00
         21   -1    0    0  502  501  0.00000000000E+00  0.00000000000E+00  0.10577540019E+04  0.10577540019E+04  0.00000000000E+00 0. -1.
         21   -1    0    0  501  502 -0.00000000000E+00 -0.00000000000E+00 -0.48823909128E+02  0.48823909128E+02  0.00000000000E+00 0. -1.
      99926    2    1    2    0    0  0.14210854715E-13  0.88817841970E-15  0.10089300927E+04  0.11065779110E+04  0.45450494064E+03 0.  0.
      99925    2    3    3    0    0  0.69977769014E+02 -0.69594786748E+01  0.42072475905E+03  0.50112077363E+03  0.26299692848E+03 0.  0.
         25    1    4    4    0    0  0.69098434795E+02 -0.21636378692E+02  0.25293444850E+03  0.29131781599E+03  0.12509000000E+03 0.  0.
         25    1    3    3    0    0 -0.69977769014E+02  0.69594786748E+01  0.58820533369E+03  0.60545713736E+03  0.12509000000E+03 0.  0.
         25    1    4    4    0    0  0.87933421885E+00  0.14676900017E+02  0.16779031055E+03  0.20980295764E+03  0.12509000000E+03 0.  0.
<mgrwt>
<rscale>  2 0.45450494E+03</rscale>
<asrwt>0</asrwt>
<pdfrwt beam="1">  1       21 0.15555204E+00 0.45450494E+03</pdfrwt>
<pdfrwt beam="2">  1       21 0.71799873E-02 0.45450494E+03</pdfrwt>
<totfact> 0.35401980E+04</totfact>
</mgrwt>
</event>
<event>
 7    0  0.4685107E-002  0.4547638E+03  0.7546771E-02  0.1026311E+00
         21   -1    0    0  502  501  0.00000000000E+00  0.00000000000E+00  0.24480622039E+03  0.24480622039E+03  0.00000000000E+00 0. -1.
         21   -1    0    0  501  502 -0.00000000000E+00 -0.00000000000E+00 -0.21119775584E+03  0.21119775584E+03  0.00000000000E+00 0. -1.
      99926    2    1    2    0    0  0.17763568394E-14  0.00000000000E+00  0.33608464545E+02  0.45600397623E+03  0.45476378204E+03 0.  0.
      99925    2    3    3    0    0  0.47860957352E+01 -0.90667730796E+02 -0.46242827425E+02  0.28202903249E+03  0.26297990790E+03 0.  0.
         25    1    4    4    0    0  0.22977440365E+02 -0.85934755816E+01 -0.19283844521E+02  0.12892317615E+03  0.12509000000E+03 0.  0.
         25    1    4    4    0    0 -0.18191344630E+02 -0.82074255215E+02 -0.26958982904E+02  0.15310585635E+03  0.12509000000E+03 0.  0.
         25    1    3    3    0    0 -0.47860957352E+01  0.90667730796E+02  0.79851291969E+02  0.17397494374E+03  0.12509000000E+03 0.  0.
<mgrwt>
<rscale>  2 0.45476378E+03</rscale>
<asrwt>0</asrwt>
<pdfrwt beam="1">  1       21 0.36000915E-01 0.45476378E+03</pdfrwt>
<pdfrwt beam="2">  1       21 0.31058493E-01 0.45476378E+03</pdfrwt>
<totfact> 0.68601544E+04</totfact>
</mgrwt>
</event>
<event>
 7    0  0.4685107E-002  0.4508148E+03  0.7546771E-02  0.1027479E+00
         21   -1    0    0  502  501  0.00000000000E+00  0.00000000000E+00  0.44277423573E+03  0.44277423573E+03  0.00000000000E+00 0. -1.
         21   -1    0    0  501  502 -0.00000000000E+00 -0.00000000000E+00 -0.11475034565E+03  0.11475034565E+03  0.00000000000E+00 0. -1.
      99926    2    1    2    0    0  0.71054273576E-14 -0.14210854715E-13  0.32802389009E+03  0.55752458138E+03  0.45081480275E+03 0.  0.
      99925    2    3    3    0    0 -0.34707466091E+02  0.94711710352E+02  0.25876558660E+03  0.38254133366E+03  0.26306525212E+03 0.  0.
         25    1    4    4    0    0 -0.34143744718E+02  0.44937681257E+02  0.80332196771E+02  0.15901559810E+03  0.12509000000E+03 0.  0.
         25    1    3    3    0    0  0.34707466091E+02 -0.94711710352E+02  0.69258303483E+02  0.17498324772E+03  0.12509000000E+03 0.  0.
         25    1    4    4    0    0 -0.56372137320E+00  0.49774029095E+02  0.17843338983E+03  0.22352573557E+03  0.12509000000E+03 0.  0.
<mgrwt>
<rscale>  2 0.45081480E+03</rscale>
<asrwt>0</asrwt>
<pdfrwt beam="1">  1       21 0.65113858E-01 0.45081480E+03</pdfrwt>
<pdfrwt beam="2">  1       21 0.16875051E-01 0.45081480E+03</pdfrwt>
<totfact> 0.63446536E+04</totfact>
</mgrwt>
</event>
<event>
 7    0  0.4685107E-002  0.4570120E+03  0.7546771E-02  0.1025651E+00
         21   -1    0    0  502  501  0.00000000000E+00  0.00000000000E+00  0.57500285693E+03  0.57500285693E+03  0.00000000000E+00 0. -1.
         21   -1    0    0  501  502 -0.00000000000E+00 -0.00000000000E+00 -0.90808243063E+02  0.90808243063E+02  0.00000000000E+00 0. -1.
      99926    2    1    2    0    0  0.00000000000E+00  0.00000000000E+00  0.48419461387E+03  0.66581109999E+03  0.45701203133E+03 0.  0.
      99925    2    3    3    0    0 -0.54373443037E+02  0.29325641996E+02  0.16243407220E+03  0.31510635400E+03  0.26285114026E+03 0.  0.
         25    1    4    4    0    0 -0.15698148198E+02  0.30067119504E+02  0.12219542956E+03  0.17812830948E+03  0.12509000000E+03 0.  0.
         25    1    4    4    0    0 -0.38675294839E+02 -0.74147750818E+00  0.40238642635E+02  0.13697804452E+03  0.12509000000E+03 0.  0.
         25    1    3    3    0    0  0.54373443037E+02 -0.29325641996E+02  0.32176054167E+03  0.35070474599E+03  0.12509000000E+03 0.  0.
<mgrwt>
<rscale>  2 0.45701203E+03</rscale>
<asrwt>0</asrwt>
<pdfrwt beam="1">  1       21 0.84559242E-01 0.45701203E+03</pdfrwt>
<pdfrwt beam="2">  1       21 0.13354154E-01 0.45701203E+03</pdfrwt>
<totfact> 0.53937906E+04</totfact>
</mgrwt>
</event>
<event>
 7    0  0.4685107E-002  0.4558145E+03  0.7546771E-02  0.1026002E+00
         21   -1    0    0  502  501  0.00000000000E+00  0.00000000000E+00  0.93066292159E+03  0.93066292159E+03  0.00000000000E+00 0. -1.
         21   -1    0    0  501  502 -0.00000000000E+00 -0.00000000000E+00 -0.55811525057E+02  0.55811525057E+02  0.00000000000E+00 0. -1.
      99926    2    1    2    0    0  0.00000000000E+00 -0.14210854715E-13  0.87485139653E+03  0.98647444664E+03  0.45581451038E+03 0.  0.
      99925    2    3    3    0    0 -0.82503982240E+02 -0.70365762608E+02  0.62555536662E+03  0.68721825830E+03  0.26304214530E+03 0.  0.
         25    1    4    4    0    0 -0.41058714850E+02 -0.68400478123E+01  0.22490745119E+03  0.26069805143E+03  0.12509000000E+03 0.  0.
         25    1    4    4    0    0 -0.41445267389E+02 -0.63525714796E+02  0.40064791544E+03  0.42652020688E+03  0.12509000000E+03 0.  0.
         25    1    3    3    0    0  0.82503982240E+02  0.70365762608E+02  0.24929602990E+03  0.29925618834E+03  0.12509000000E+03 0.  0.
<mgrwt>
<rscale>  2 0.45581451E+03</rscale>
<asrwt>0</asrwt>
<pdfrwt beam="1">  1       21 0.13686218E+00 0.45581451E+03</pdfrwt>
<pdfrwt beam="2">  1       21 0.82075778E-02 0.45581451E+03</pdfrwt>
<totfact> 0.39445350E+04</totfact>
</mgrwt>
</event>
<event>
 7    0  0.4685107E-002  0.4606856E+03  0.7546771E-02  0.1024583E+00
         21   -1    0    0  502  501  0.00000000000E+00  0.00000000000E+00  0.39711748263E+03  0.39711748263E+03  0.00000000000E+00 0. -1.
         21   -1    0    0  501  502 -0.00000000000E+00 -0.00000000000E+00 -0.13360731174E+03  0.13360731174E+03  0.00000000000E+00 0. -1.
      99926    2    1    2    0    0 -0.88817841970E-15  0.00000000000E+00  0.26351017089E+03  0.53072479437E+03  0.46068557302E+03 0.  0.
      99925    2    3    3    0    0  0.45692391399E+01 -0.15372608773E+02  0.30012702726E+03  0.39940268154E+03  0.26303816164E+03 0.  0.
         25    1    3    3    0    0 -0.45692391399E+01  0.15372608773E+02 -0.36616856373E+02  0.13132211283E+03  0.12509000000E+03 0.  0.
         25    1    4    4    0    0  0.60071059264E+01  0.95578161870E+01  0.93522874512E+02  0.15659333743E+03  0.12509000000E+03 0.  0.
         25    1    4    4    0    0 -0.14378667865E+01 -0.24930424960E+02  0.20660415275E+03  0.24280934410E+03  0.12509000000E+03 0.  0.
<mgrwt>
<rscale>  2 0.46068557E+03</rscale>
<asrwt>0</asrwt>
<pdfrwt beam="1">  1       21 0.58399629E-01 0.46068557E+03</pdfrwt>
<pdfrwt beam="2">  1       21 0.19648134E-01 0.46068557E+03</pdfrwt>
<totfact> 0.60389646E+04</totfact>
</mgrwt>
</event>
<event>
 7    0  0.4685107E-002  0.4590813E+03  0.7546771E-02  0.1025048E+00
         21   -1    0    0  502  501  0.00000000000E+00  0.00000000000E+00  0.26606719312E+02  0.26606719312E+02  0.00000000000E+00 0.  1.
         21   -1    0    0  501  502 -0.00000000000E+00 -0.00000000000E+00 -0.19802855983E+04  0.19802855983E+04  0.00000000000E+00 0.  1.
      99926    2    1    2    0    0 -0.71054273576E-14  0.71054273576E-14 -0.19536788790E+04  0.20068923176E+04  0.45908126980E+03 0.  0.
      99925    2    3    3    0    0 -0.34273409979E+02  0.39281924720E+02 -0.16825989802E+04  0.17038254011E+04  0.26299036698E+03 0.  0.
         25    1    4    4    0    0 -0.10111638349E+02 -0.41390507769E+01 -0.10195112553E+04  0.10272147218E+04  0.12509000000E+03 0.  0.
         25    1    4    4    0    0 -0.24161771630E+02  0.43420975497E+02 -0.66308772487E+03  0.67661067926E+03  0.12509000000E+03 0.  0.
         25    1    3    3    0    0  0.34273409979E+02 -0.39281924720E+02 -0.27107989882E+03  0.30306691652E+03  0.12509000000E+03 0.  0.
<mgrwt>
<rscale>  2 0.45908127E+03</rscale>
<asrwt>0</asrwt>
<pdfrwt beam="1">  1       21 0.39127525E-02 0.45908127E+03</pdfrwt>
<pdfrwt beam="2">  1       21 0.29121850E+00 0.45908127E+03</pdfrwt>
<totfact> 0.13175097E+04</totfact>
</mgrwt>
</event>
<event>
 7    0  0.4685107E-002  0.4555295E+03  0.7546771E-02  0.1026086E+00
         21   -1    0    0  502  501  0.00000000000E+00  0.00000000000E+00  0.49079711145E+02  0.49079711145E+02  0.00000000000E+00 0.  1.
         21   -1    0    0  501  502 -0.00000000000E+00 -0.00000000000E+00 -0.10569901286E+04  0.10569901286E+04  0.00000000000E+00 0.  1.
      99926    2    1    2    0    0  0.00000000000E+00  0.00000000000E+00 -0.10079104175E+04  0.11060698398E+04  0.45552945106E+03 0.  0.
      99925    2    3    3    0    0  0.36851597768E+02 -0.95428549109E+02 -0.51307336902E+03  0.58551642189E+03  0.26290787371E+03 0.  0.
         25    1    3    3    0    0 -0.36851597768E+02  0.95428549109E+02 -0.49483704846E+03  0.52055341789E+03  0.12509000000E+03 0.  0.
         25    1    4    4    0    0  0.36878793076E+02 -0.39260017198E+02 -0.18320031662E+03  0.22827890493E+03  0.12509000000E+03 0.  0.
         25    1    4    4    0    0 -0.27195307885E-01 -0.56168531911E+02 -0.32987305240E+03  0.35723751695E+03  0.12509000000E+03 0.  0.
<mgrwt>
<rscale>  2 0.45552945E+03</rscale>
<asrwt>0</asrwt>
<pdfrwt beam="1">  1       21 0.72176052E-02 0.45552945E+03</pdfrwt>
<pdfrwt beam="2">  1       21 0.15543971E+00 0.45552945E+03</pdfrwt>
<totfact> 0.35137981E+04</totfact>
</mgrwt>
</event>
<event>
 7    0  0.4685107E-002  0.4482654E+03  0.7546771E-02  0.1028241E+00
         21   -1    0    0  502  501  0.00000000000E+00  0.00000000000E+00  0.14195824786E+03  0.14195824786E+03  0.00000000000E+00 0.  1.
         21   -1    0    0  501  502 -0.00000000000E+00 -0.00000000000E+00 -0.35387501579E+03  0.35387501579E+03  0.00000000000E+00 0.  1.
      99926    2    1    2    0    0 -0.71054273576E-14  0.00000000000E+00 -0.21191676793E+03  0.49583326366E+03  0.44826544460E+03 0.  0.
      99925    2    3    3    0    0  0.42570947586E+02  0.85543714384E+02 -0.18683531000E+03  0.33643878357E+03  0.26297073864E+03 0.  0.
         25    1    3    3    0    0 -0.42570947586E+02 -0.85543714384E+02 -0.25081457930E+02  0.15939448008E+03  0.12509000000E+03 0.  0.
         25    1    4    4    0    0  0.72553852698E+01  0.73868575677E+02 -0.70621629123E+02  0.16169146449E+03  0.12509000000E+03 0.  0.
         25    1    4    4    0    0  0.35315562316E+02  0.11675138706E+02 -0.11621368087E+03  0.17474731909E+03  0.12509000000E+03 0.  0.
<mgrwt>
<rscale>  2 0.44826544E+03</rscale>
<asrwt>0</asrwt>
<pdfrwt beam="1">  1       21 0.20876214E-01 0.44826544E+03</pdfrwt>
<pdfrwt beam="2">  1       21 0.52040442E-01 0.44826544E+03</pdfrwt>
<totfact> 0.69189915E+04</totfact>
</mgrwt>
</event>
<event>
 7    0  0.4685107E-002  0.4557279E+03  0.7546771E-02  0.1026028E+00
         21   -1    0    0  502  501  0.00000000000E+00  0.00000000000E+00  0.31313269499E+03  0.31313269499E+03  0.00000000000E+00 0. -1.
         21   -1    0    0  501  502 -0.00000000000E+00 -0.00000000000E+00 -0.16581460073E+03  0.16581460073E+03  0.00000000000E+00 0. -1.
      99926    2    1    2    0    0  0.00000000000E+00  0.00000000000E+00  0.14731809426E+03  0.47894729572E+03  0.45572786965E+03 0.  0.
      99925    2    3    3    0    0  0.10854608856E+03 -0.21773899707E+02  0.65139208107E+02  0.29278276236E+03  0.26310126083E+03 0.  0.
         25    1    4    4    0    0  0.51994821031E+02 -0.47374282496E+02  0.14509610461E+02  0.14424223013E+03  0.12509000000E+03 0.  0.
         25    1    3    3    0    0 -0.10854608856E+03  0.21773899707E+02  0.82178886150E+02  0.18616453336E+03  0.12509000000E+03 0.  0.
         25    1    4    4    0    0  0.56551267533E+02  0.25600382788E+02  0.50629597646E+02  0.14854053223E+03  0.12509000000E+03 0.  0.
<mgrwt>
<rscale>  2 0.45572787E+03</rscale>
<asrwt>0</asrwt>
<pdfrwt beam="1">  1       21 0.46048926E-01 0.45572787E+03</pdfrwt>
<pdfrwt beam="2">  1       21 0.24384500E-01 0.45572787E+03</pdfrwt>
<totfact> 0.66392416E+04</totfact>
</mgrwt>
</event>
<event>
 7    0  0.4685107E-002  0.4459499E+03  0.7546771E-02  0.1028937E+00
         21   -1    0    0  502  501  0.00000000000E+00  0.00000000000E+00  0.10421845232E+03  0.10421845232E+03  0.00000000000E+00 0.  1.
         21   -1    0    0  501  502 -0.00000000000E+00 -0.00000000000E+00 -0.47705390091E+03  0.47705390091E+03  0.00000000000E+00 0.  1.
      99926    2    1    2    0    0  0.00000000000E+00  0.00000000000E+00 -0.37283544859E+03  0.58127235324E+03  0.44594985919E+03 0.  0.
      99925    2    3    3    0    0 -0.72782690253E+02  0.74144994309E+02 -0.22216619481E+03  0.35958894765E+03  0.26296690470E+03 0.  0.
         25    1    3    3    0    0  0.72782690253E+02 -0.74144994309E+02 -0.15066925377E+03  0.22168340559E+03  0.12509000000E+03 0.  0.
         25    1    4    4    0    0 -0.11536173206E+02  0.68804166689E+02 -0.11819698234E+03  0.18570172692E+03  0.12509000000E+03 0.  0.
         25    1    4    4    0    0 -0.61246517047E+02  0.53408276203E+01 -0.10396921247E+03  0.17388722073E+03  0.12509000000E+03 0.  0.
<mgrwt>
<rscale>  2 0.44594986E+03</rscale>
<asrwt>0</asrwt>
<pdfrwt beam="1">  1       21 0.15326243E-01 0.44594986E+03</pdfrwt>
<pdfrwt beam="2">  1       21 0.70154985E-01 0.44594986E+03</pdfrwt>
<totfact> 0.64326107E+04</totfact>
</mgrwt>
</event>
<event>
 7    0  0.4685107E-002  0.4521754E+03  0.7546771E-02  0.1027075E+00
         21   -1    0    0  502  501  0.00000000000E+00  0.00000000000E+00  0.45986696289E+03  0.45986696289E+03  0.00000000000E+00 0. -1.
         21   -1    0    0  501  502 -0.00000000000E+00 -0.00000000000E+00 -0.11115309962E+03  0.11115309962E+03  0.00000000000E+00 0. -1.
      99926    2    1    2    0    0  0.14210854715E-13 -0.35527136788E-14  0.34871386327E+03  0.57102006251E+03  0.45217535686E+03 0.  0.
      99925    2    3    3    0    0 -0.90013200820E+02  0.19095740624E+02  0.29740075489E+03  0.40747322877E+03  0.26290720707E+03 0.  0.
         25    1    4    4    0    0 -0.30553592614E+02 -0.40432825864E+01  0.90580105251E+02  0.15748693191E+03  0.12509000000E+03 0.  0.
         25    1    3    3    0    0  0.90013200820E+02 -0.19095740624E+02  0.51313108380E+02  0.16354683373E+03  0.12509000000E+03 0.  0.
         25    1    4    4    0    0 -0.59459608207E+02  0.23139023210E+02  0.20682064964E+03  0.24998629686E+03  0.12509000000E+03 0.  0.
<mgrwt>
<rscale>  2 0.45217536E+03</rscale>
<asrwt>0</asrwt>
<pdfrwt beam="1">  1       21 0.67627494E-01 0.45217536E+03</pdfrwt>
<pdfrwt beam="2">  1       21 0.16346044E-01 0.45217536E+03</pdfrwt>
<totfact> 0.61868853E+04</totfact>
</mgrwt>
</event>
<event>
 7    0  0.4685107E-002  0.4428129E+03  0.7546771E-02  0.1029887E+00
         21   -1    0    0  502  501  0.00000000000E+00  0.00000000000E+00  0.53122512628E+03  0.53122512628E+03  0.00000000000E+00 0. -1.
         21   -1    0    0  501  502 -0.00000000000E+00 -0.00000000000E+00 -0.92278802775E+02  0.92278802775E+02  0.00000000000E+00 0. -1.
      99926    2    1    2    0    0  0.00000000000E+00  0.00000000000E+00  0.43894632351E+03  0.62350392906E+03  0.44281291154E+03 0.  0.
      99925    2    3    3    0    0 -0.79317467853E+02  0.14131933617E+02  0.36570947531E+03  0.45766630881E+03  0.26310465149E+03 0.  0.
         25    1    3    3    0    0  0.79317467853E+02 -0.14131933617E+02  0.73236848201E+02  0.16583762025E+03  0.12509000000E+03 0.  0.
         25    1    4    4    0    0 -0.26640030497E+02 -0.22972476265E+02  0.13457775600E+03  0.18707246297E+03  0.12509000000E+03 0.  0.
         25    1    4    4    0    0 -0.52677437356E+02  0.37104409883E+02  0.23113171931E+03  0.27059384584E+03  0.12509000000E+03 0.  0.
<mgrwt>
<rscale>  2 0.44281291E+03</rscale>
<asrwt>0</asrwt>
<pdfrwt beam="1">  1       21 0.78121340E-01 0.44281291E+03</pdfrwt>
<pdfrwt beam="2">  1       21 0.13570412E-01 0.44281291E+03</pdfrwt>
<totfact> 0.63111051E+04</totfact>
</mgrwt>
</event>
<event>
 7    0  0.4685107E-002  0.4389841E+03  0.7546771E-02  0.1031059E+00
         21   -1    0    0  502  501  0.00000000000E+00  0.00000000000E+00  0.36821778265E+03  0.36821778265E+03  0.00000000000E+00 0.  1.
         21   -1    0    0  501  502 -0.00000000000E+00 -0.00000000000E+00 -0.13083770842E+03  0.13083770842E+03  0.00000000000E+00 0.  1.
      99926    2    1    2    0    0  0.00000000000E+00  0.00000000000E+00  0.23738007423E+03  0.49905549106E+03  0.43898414951E+03 0.  0.
      99925    2    3    3    0    0  0.61284255264E+02  0.60745655239E+02  0.99810782981E+02  0.29407107076E+03  0.26281135379E+03 0.  0.
         25    1    4    4    0    0  0.42158883746E+02  0.68236555279E+02  0.67757905757E+02  0.16331638267E+03  0.12509000000E+03 0.  0.
         25    1    4    4    0    0  0.19125371518E+02 -0.74909000393E+01  0.32052877224E+02  0.13075468809E+03  0.12509000000E+03 0.  0.
         25    1    3    3    0    0 -0.61284255264E+02 -0.60745655239E+02  0.13756929125E+03  0.20498442031E+03  0.12509000000E+03 0.  0.
<mgrwt>
<rscale>  2 0.43898415E+03</rscale>
<asrwt>0</asrwt>
<pdfrwt beam="1">  1       21 0.54149674E-01 0.43898415E+03</pdfrwt>
<pdfrwt beam="2">  1       21 0.19240840E-01 0.43898415E+03</pdfrwt>
<totfact> 0.74347422E+04</totfact>
</mgrwt>
</event>
<event>
 7    0  0.4685107E-002  0.4365215E+03  0.7546771E-02  0.1031819E+00
         21   -1    0    0  502  501  0.00000000000E+00  0.00000000000E+00  0.22406840100E+03  0.22406840100E+03  0.00000000000E+00 0. -1.
         21   -1    0    0  501  502 -0.00000000000E+00 -0.00000000000E+00 -0.21260359814E+03  0.21260359814E+03  0.00000000000E+00 0. -1.
      99926    2    1    2    0    0  0.00000000000E+00  0.35527136788E-14  0.11464802861E+02  0.43667199914E+03  0.43652146927E+03 0.  0.
      99925    2    3    3    0    0 -0.44509405548E+02  0.13470956769E+02 -0.75278601894E+02  0.27750391118E+03  0.26301900874E+03 0.  0.
         25    1    4    4    0    0 -0.65961324887E+01  0.37649499817E+02 -0.15365559043E+02  0.13169890776E+03  0.12509000000E+03 0.  0.
         25    1    3    3    0    0  0.44509405548E+02 -0.13470956769E+02  0.86743404755E+02  0.15916808797E+03  0.12509000000E+03 0.  0.
         25    1    4    4    0    0 -0.37913273059E+02 -0.24178543048E+02 -0.59913042850E+02  0.14580500342E+03  0.12509000000E+03 0.  0.
<mgrwt>
<rscale>  2 0.43652147E+03</rscale>
<asrwt>0</asrwt>
<pdfrwt beam="1">  1       21 0.32951235E-01 0.43652147E+03</pdfrwt>
<pdfrwt beam="2">  1       21 0.31265235E-01 0.43652147E+03</pdfrwt>
<totfact> 0.81243749E+04</totfact>
</mgrwt>
</event>
<event>
 7    0  0.4685107E-002  0.4695830E+03  0.7546771E-02  0.1022038E+00
         21   -1    0    0  502  501  0.00000000000E+00  0.00000000000E+00  0.18787764138E+03  0.18787764138E+03  0.00000000000E+00 0.  1.
         21   -1    0    0  501  502 -0.00000000000E+00 -0.00000000000E+00 -0.29341993909E+03  0.29341993909E+03  0.00000000000E+00 0.  1.
      99926    2    1    2    0    0  0.00000000000E+00  0.00000000000E+00 -0.10554229772E+03  0.48129758047E+03  0.46958298986E+03 0.  0.
      99925    2    3    3    0    0 -0.19679193822E+02  0.10208763276E+03 -0.13913092526E+03  0.31521067722E+03  0.26304220430E+03 0.  0.
         25    1    4    4    0    0  0.51033144961E+01  0.63806890473E+02 -0.11114188331E+03  0.17915744309E+03  0.12509000000E+03 0.  0.
         25    1    4    4    0    0 -0.24782508318E+02  0.38280742282E+02 -0.27989041947E+02  0.13605323413E+03  0.12509000000E+03 0.  0.
         25    1    3    3    0    0  0.19679193822E+02 -0.10208763276E+03  0.33588627541E+02  0.16608690325E+03  0.12509000000E+03 0.  0.
<mgrwt>
<rscale>  2 0.46958299E+03</rscale>
<asrwt>0</asrwt>
<pdfrwt beam="1">  1       21 0.27629065E-01 0.46958299E+03</pdfrwt>
<pdfrwt beam="2">  1       21 0.43149991E-01 0.46958299E+03</pdfrwt>
<totfact> 0.59424478E+04</totfact>
</mgrwt>
</event>
<event>
 7    0  0.4685107E-002  0.4502366E+03  0.7546771E-02  0.1027652E+00
         21   -1    0    0  502  501  0.00000000000E+00  0.00000000000E+00  0.12996004162E+03  0.12996004162E+03  0.00000000000E+00 0. -1.
         21   -1    0    0  501  502 -0.00000000000E+00 -0.00000000000E+00 -0.38995258017E+03  0.38995258017E+03  0.00000000000E+00 0. -1.
      99926    2    1    2    0    0  0.00000000000E+00 -0.31086244690E-14 -0.25999253855E+03  0.51991262179E+03  0.45023662022E+03 0.  0.
      99925    2    3    3    0    0 -0.51283648686E+02  0.60488301909E+00 -0.53806495093E+02  0.27335518198E+03  0.26305424934E+03 0.  0.
         25    1    4    4    0    0 -0.37916120688E+02 -0.31420824072E+02 -0.45526816043E+01  0.13451072598E+03  0.12509000000E+03 0.  0.
         25    1    3    3    0    0  0.51283648686E+02 -0.60488301909E+00 -0.20618604346E+03  0.24655743981E+03  0.12509000000E+03 0.  0.
         25    1    4    4    0    0 -0.13367527998E+02  0.32025707091E+02 -0.49253813488E+02  0.13884445600E+03  0.12509000000E+03 0.  0.
<mgrwt>
<rscale>  2 0.45023662E+03</rscale>
<asrwt>0</asrwt>
<pdfrwt beam="1">  1       21 0.19111770E-01 0.45023662E+03</pdfrwt>
<pdfrwt beam="2">  1       21 0.57345969E-01 0.45023662E+03</pdfrwt>
<totfact> 0.66365480E+04</totfact>
</mgrwt>
</event>
<event>
 7    0  0.4685107E-002  0.4619788E+03  0.7546771E-02  0.1024209E+00
         21   -1    0    0  502  501  0.00000000000E+00  0.00000000000E+00  0.20119225506E+03  0.20119225506E+03  0.00000000000E+00 0.  1.
         21   -1    0    0  501  502 -0.00000000000E+00 -0.00000000000E+00 -0.26519959293E+03  0.26519959293E+03  0.00000000000E+00 0.  1.
      99926    2    1    2    0    0  0.00000000000E+00  0.00000000000E+00 -0.64007337869E+02  0.46639184800E+03  0.46197880533E+03 0.  0.
      99925    2    3    3    0    0 -0.71935664899E+02 -0.60551284494E+02  0.34747511234E+02  0.28134799844E+03  0.26288421168E+03 0.  0.
         25    1    4    4    0    0 -0.53571963616E+02 -0.66854020733E+02  0.30725256649E+02  0.15469636347E+03  0.12509000000E+03 0.  0.
         25    1    3    3    0    0  0.71935664899E+02  0.60551284494E+02 -0.98754849103E+02  0.18504384956E+03  0.12509000000E+03 0.  0.
         25    1    4    4    0    0 -0.18363701283E+02  0.63027362389E+01  0.40222545856E+01  0.12665163497E+03  0.12509000000E+03 0.  0.
<mgrwt>
<rscale>  2 0.46197881E+03</rscale>
<asrwt>0</asrwt>
<pdfrwt beam="1">  1       21 0.29587097E-01 0.46197881E+03</pdfrwt>
<pdfrwt beam="2">  1       21 0.38999940E-01 0.46197881E+03</pdfrwt>
<totfact> 0.64076167E+04</totfact>
</mgrwt>
</event>
<event>
 7    0  0.4685107E-002  0.4321036E+03  0.7546771E-02  0.1033198E+00
         21   -1    0    0  502  501  0.00000000000E+00  0.00000000000E+00  0.12463731500E+03  0.12463731500E+03  0.00000000000E+00 0. -1.
         21   -1    0    0  501  502 -0.00000000000E+00 -0.00000000000E+00 -0.37451370325E+03  0.37451370325E+03  0.00000000000E+00 0. -1.
      99926    2    1    2    0    0 -0.71054273576E-14  0.00000000000E+00 -0.24987638825E+03  0.49915101824E+03  0.43210360981E+03 0.  0.
      99925    2    3    3    0    0 -0.33940577857E+02 -0.73331442762E+02 -0.11742406427E+03  0.29985076850E+03  0.26380411137E+03 0.  0.
         25    1    3    3    0    0  0.33940577857E+02  0.73331442762E+02 -0.13245232398E+03  0.19930024975E+03  0.12509000000E+03 0.  0.
         25    1    4    4    0    0 -0.47864934178E+02 -0.82011676598E+01 -0.57468948385E+02  0.14597431008E+03  0.12509000000E+03 0.  0.
         25    1    4    4    0    0  0.13924356321E+02 -0.65130275102E+02 -0.59955115884E+02  0.15387645842E+03  0.12509000000E+03 0.  0.
<mgrwt>
<rscale>  2 0.43210361E+03</rscale>
<asrwt>0</asrwt>
<pdfrwt beam="1">  1       21 0.18329017E-01 0.43210361E+03</pdfrwt>
<pdfrwt beam="2">  1       21 0.55075545E-01 0.43210361E+03</pdfrwt>
<totfact> 0.78681549E+04</totfact>
</mgrwt>
</event>
<event>
 7    0  0.4685107E-002  0.4746321E+03  0.7546771E-02  0.1020621E+00
         21   -1    0    0  502  501  0.00000000000E+00  0.00000000000E+00  0.56874650035E+03  0.56874650035E+03  0.00000000000E+00 0. -1.
         21   -1    0    0  501  502 -0.00000000000E+00 -0.00000000000E+00 -0.99022869889E+02  0.99022869889E+02  0.00000000000E+00 0. -1.
      99926    2    1    2    0    0  0.35527136788E-14  0.00000000000E+00  0.46972363046E+03  0.66776937024E+03  0.47463211313E+03 0.  0.
      99925    2    3    3    0    0  0.30859845674E+02 -0.34064668611E+02  0.11845790999E+03  0.29207288876E+03  0.26298586309E+03 0.  0.
         25    1    3    3    0    0 -0.30859845674E+02  0.34064668611E+02  0.35126572046E+03  0.37569648148E+03  0.12509000000E+03 0.  0.
         25    1    4    4    0    0  0.44952581178E+02 -0.35816732647E+02  0.85070706553E+02  0.16182739603E+03  0.12509000000E+03 0.  0.
         25    1    4    4    0    0 -0.14092735504E+02  0.17520640358E+01  0.33387203441E+02  0.13024549273E+03  0.12509000000E+03 0.  0.
<mgrwt>
<rscale>  2 0.47463211E+03</rscale>
<asrwt>0</asrwt>
<pdfrwt beam="1">  1       21 0.83639190E-01 0.47463211E+03</pdfrwt>
<pdfrwt beam="2">  1       21 0.14562187E-01 0.47463211E+03</pdfrwt>
<totfact> 0.46981843E+04</totfact>
</mgrwt>
</event>
