<event>
 6    0  0.9446846E-004  0.7157815E+03  0.7546771E-02  0.9690618E-01
         21   -1    0    0  502  501  0.00000000000E+00  0.00000000000E+00  0.13877872003E+04  0.13877872003E+04  0.00000000000E+00 0. -1.
         21   -1    0    0  501  502 -0.00000000000E+00 -0.00000000000E+00 -0.92294984597E+02  0.92294984597E+02  0.00000000000E+00 0.  1.
      99926    2    1    2    0    0 -0.15828967481E+02 -0.10125861065E+03  0.94632541733E+03  0.10952850648E+04  0.54186134321E+03 0.  0.
         25    1    3    3    0    0  0.64410410959E+02  0.18269144858E+03  0.37582606037E+03  0.44092811452E+03  0.12509000000E+03 0.  0.
         25    1    3    3    0    0 -0.80239378440E+02 -0.28395005923E+03  0.57049935696E+03  0.65435695028E+03  0.12509000000E+03 0.  0.
         25    1    1    2    0    0  0.15828967481E+02  0.10125861065E+03  0.34916679838E+03  0.38479712010E+03  0.12509000000E+03 0.  0.
<mgrwt>
<rscale>  2 0.71578153E+03</rscale>
<asrwt>0</asrwt>
<pdfrwt beam="1">  1       21 0.20408634E+00 0.71578153E+03</pdfrwt>
<pdfrwt beam="2">  1       21 0.13572793E-01 0.71578153E+03</pdfrwt>
<totfact> 0.47170520E+03</totfact>
</mgrwt>
</event>
<event>
 6    0  0.1116919E-004  0.5855108E+03  0.7546771E-02  0.9935931E-01
         21   -1    0    0  502  501  0.00000000000E+00  0.00000000000E+00  0.35258016447E+03  0.35258016447E+03  0.00000000000E+00 0.  1.
         21   -1    0    0  501  502 -0.00000000000E+00 -0.00000000000E+00 -0.24308153244E+03  0.24308153244E+03  0.00000000000E+00 0.  1.
      99926    2    1    2    0    0 -0.10504357656E+03 -0.18364024002E+02  0.10442213952E+02  0.40374746498E+03  0.38927058108E+03 0.  0.
         25    1    3    3    0    0 -0.54770983513E+02 -0.13353697412E+03 -0.77138319357E+02  0.20598498126E+03  0.12509000000E+03 0.  0.
         25    1    1    2    0    0  0.10504357656E+03  0.18364024002E+02  0.99056418074E+02  0.19191423193E+03  0.12509000000E+03 0.  0.
         25    1    3    3    0    0 -0.50272593046E+02  0.11517295012E+03  0.87580533309E+02  0.19776248372E+03  0.12509000000E+03 0.  0.
<mgrwt>
<rscale>  2 0.58551081E+03</rscale>
<asrwt>0</asrwt>
<pdfrwt beam="1">  1       21 0.51850025E-01 0.58551081E+03</pdfrwt>
<pdfrwt beam="2">  1       21 0.35747284E-01 0.58551081E+03</pdfrwt>
<totfact> 0.23494580E+04</totfact>
</mgrwt>
</event>
<event>
 6    0  0.1116919E-004  0.5588022E+03  0.7546771E-02  0.9994769E-01
         21   -1    0    0  502  501  0.00000000000E+00  0.00000000000E+00  0.42626628832E+03  0.42626628832E+03  0.00000000000E+00 0. -1.
         21   -1    0    0  501  502 -0.00000000000E+00 -0.00000000000E+00 -0.18313664196E+03  0.18313664196E+03  0.00000000000E+00 0. -1.
      99926    2    1    2    0    0  0.99524146185E+02  0.25230781690E+02  0.17215056824E+03  0.43269077550E+03  0.38346295914E+03 0.  0.
         25    1    3    3    0    0 -0.42853918878E+02 -0.10132482082E+03  0.96777035676E+02  0.19265637911E+03  0.12509000000E+03 0.  0.
         25    1    1    2    0    0 -0.99524146185E+02 -0.25230781690E+02  0.70979078110E+02  0.17671215478E+03  0.12509000000E+03 0.  0.
         25    1    3    3    0    0  0.14237806506E+03  0.12655560251E+03  0.75373532569E+02  0.24003439639E+03  0.12509000000E+03 0.  0.
<mgrwt>
<rscale>  2 0.55880221E+03</rscale>
<asrwt>0</asrwt>
<pdfrwt beam="1">  1       21 0.62686219E-01 0.55880221E+03</pdfrwt>
<pdfrwt beam="2">  1       21 0.26931859E-01 0.55880221E+03</pdfrwt>
<totfact> 0.27527820E+04</totfact>
</mgrwt>
</event>
<event>
 5    0  0.3637735E-004  0.1258123E+04  0.7546771E-02  0.9063450E-01
         21   -1    0    0  502  501  0.00000000000E+00  0.00000000000E+00  0.16902216846E+04  0.16902216846E+04  0.00000000000E+00 0.  1.
         21   -1    0    0  501  502 -0.00000000000E+00 -0.00000000000E+00 -0.23412215714E+03  0.23412215714E+03  0.00000000000E+00 0. -1.
         25    1    1    2    0    0 -0.26122556125E+03 -0.25706236425E+03  0.54203322759E+03  0.66615867545E+03  0.12509000000E+03 0.  0.
         25    1    1    2    0    0 -0.16377177455E+03 -0.13668637317E+03  0.41618301735E+03  0.48410760249E+03  0.12509000000E+03 0.  0.
         25    1    1    2    0    0  0.42499733580E+03  0.39374873742E+03  0.49788328248E+03  0.77407756377E+03  0.12509000000E+03 0.  0.
<mgrwt>
<rscale>  2 0.12581230E+04</rscale>
<asrwt>0</asrwt>
<pdfrwt beam="1">  1       21 0.24856201E+00 0.12581230E+04</pdfrwt>
<pdfrwt beam="2">  1       21 0.34429730E-01 0.12581230E+04</pdfrwt>
<totfact> 0.35207511E+02</totfact>
</mgrwt>
</event>
<event>
 6    0  0.1116919E-004  0.5860655E+03  0.7546771E-02  0.9934745E-01
         21   -1    0    0  502  501  0.00000000000E+00  0.00000000000E+00  0.50222109454E+03  0.50222109454E+03  0.00000000000E+00 0.  1.
         21   -1    0    0  501  502 -0.00000000000E+00 -0.00000000000E+00 -0.17097690035E+03  0.17097690035E+03  0.00000000000E+00 0. -1.
      99926    2    1    2    0    0  0.72340446959E+02  0.11639724915E+03  0.21909026891E+03  0.45638593127E+03  0.37617298209E+03 0.  0.
         25    1    1    2    0    0 -0.72340446959E+02 -0.11639724915E+03  0.11215392528E+03  0.21681206362E+03  0.12509000000E+03 0.  0.
         25    1    3    3    0    0  0.12893783336E+03  0.15972608122E+03  0.72881210422E+02  0.25119029604E+03  0.12509000000E+03 0.  0.
         25    1    3    3    0    0 -0.56597386400E+02 -0.43328832064E+02  0.14620905849E+03  0.20519563523E+03  0.12509000000E+03 0.  0.
<mgrwt>
<rscale>  2 0.58606555E+03</rscale>
<asrwt>0</asrwt>
<pdfrwt beam="1">  1       21 0.73856043E-01 0.58606555E+03</pdfrwt>
<pdfrwt beam="2">  1       21 0.25143662E-01 0.58606555E+03</pdfrwt>
<totfact> 0.21656319E+04</totfact>
</mgrwt>
</event>
<event>
 5    0  0.1116919E-004  0.5494652E+03  0.7546771E-02  0.1001618E+00
         21   -1    0    0  502  501  0.00000000000E+00  0.00000000000E+00  0.93517496678E+02  0.93517496678E+02  0.00000000000E+00 0. -1.
         21   -1    0    0  501  502 -0.00000000000E+00 -0.00000000000E+00 -0.80710043832E+03  0.80710043832E+03  0.00000000000E+00 0. -1.
         25    1    1    2    0    0  0.10504757933E+03  0.12120370611E+03 -0.22596374142E+03  0.30402705938E+03  0.12509000000E+03 0.  0.
         25    1    1    2    0    0 -0.69549795231E+02 -0.35846708735E+01 -0.33433866652E+03  0.36370300509E+03  0.12509000000E+03 0.  0.
         25    1    1    2    0    0 -0.35497784100E+02 -0.11761903524E+03 -0.15328053370E+03  0.23288787053E+03  0.12509000000E+03 0.  0.
<mgrwt>
<rscale>  2 0.54946524E+03</rscale>
<asrwt>0</asrwt>
<pdfrwt beam="1">  1       21 0.13752573E-01 0.54946524E+03</pdfrwt>
<pdfrwt beam="2">  1       21 0.11869124E+00 0.54946524E+03</pdfrwt>
<totfact> 0.21917053E+04</totfact>
</mgrwt>
</event>
<event>
 5    0  0.1132958E-004  0.7899084E+03  0.7546771E-02  0.9574740E-01
         21   -1    0    0  502  501  0.00000000000E+00  0.00000000000E+00  0.28953822989E+03  0.28953822989E+03  0.00000000000E+00 0.  1.
         21   -1    0    0  501  502 -0.00000000000E+00 -0.00000000000E+00 -0.53875040493E+03  0.53875040493E+03  0.00000000000E+00 0. -1.
         25    1    1    2    0    0 -0.10033192972E+03  0.32164662638E+03 -0.15151237102E+03  0.39003404346E+03  0.12509000000E+03 0.  0.
         25    1    1    2    0    0  0.19307043922E+02 -0.13554701247E+03 -0.15671205085E+02  0.18611515066E+03  0.12509000000E+03 0.  0.
         25    1    1    2    0    0  0.81024885799E+02 -0.18609961391E+03 -0.82028598940E+02  0.25213944071E+03  0.12509000000E+03 0.  0.
<mgrwt>
<rscale>  2 0.78990845E+03</rscale>
<asrwt>0</asrwt>
<pdfrwt beam="1">  1       21 0.42579152E-01 0.78990845E+03</pdfrwt>
<pdfrwt beam="2">  1       21 0.79228000E-01 0.78990845E+03</pdfrwt>
<totfact> 0.60981687E+03</totfact>
</mgrwt>
</event>
<event>
 6    0  0.1116919E-004  0.5486742E+03  0.7546771E-02  0.1001801E+00
         21   -1    0    0  502  501  0.00000000000E+00  0.00000000000E+00  0.30230411815E+03  0.30230411815E+03  0.00000000000E+00 0. -1.
         21   -1    0    0  501  502 -0.00000000000E+00 -0.00000000000E+00 -0.24895741598E+03  0.24895741598E+03  0.00000000000E+00 0. -1.
      99926    2    1    2    0    0 -0.23410942362E+00 -0.18665527271E+02 -0.44612463939E+02  0.39128665161E+03  0.38828664035E+03 0.  0.
         25    1    1    2    0    0  0.23410942362E+00  0.18665527271E+02  0.97959166108E+02  0.15997488253E+03  0.12509000000E+03 0.  0.
         25    1    3    3    0    0 -0.13627928728E+03 -0.38756595491E+02  0.29244706492E+02  0.19125082691E+03  0.12509000000E+03 0.  0.
         25    1    3    3    0    0  0.13604517785E+03  0.20091068220E+02 -0.73857170431E+02  0.20003582470E+03  0.12509000000E+03 0.  0.
<mgrwt>
<rscale>  2 0.54867423E+03</rscale>
<asrwt>0</asrwt>
<pdfrwt beam="1">  1       21 0.44456488E-01 0.54867423E+03</pdfrwt>
<pdfrwt beam="2">  1       21 0.36611385E-01 0.54867423E+03</pdfrwt>
<totfact> 0.31251451E+04</totfact>
</mgrwt>
</event>
<event>
 6    0  0.1116919E-004  0.6268948E+03  0.7546771E-02  0.9851127E-01
         21   -1    0    0  502  501  0.00000000000E+00  0.00000000000E+00  0.34973919529E+03  0.34973919529E+03  0.00000000000E+00 0.  1.
         21   -1    0    0  501  502 -0.00000000000E+00 -0.00000000000E+00 -0.28092152083E+03  0.28092152083E+03  0.00000000000E+00 0.  1.
      99926    2    1    2    0    0 -0.14418343464E+03 -0.97417487193E+02  0.84350528764E+02  0.41579376358E+03  0.36809022330E+03 0.  0.
         25    1    1    2    0    0  0.14418343464E+03  0.97417487193E+02 -0.15532854306E+02  0.21486695255E+03  0.12509000000E+03 0.  0.
         25    1    3    3    0    0 -0.10699004720E+03  0.37388933358E+02 -0.59916686190E+02  0.17911538159E+03  0.12509000000E+03 0.  0.
         25    1    3    3    0    0 -0.37193387441E+02 -0.13480642055E+03  0.14426721495E+03  0.23667838199E+03  0.12509000000E+03 0.  0.
<mgrwt>
<rscale>  2 0.62689478E+03</rscale>
<asrwt>0</asrwt>
<pdfrwt beam="1">  1       21 0.51432235E-01 0.62689478E+03</pdfrwt>
<pdfrwt beam="2">  1       21 0.41311988E-01 0.62689478E+03</pdfrwt>
<totfact> 0.17603663E+04</totfact>
</mgrwt>
</event>
<event>
 5    0  0.1116919E-004  0.5161486E+03  0.7546771E-02  0.1009648E+00
         21   -1    0    0  502  501  0.00000000000E+00  0.00000000000E+00  0.60000527991E+02  0.60000527991E+02  0.00000000000E+00 0. -1.
         21   -1    0    0  501  502 -0.00000000000E+00 -0.00000000000E+00 -0.11100292440E+04  0.11100292440E+04  0.00000000000E+00 0. -1.
         25    1    1    2    0    0 -0.97080090724E+02 -0.51980382015E+02 -0.16210097509E+03  0.23248814670E+03  0.12509000000E+03 0.  0.
         25    1    1    2    0    0  0.90763562498E+02  0.11019549085E+01 -0.34501224805E+03  0.37804787790E+03  0.12509000000E+03 0.  0.
         25    1    1    2    0    0  0.63165282256E+01  0.50878427106E+02 -0.54291549291E+03  0.55949374743E+03  0.12509000000E+03 0.  0.
<mgrwt>
<rscale>  2 0.51614859E+03</rscale>
<asrwt>0</asrwt>
<pdfrwt beam="1">  1       21 0.88236073E-02 0.51614859E+03</pdfrwt>
<pdfrwt beam="2">  1       21 0.16323959E+00 0.51614859E+03</pdfrwt>
<totfact> 0.21119932E+04</totfact>
</mgrwt>
</event>
<event>
 5    0  0.1116919E-004  0.1010195E+04  0.7546771E-02  0.9297434E-01
         21   -1    0    0  502  501  0.00000000000E+00  0.00000000000E+00  0.34216368691E+03  0.34216368691E+03  0.00000000000E+00 0. -1.
         21   -1    0    0  501  502 -0.00000000000E+00 -0.00000000000E+00 -0.74561761966E+03  0.74561761966E+03  0.00000000000E+00 0.  1.
         25    1    1    2    0    0 -0.42479662526E+02  0.54132901304E+02 -0.23002405025E+02  0.14460813071E+03  0.12509000000E+03 0.  0.
         25    1    1    2    0    0 -0.36065997256E+03  0.24064703732E+02 -0.34039320616E+03  0.51202516410E+03  0.12509000000E+03 0.  0.
         25    1    1    2    0    0  0.40313963509E+03 -0.78197605036E+02 -0.40058321571E+02  0.43114801175E+03  0.12509000000E+03 0.  0.
<mgrwt>
<rscale>  2 0.10101946E+04</rscale>
<asrwt>0</asrwt>
<pdfrwt beam="1">  1       21 0.50318189E-01 0.10101946E+04</pdfrwt>
<pdfrwt beam="2">  1       21 0.10964965E+00 0.10101946E+04</pdfrwt>
<totfact> 0.18677612E+03</totfact>
</mgrwt>
</event>
<event>
 6    0  0.1116919E-004  0.5841038E+03  0.7546771E-02  0.9938946E-01
         21   -1    0    0  502  501  0.00000000000E+00  0.00000000000E+00  0.38131849769E+03  0.38131849769E+03  0.00000000000E+00 0. -1.
         21   -1    0    0  501  502 -0.00000000000E+00 -0.00000000000E+00 -0.22368260453E+03  0.22368260453E+03  0.00000000000E+00 0. -1.
      99926    2    1    2    0    0 -0.89596121040E+02 -0.35093622914E+02  0.17592451822E+03  0.44612690928E+03  0.39852321864E+03 0.  0.
         25    1    3    3    0    0 -0.63050141646E+02 -0.15332094475E+03  0.13713162131E+02  0.20813022696E+03  0.12509000000E+03 0.  0.
         25    1    1    2    0    0  0.89596121040E+02  0.35093622914E+02 -0.18288625058E+02  0.15887419294E+03  0.12509000000E+03 0.  0.
         25    1    3    3    0    0 -0.26545979394E+02  0.11822732183E+03  0.16221135609E+03  0.23799668232E+03  0.12509000000E+03 0.  0.
<mgrwt>
<rscale>  2 0.58410381E+03</rscale>
<asrwt>0</asrwt>
<pdfrwt beam="1">  1       21 0.56076249E-01 0.58410381E+03</pdfrwt>
<pdfrwt beam="2">  1       21 0.32894501E-01 0.58410381E+03</pdfrwt>
<totfact> 0.23482711E+04</totfact>
</mgrwt>
</event>
<event>
 5    0  0.1116919E-004  0.4504385E+03  0.7546771E-02  0.1027591E+00
         21   -1    0    0  502  501  0.00000000000E+00  0.00000000000E+00  0.11214848268E+03  0.11214848268E+03  0.00000000000E+00 0.  1.
         21   -1    0    0  501  502 -0.00000000000E+00 -0.00000000000E+00 -0.45229060252E+03  0.45229060252E+03  0.00000000000E+00 0.  1.
         25    1    1    2    0    0 -0.41429084349E+02 -0.37579509211E+02 -0.16378782155E+03  0.21354752897E+03  0.12509000000E+03 0.  0.
         25    1    1    2    0    0 -0.42560278719E+02  0.62791467518E+01 -0.24186427782E+02  0.13447414769E+03  0.12509000000E+03 0.  0.
         25    1    1    2    0    0  0.83989363068E+02  0.31300362460E+02 -0.15216787052E+03  0.21641740853E+03  0.12509000000E+03 0.  0.
<mgrwt>
<rscale>  2 0.45043847E+03</rscale>
<asrwt>0</asrwt>
<pdfrwt beam="1">  1       21 0.16492423E-01 0.45043847E+03</pdfrwt>
<pdfrwt beam="2">  1       21 0.66513327E-01 0.45043847E+03</pdfrwt>
<totfact> 0.63170652E+04</totfact>
</mgrwt>
</event>
<event>
 5    0  0.1116919E-004  0.7784992E+03  0.7546771E-02  0.9591671E-01
         21   -1    0    0  502  501  0.00000000000E+00  0.00000000000E+00  0.61996387995E+03  0.61996387995E+03  0.00000000000E+00 0.  1.
         21   -1    0    0  501  502 -0.00000000000E+00 -0.00000000000E+00 -0.24439370328E+03  0.24439370328E+03  0.00000000000E+00 0. -1.
         25    1    1    2    0    0  0.23257557708E+03  0.15045658067E+03 -0.30878818290E+00  0.30393450803E+03  0.12509000000E+03 0.  0.
         25    1    1    2    0    0 -0.75269007837E+02 -0.21456005577E+02  0.48763724006E+02  0.15540653974E+03  0.12509000000E+03 0.  0.
         25    1    1    2    0    0 -0.15730656924E+03 -0.12900057509E+03  0.32711524085E+03  0.40501653546E+03  0.12509000000E+03 0.  0.
<mgrwt>
<rscale>  2 0.77849924E+03</rscale>
<asrwt>0</asrwt>
<pdfrwt beam="1">  1       21 0.91171159E-01 0.77849924E+03</pdfrwt>
<pdfrwt beam="2">  1       21 0.35940251E-01 0.77849924E+03</pdfrwt>
<totfact> 0.62288927E+03</totfact>
</mgrwt>
</event>
<event>
 5    0  0.1116919E-004  0.7942785E+03  0.7546771E-02  0.9568336E-01
         21   -1    0    0  502  501  0.00000000000E+00  0.00000000000E+00  0.16507395061E+03  0.16507395061E+03  0.00000000000E+00 0.  1.
         21   -1    0    0  501  502 -0.00000000000E+00 -0.00000000000E+00 -0.95544794080E+03  0.95544794080E+03  0.00000000000E+00 0. -1.
         25    1    1    2    0    0 -0.14419781815E+03  0.19457340105E+03 -0.20968122785E+03  0.34389757860E+03  0.12509000000E+03 0.  0.
         25    1    1    2    0    0 -0.10989812860E+03 -0.53248279300E+02 -0.32772701512E+03  0.37143705046E+03  0.12509000000E+03 0.  0.
         25    1    1    2    0    0  0.25409594675E+03 -0.14132512175E+03 -0.25296574723E+03  0.40518726234E+03  0.12509000000E+03 0.  0.
<mgrwt>
<rscale>  2 0.79427846E+03</rscale>
<asrwt>0</asrwt>
<pdfrwt beam="1">  1       21 0.24275581E-01 0.79427846E+03</pdfrwt>
<pdfrwt beam="2">  1       21 0.14050705E+00 0.79427846E+03</pdfrwt>
<totfact> 0.45388052E+03</totfact>
</mgrwt>
</event>
